Control file title. For DL_FIELD 4.10
49660
    1MOL     C1    1   0.937   3.193   5.070 -0.2186 -0.2234 -0.3131
    1MOL     C2    2   0.950   3.039   5.081  0.0852 -0.5721  0.2663
    1MOL     C3    3   0.823   2.958   5.118 -0.0364 -0.3426 -0.2108
    1MOL     C4    4   0.877   2.839   5.193  0.5038  0.2618  1.0620
    1MOL     C5    5   0.998   2.901   5.267  0.7075  0.8620 -0.4021
    1MOL     C6    6   1.049   3.022   5.192  0.2481 -0.1599 -0.1754
    1MOL     C7    7   0.857   3.248   4.949  0.4208  0.8937  0.5758
    1MOL     H8    8   0.901   3.234   5.164 -2.5027  1.5098 -1.8863
    1MOL     H9    9   0.990   2.996   4.990 -0.1023  1.3445 -0.7618
    1MOL    H10   10   0.760   3.012   5.189  0.7626 -0.3349  0.4955
    1MOL    H11   11   0.770   2.924   5.030 -1.3979  0.0418  0.4478
    1MOL    H12   12   0.800   2.803   5.262 -1.6068  0.9227 -0.8887
    1MOL    H13   13   0.910   2.759   5.126  0.9110 -0.7049  2.3827
    1MOL    H14   14   0.972   2.926   5.369 -0.9941  2.2553 -1.1667
    1MOL    H15   15   1.073   2.821   5.276  0.6435  0.8424 -0.0487
    1MOL    H16   16   1.147   3.011   5.147  1.2294 -1.1702  2.1174
    1MOL    H17   17   1.055   3.106   5.261 -2.1147 -0.6230  0.6653
    1MOL    H18   18   0.895   3.228   4.849 -2.0990  1.0787 -0.4595
    1MOL    H19   19   0.757   3.203   4.952  0.2743  1.1609 -0.1045
    1MOL    H20   20   1.038   3.234   5.057  0.1179 -0.8216  0.4338
    1MOL    C21   21   0.835   3.401   4.945  0.5471 -0.1501 -0.3778
    1MOL    C22   22   0.751   3.447   5.063  0.3765  0.4044 -0.3956
    1MOL    C23   23   0.605   3.381   5.068  0.2447 -1.4247  0.1894
    1MOL    C24   24   0.524   3.476   5.156 -0.3961  0.2544 -0.1805
    1MOL    C25   25   0.594   3.614   5.153  0.4749  0.4218 -0.3392
    1MOL    C26   26   0.722   3.595   5.071 -0.4183 -0.5859  0.3511
    1MOL    C27   27   0.963   3.484   4.931  0.8535  0.1905 -0.1531
    1MOL    H28   28   0.766   3.424   4.864 -0.0422  1.5316  0.5835
    1MOL    H29   29   0.789   3.418   5.161 -0.7109  2.2561  0.6119
    1MOL    H30   30   0.600   3.280   5.109  1.2457 -1.6190 -0.1732
    1MOL    H31   31   0.568   3.376   4.966 -1.1026  1.5806  0.4657
    1MOL    H32   32   0.417   3.473   5.134 -0.1413  0.5741 -1.4452
    1MOL    H33   33   0.543   3.434   5.255  0.1032 -0.1161 -0.4333
    1MOL    H34   34   0.636   3.640   5.250 -0.2311  1.5131 -0.3116
    1MOL    H35   35   0.525   3.695   5.128  1.5445  1.5807  0.3818
    1MOL    H36   36   0.802   3.651   5.120 -0.4746 -1.2000  1.1481
    1MOL    H37   37   0.718   3.630   4.968  1.1589 -0.2149  0.4027
    1MOL    H38   38   0.937   3.588   4.912  1.5167  0.1635 -1.2629
    1MOL    H39   39   1.022   3.491   5.023 -1.1035 -0.6293  1.1888
    1MOL    C40   40   1.056   3.451   4.813 -1.1138  0.1892 -0.3220
    1MOL    C41   41   0.986   3.473   4.673 -0.4417 -0.4005 -0.2407
    1MOL    C42   42   1.043   3.383   4.560 -0.7015  0.2582 -0.5456
    1MOL    C43   43   1.005   3.447   4.428 -0.3646 -0.2785  0.2459
    1MOL    C44   44   1.025   3.594   4.461 -0.1397  0.4503  0.1817
    1MOL    C45   45   0.994   3.613   4.608  0.3908 -0.0175  0.1969
    1MOL    C46   46   1.195   3.523   4.841 -0.1092 -0.5760  0.5767
    1MOL    H47   47   1.077   3.344   4.819 -0.7387  0.1925 -1.5480
    1MOL    H48   48   0.879   3.458   4.689 -0.2385  1.0085  2.8904
    1MOL    H49   49   1.001   3.282   4.557 -0.7445  0.3116 -2.1882
    1MOL    H50   50   1.151   3.372   4.562 -0.5722  1.6134  0.6202
    1MOL    H51   51   0.900   3.429   4.408 -0.3946 -0.1931  0.3217
    1MOL    H52   52   1.073   3.417   4.349  1.7917  0.4989  1.7368
    1MOL    H53   53   1.124   3.633   4.438  0.1280  1.0939  2.3144
    1MOL    H54   54   0.961   3.655   4.397 -0.3235  0.8521  0.7343
    1MOL    H55   55   1.069   3.683   4.644 -0.1992  0.9276 -0.3605
    1MOL    H56   56   0.900   3.660   4.636  0.8733  0.5832  0.8105
    1MOL    H57   57   1.251   3.520   4.748  0.0298  0.0790  0.6355
    1MOL    H58   58   1.186   3.630   4.862 -0.2590 -0.2412 -1.1264
    1MOL    C59   59   1.284   3.459   4.960 -1.5754  0.2664  0.7700
    1MOL    C60   60   1.383   3.351   4.905 -0.0958  0.4960  0.0977
    1MOL    C61   61   1.313   3.232   4.827 -0.3573 -0.6860  0.3762
    1MOL    C62   62   1.415   3.127   4.820 -0.2381  0.6757 -0.4660
    1MOL    C63   63   1.462   3.127   4.963 -0.2001 -0.1825  0.1488
    1MOL    C64   64   1.462   3.272   5.007 -0.6154  0.1027  0.3834
    1MOL    C65   65   1.364   3.571   5.029 -0.3466 -0.3174 -0.5339
    1MOL    H66   66   1.218   3.412   5.034  0.5426 -0.6033  2.1657
    1MOL    H67   67   1.458   3.399   4.842 -1.1768  0.0582 -1.5376
    1MOL    H68   68   1.273   3.257   4.729 -0.6276 -2.3800  0.0380
    1MOL    H69   69   1.233   3.196   4.891 -0.5546 -0.9316 -0.0087
    1MOL    H70   70   1.498   3.153   4.754 -0.2319 -0.4672 -0.9280
    1MOL    H71   71   1.367   3.037   4.782  1.6367  0.0096 -1.2943
    1MOL    H72   72   1.565   3.092   4.969  0.0718 -0.0194 -2.8766
    1MOL    H73   73   1.404   3.063   5.030  1.5460 -0.2147  1.6595
    1MOL    H74   74   1.415   3.280   5.105  0.7699 -0.8054  1.1274
    1MOL    H75   75   1.564   3.307   5.018 -0.4902  0.0421 -0.5162
    1MOL    H76   76   1.404   3.640   4.954 -1.7342  1.2121  0.1030
    1MOL    H77   77   1.453   3.530   5.078 -2.8117 -0.7873  3.8208
    1MOL    C78   78   1.300   3.649   5.147  0.0721  0.5317 -0.5034
    1MOL    C79   79   1.284   3.556   5.277 -0.0346  0.4919  0.5694
    1MOL    C80   80   1.169   3.602   5.363  0.4871 -0.5786  0.3584
    1MOL    C81   81   1.234   3.624   5.498  0.2050 -0.3846 -0.0871
    1MOL    C82   82   1.353   3.526   5.505 -0.1413 -0.4988  0.1922
    1MOL    C83   83   1.407   3.520   5.361 -0.3642 -0.0042 -0.3962
    1MOL    C84   84   1.387   3.768   5.187  0.2817 -0.1446 -0.1708
    1MOL    H85   85   1.199   3.682   5.122 -0.0844 -0.4083 -1.1403
    1MOL    H86   86   1.257   3.460   5.233 -1.0290  1.2340 -0.4768
    1MOL    H87   87   1.110   3.511   5.370 -0.6754 -0.0011 -1.5201
    1MOL    H88   88   1.105   3.685   5.332  1.0038  0.5079  2.1044
    1MOL    H89   89   1.163   3.603   5.578  0.8597  3.3753  1.5726
    1MOL    H90   90   1.268   3.727   5.509  0.1313 -0.3236 -0.4398
    1MOL    H91   91   1.439   3.547   5.568 -0.4977  0.1065  0.4757
    1MOL    H92   92   1.314   3.427   5.527  1.0430 -1.2500 -0.9801
    1MOL    H93   93   1.493   3.585   5.351  0.4438 -0.8161  1.0852
    1MOL    H94   94   1.451   3.424   5.331  2.5183  0.2198  2.7996
    1MOL    H95   95   1.490   3.733   5.179  0.6789  0.3128  2.4964
    1MOL    H96   96   1.391   3.804   5.290 -1.1974  0.4276 -0.3042
    1MOL    C97   97   1.370   3.899   5.097  0.3712  0.3271  0.3418
    1MOL    C98   98   1.494   3.994   5.086  0.3189 -0.0446 -0.2011
    1MOL    C99   99   1.555   4.038   5.219 -0.1054 -0.1469  0.5575
    1MOL   C100  100   1.696   4.080   5.184 -0.2160  0.6284  0.5226
    1MOL   C101  101   1.743   4.007   5.058 -0.0413  0.8991  0.0500
    1MOL   C102  102   1.615   3.944   5.000 -0.2101 -0.0286  0.2125
    1MOL   C103  103   1.245   3.977   5.150 -0.5308 -0.1122  0.2748
    1MOL   H104  104   1.357   3.863   4.995 -0.2562  1.0407  0.1692
    1MOL   H105  105   1.462   4.085   5.035 -0.8096 -1.4353 -2.0696
    1MOL   H106  106   1.495   4.118   5.263 -2.4784 -1.6862  0.1832
    1MOL   H107  107   1.571   3.960   5.294 -2.0974 -0.3225  0.8329
    1MOL   H108  108   1.763   4.056   5.267  0.2892  0.7750  0.1654
    1MOL   H109  109   1.712   4.187   5.172  0.5143  0.4746  0.0353
    1MOL   H110  110   1.813   3.932   5.095  0.1737  1.7449  1.3890
    1MOL   H111  111   1.794   4.070   4.985 -0.2134 -0.5805 -1.3712
    1MOL   H112  112   1.615   3.982   4.898 -2.1302  0.8517  0.5016
    1MOL   H113  113   1.631   3.837   4.996 -0.1057 -0.0570  1.3266
    1MOL   H114  114   1.171   3.911   5.196 -3.5370  3.1201  0.2473
    1MOL   H115  115   1.277   4.040   5.233 -1.1011  0.6815 -0.1056
    1MOL   C116  116   1.165   4.067   5.049 -0.3912 -0.4034  0.3740
    1MOL   C117  117   1.099   3.980   4.937  0.7942  0.1062 -0.6153
    1MOL   C118  118   0.992   3.876   4.985  0.2082  0.3906 -0.1546
    1MOL   C119  119   0.874   3.900   4.887  0.3761  0.0374 -0.3663
    1MOL   C120  120   0.883   4.042   4.848  0.4165  0.0773  0.3522
    1MOL   C121  121   1.036   4.056   4.822  0.5992  0.7013 -0.0669
    1MOL   C122  122   1.056   4.152   5.129 -0.1790  0.2033  0.9019
    1MOL   H123  123   1.230   4.129   4.988  0.2093 -2.5028 -1.1739
    1MOL   H124  124   1.182   3.923   4.896  2.0037  0.8212  0.7911
    1MOL   H125  125   1.019   3.771   4.974  0.3056  0.3539  0.4584
    1MOL   H126  126   0.959   3.888   5.088  1.5500 -3.1052  0.7738
    1MOL   H127  127   0.782   3.871   4.939  0.4045 -0.9230 -0.8503
    1MOL   H128  128   0.895   3.841   4.798 -0.3186  0.0937 -0.5726
    1MOL   H129  129   0.847   4.095   4.936  1.1731  1.8831 -0.4151
    1MOL   H130  130   0.820   4.060   4.761 -0.5023  2.2372  1.4261
    1MOL   H131  131   1.054   3.998   4.731 -0.5785 -1.5883  1.1300
    1MOL   H132  132   1.067   4.159   4.805  1.7796  0.2961 -0.4299
    1MOL   H133  133   0.987   4.089   5.185 -0.0476  1.2532  2.2594
    1MOL   H134  134   0.983   4.192   5.058 -1.1776 -0.5267  1.4941
    1MOL   C135  135   1.118   4.275   5.207  0.1640 -0.4052 -0.3336
    1MOL   C136  136   1.058   4.280   5.350 -0.3181 -0.0412  0.4034
    1MOL   C137  137   1.118   4.385   5.447  0.7660  0.9145 -0.5193
    1MOL   C138  138   1.090   4.327   5.587 -0.4249  0.1017 -0.6793
    1MOL   C139  139   1.071   4.177   5.578  0.3457 -0.0470  0.2898
    1MOL   C140  140   1.100   4.152   5.433 -0.2105 -0.0016  0.5382
    1MOL   C141  141   1.097   4.414   5.139  0.2529 -0.1693  0.4836
    1MOL   H142  142   1.223   4.254   5.223  0.2111  0.1298  0.0898
    1MOL   H143  143   0.951   4.303   5.351 -0.4913 -0.4571 -2.7611
    1MOL   H144  144   1.227   4.387   5.440  0.7370  0.4055 -1.1295
    1MOL   H145  145   1.092   4.487   5.417  1.9519  1.0196 -1.2303
    1MOL   H146  146   1.012   4.391   5.629 -0.4667 -1.3215  1.4791
    1MOL   H147  147   1.175   4.344   5.652  0.1749 -3.9300 -0.3323
    1MOL   H148  148   0.967   4.161   5.604 -0.0146 -0.3551 -1.3316
    1MOL   H149  149   1.130   4.117   5.649  2.8041  1.4925 -0.3723
    1MOL   H150  150   1.208   4.145   5.420 -0.4232 -3.2688  0.0731
    1MOL   H151  151   1.047   4.062   5.403 -1.7057  0.3275  2.1117
    1MOL   H152  152   1.106   4.495   5.211  0.3141  0.4758 -0.2374
    1MOL   H153  153   1.001   4.442   5.095  0.5309 -0.2041 -0.1569
    1MOL   C154  154   1.195   4.447   5.027  0.1684  0.1367  0.6013
    1MOL   C155  155   1.346   4.431   5.067 -0.1933  0.3529  0.4730
    1MOL   C156  156   1.398   4.493   5.189 -1.0073  0.7851  0.3353
    1MOL   C157  157   1.554   4.485   5.178  0.3348  0.3453  0.7484
    1MOL   C158  158   1.590   4.462   5.032 -0.2267 -0.2386  0.2155
    1MOL   C159  159   1.450   4.471   4.962  0.0348  0.4918 -0.0823
    1MOL   C160  160   1.160   4.389   4.889  0.3715 -0.5750 -0.2631
    1MOL   H161  161   1.179   4.555   5.016  0.1020  0.0875  0.2206
    1MOL   H162  162   1.371   4.325   5.081 -0.0879  0.4139  0.7568
    1MOL   H163  163   1.358   4.594   5.201 -0.2329  0.9322  1.8264
    1MOL   H164  164   1.383   4.437   5.281  2.3099  0.7973  0.9173
    1MOL   H165  165   1.605   4.575   5.212 -1.5486  0.8733  2.2380
    1MOL   H166  166   1.590   4.405   5.244 -1.5111  0.3602  1.8060
    1MOL   H167  167   1.637   4.364   5.027 -1.0350 -0.6047 -0.5303
    1MOL   H168  168   1.659   4.540   5.002  1.0742 -0.9691  1.2724
    1MOL   H169  169   1.455   4.407   4.874 -0.4760 -0.8523  0.8523
    1MOL   H170  170   1.427   4.574   4.934 -2.0906  0.7107  2.2121
    1MOL   H171  171   1.073   4.329   4.915 -0.4917  0.8509  0.1723
    1MOL   H172  172   1.248   4.329   4.863 -0.5227 -1.3993 -1.4259
    1MOL   C173  173   1.107   4.487   4.786 -0.2517  0.0650  0.0863
    1MOL   C174  174   0.956   4.507   4.807  0.1205 -0.4082 -0.6006
    1MOL   C175  175   0.860   4.388   4.783  0.2324 -0.5857  0.0640
    1MOL   C176  176   0.718   4.453   4.781 -0.7173  0.3250  0.1561
    1MOL   C177  177   0.747   4.607   4.760  0.1899 -0.1481  0.4153
    1MOL   C178  178   0.898   4.625   4.728 -0.4909 -0.3688  0.0559
    1MOL   C179  179   1.145   4.451   4.642 -0.9644 -0.2391  0.0687
    1MOL   H180  180   1.161   4.581   4.801  1.5100 -1.1435  1.4713
    1MOL   H181  181   0.933   4.528   4.911  0.4402  0.5006 -0.7114
    1MOL   H182  182   0.853   4.315   4.864 -1.4463  0.8569  1.2606
    1MOL   H183  183   0.889   4.334   4.693 -0.7731  1.0138 -1.2452
    1MOL   H184  184   0.655   4.405   4.707 -3.9470  1.8667  1.8099
    1MOL   H185  185   0.673   4.443   4.880  0.8335 -1.1720  0.7483
    1MOL   H186  186   0.726   4.659   4.853 -0.5941  0.3268 -0.0236
    1MOL   H187  187   0.679   4.651   4.688 -2.2843 -2.9853  0.9324
    1MOL   H188  188   0.912   4.609   4.621 -0.8275  0.4435 -0.1117
    1MOL   H189  189   0.938   4.718   4.767  1.6331 -1.9950  1.8978
    1MOL   H190  190   1.098   4.354   4.626 -2.2689  0.5044 -0.7189
    1MOL   H191  191   1.089   4.504   4.564 -2.7377  0.9175  2.0722
    1MOL   C192  192   1.292   4.444   4.604 -0.1551 -0.1092  0.5891
    1MOL   C193  193   1.336   4.560   4.507 -0.2573  1.4145  0.2681
    1MOL   C194  194   1.488   4.551   4.487 -0.2409  0.0071 -0.8044
    1MOL   C195  195   1.537   4.691   4.458 -1.0101  0.3925  0.8472
    1MOL   C196  196   1.425   4.784   4.504 -0.4348  0.0203  0.3854
    1MOL   C197  197   1.320   4.699   4.568 -1.0688 -0.2544 -0.6135
    1MOL   C198  198   1.333   4.299   4.558 -0.9289 -0.5571 -0.5360
    1MOL   H199  199   1.353   4.474   4.690 -1.1658 -2.5343  2.2039
    1MOL   H200  200   1.283   4.553   4.411  0.9238 -0.4248 -0.2906
    1MOL   H201  201   1.514   4.486   4.404  0.7263  0.3805 -0.8074
    1MOL   H202  202   1.534   4.519   4.581 -0.8641  0.7312 -0.2448
    1MOL   H203  203   1.636   4.714   4.497 -0.8724  0.2441  0.5847
    1MOL   H204  204   1.545   4.697   4.349 -1.4240 -2.6496  0.5868
    1MOL   H205  205   1.389   4.849   4.424 -2.7640 -1.2290  0.3933
    1MOL   H206  206   1.462   4.864   4.569  2.6074 -1.0120  0.0291
    1MOL   H207  207   1.222   4.746   4.556 -1.2145 -0.2526  0.5049
    1MOL   H208  208   1.332   4.692   4.676 -1.9228  2.0718 -0.3513
    1MOL   H209  209   1.438   4.296   4.587 -0.5580 -0.2298 -1.7968
    1MOL   H210  210   1.275   4.231   4.620  0.5139 -2.3318 -1.0813
    1MOL   C211  211   1.329   4.258   4.412 -0.3642  0.7891  0.3584
    1MOL   C212  212   1.462   4.181   4.372  0.1418  0.1207  0.0362
    1MOL   C213  213   1.484   4.034   4.419  0.6136  0.0412  0.3267
    1MOL   C214  214   1.609   3.985   4.338 -0.3705  0.2726 -0.0488
    1MOL   C215  215   1.604   4.074   4.213  0.0034 -0.4045  0.4251
    1MOL   C216  216   1.494   4.178   4.220 -0.4012 -0.4084 -0.2219
    1MOL   C217  217   1.202   4.174   4.368  0.9797  0.7273 -0.3462
    1MOL   H218  218   1.328   4.341   4.341 -0.7614  0.8666  0.4550
    1MOL   H219  219   1.549   4.235   4.409 -0.4365  0.9396  0.2136
    1MOL   H220  220   1.507   4.015   4.524  2.0644 -0.4914 -0.0712
    1MOL   H221  221   1.397   3.971   4.402 -0.0738  0.4529  2.1320
    1MOL   H222  222   1.700   4.003   4.395 -0.6626  1.6777 -0.0066
    1MOL   H223  223   1.595   3.878   4.317  1.4581  0.0390 -0.1718
    1MOL   H224  224   1.589   4.014   4.124  0.3393 -0.9739  0.7529
    1MOL   H225  225   1.701   4.114   4.185 -0.4396  0.3525 -0.0477
    1MOL   H226  226   1.522   4.278   4.186 -1.3577  0.2150  0.8089
    1MOL   H227  227   1.412   4.139   4.160 -1.6458  0.0205  1.1953
    1MOL   H228  228   1.172   4.116   4.456 -0.3549 -2.8455 -3.0192
    1MOL   H229  229   1.236   4.099   4.296 -0.2190  0.6204 -0.8081
    1MOL   C230  230   1.084   4.252   4.318 -0.1484  0.6888 -0.6391
    1MOL   C231  231   0.945   4.177   4.333  0.4078  0.6355  0.4161
    1MOL   C232  232   0.936   4.033   4.267 -0.3285  0.8909 -0.2158
    1MOL   C233  233   0.814   3.967   4.331  0.1382 -0.3102  0.2934
    1MOL   C234  234   0.810   4.018   4.477 -0.0382 -0.1418  0.0504
    1MOL   C235  235   0.882   4.159   4.471  0.6364 -0.4788 -0.7399
    1MOL   C236  236   1.127   4.282   4.173 -0.5307  0.3840 -1.1287
    1MOL   H237  237   1.061   4.339   4.378  0.5380  0.7865 -0.5088
    1MOL   H238  238   0.868   4.226   4.273 -1.3020  1.6387  3.3300
    1MOL   H239  239   0.917   4.027   4.160 -1.8177  0.7891  0.0359
    1MOL   H240  240   1.026   3.979   4.295 -0.7757  0.2107 -0.0772
    1MOL   H241  241   0.721   3.998   4.284 -0.3538 -1.2101  0.6677
    1MOL   H242  242   0.831   3.860   4.318  1.7663  0.1167 -1.4245
    1MOL   H243  243   0.869   3.959   4.547  3.2108  1.3724 -1.3018
    1MOL   H244  244   0.717   4.010   4.533 -0.3980  1.4533 -0.2835
    1MOL   H245  245   0.956   4.166   4.550  1.2481  1.7701 -1.4855
    1MOL   H246  246   0.816   4.243   4.491  2.1265  0.7778 -1.0165
    1MOL   H247  247   1.105   4.189   4.120  0.9083 -0.2369 -0.6667
    1MOL   H248  248   1.233   4.304   4.161 -0.1853 -0.2028  0.7056
    1MOL   C249  249   1.033   4.392   4.108 -0.5282 -0.3028  0.2031
    1MOL   C250  250   1.028   4.386   3.955 -0.5085  0.6700  0.7993
    1MOL   C251  251   0.925   4.283   3.895  0.6697  0.2113  0.2143
    1MOL   C252  252   0.960   4.261   3.750 -0.4572  0.0105 -0.6305
    1MOL   C253  253   1.117   4.288   3.742  0.0768 -0.3633 -0.4476
    1MOL   C254  254   1.156   4.346   3.877 -0.1316 -1.0852 -1.1216
    1MOL   C255  255   1.075   4.531   4.153  0.4232 -0.1998 -0.8531
    1MOL   H256  256   0.929   4.372   4.134 -0.6022  0.8726  0.8667
    1MOL   H257  257   0.991   4.483   3.923 -0.4865 -0.0794 -1.5753
    1MOL   H258  258   0.822   4.316   3.892  0.4045 -0.6400 -0.1978
    1MOL   H259  259   0.925   4.187   3.948 -0.4039  1.5408  2.7198
    1MOL   H260  260   0.904   4.336   3.694 -0.4134  1.5128  1.2703
    1MOL   H261  261   0.934   4.164   3.710 -0.6708 -0.6265  1.0157
    1MOL   H262  262   1.137   4.356   3.659 -0.9127 -1.7861 -1.8877
    1MOL   H263  263   1.169   4.196   3.715 -1.7291 -1.4032 -0.4883
    1MOL   H264  264   1.230   4.426   3.878 -1.1706 -0.0822  1.3040
    1MOL   H265  265   1.203   4.258   3.921  0.8877 -0.7100 -1.4439
    1MOL   H266  266   1.121   4.525   4.252  1.6793  1.1351 -1.3337
    1MOL   H267  267   1.154   4.569   4.088  1.2657  1.5199  1.0891
    1MOL   C268  268   0.962   4.632   4.156  0.3698  0.8168 -0.8970
    1MOL   C269  269   1.014   4.783   4.163 -0.3528  0.1398  0.2772
    1MOL   C270  270   1.085   4.862   4.037  0.2821 -0.6372 -0.1698
    1MOL   C271  271   1.157   4.984   4.095 -0.1856 -0.4146 -0.3248
    1MOL   C272  272   1.158   4.950   4.245 -0.0351 -0.1620  0.1560
    1MOL   C273  273   1.122   4.807   4.270  0.4081  0.6976 -0.2567
    1MOL   C274  274   0.850   4.598   4.253  0.9741 -0.2091  0.1308
    1MOL   H275  275   0.924   4.635   4.054 -1.0723  0.9326 -0.3660
    1MOL   H276  276   0.932   4.845   4.200  0.4927 -0.3645  3.0925
    1MOL   H277  277   1.156   4.791   3.993  2.9699  0.4584  2.2407
    1MOL   H278  278   1.011   4.891   3.962 -0.8008 -1.9571  0.3748
    1MOL   H279  279   1.259   4.996   4.058 -1.7002  0.6570 -4.3514
    1MOL   H280  280   1.100   5.074   4.074  1.3143 -0.0464 -3.1445
    1MOL   H281  281   1.086   5.010   4.299  0.4767  0.0624  0.5954
    1MOL   H282  282   1.256   4.971   4.287 -0.7154  0.6719  1.3155
    1MOL   H283  283   1.078   4.782   4.367 -1.2498  1.3249 -0.8369
    1MOL   H284  284   1.215   4.751   4.259  1.2895  2.1923 -0.4847
    1MOL   H285  285   0.835   4.683   4.319  1.9636 -2.1000  2.8970
    1MOL   H286  286   0.875   4.519   4.325  1.0030 -0.8776 -0.5991
    1MOL   C287  287   0.715   4.558   4.188 -0.0831  0.8157 -0.3397
    1MOL   C288  288   0.644   4.460   4.284 -0.9104 -0.5364 -0.4981
    1MOL   C289  289   0.581   4.530   4.414  0.0647 -0.3206 -0.0924
    1MOL   C290  290   0.479   4.428   4.458 -0.5331 -0.7121  0.6264
    1MOL   C291  291   0.413   4.394   4.324  0.3426  0.0014 -0.2175
    1MOL   C292  292   0.518   4.387   4.223  0.2357 -1.1812  0.5073
    1MOL   C293  293   0.623   4.680   4.143  0.3475 -0.2887  0.7136
    1MOL   H294  294   0.734   4.489   4.105  0.4056  1.2512 -0.5891
    1MOL   H295  295   0.715   4.386   4.319 -1.3979 -0.9676 -0.4136
    1MOL   H296  296   0.659   4.550   4.488 -0.8091  1.3634  0.3859
    1MOL   H297  297   0.537   4.628   4.398 -1.5407 -0.4210  3.1130
    1MOL   H298  298   0.530   4.343   4.504 -0.2117 -0.5860  0.5069
    1MOL   H299  299   0.409   4.471   4.530 -0.6756 -1.7496  1.1285
    1MOL   H300  300   0.332   4.464   4.306 -0.3341 -0.5627  0.5916
    1MOL   H301  301   0.358   4.300   4.332  1.0355 -0.5026 -1.2236
    1MOL   H302  302   0.488   4.421   4.124  2.8312  0.6602  0.2978
    1MOL   H303  303   0.542   4.281   4.213 -1.3998 -1.3535 -1.8938
    1MOL   H304  304   0.617   4.743   4.231 -1.3817 -0.0676  0.4591
    1MOL   H305  305   0.517   4.654   4.134  0.2045  0.5916 -0.2281
    1MOL   C306  306   0.656   4.775   4.025  0.0987  0.3649  0.7961
    1MOL   C307  307   0.662   4.694   3.894 -0.3042  0.1959 -0.6552
    1MOL   C308  308   0.540   4.598   3.874 -0.7869  0.1201 -0.8848
    1MOL   C309  309   0.525   4.596   3.723 -0.0779  0.6909  0.1989
    1MOL   C310  310   0.639   4.669   3.656  0.3334  0.3616 -0.4448
    1MOL   C311  311   0.680   4.770   3.765 -0.2728 -0.7529 -0.3385
    1MOL   C312  312   0.563   4.899   4.014  0.0359  0.0948  0.1020
    1MOL   H313  313   0.760   4.804   4.035  0.8627 -1.9130 -0.2695
    1MOL   H314  314   0.754   4.636   3.902 -0.4553  0.0259 -0.1566
    1MOL   H315  315   0.446   4.636   3.913  1.0811  3.2532  0.7029
    1MOL   H316  316   0.560   4.502   3.920  0.5310  1.4496  1.3798
    1MOL   H317  317   0.526   4.494   3.683  0.3336  2.0172 -3.3754
    1MOL   H318  318   0.432   4.642   3.689 -0.3536  0.5315  0.7317
    1MOL   H319  319   0.624   4.723   3.562  1.5073  0.9268 -0.3217
    1MOL   H320  320   0.728   4.610   3.632  0.8391  1.0994 -0.4215
    1MOL   H321  321   0.776   4.818   3.747  0.0012 -1.0400  0.3750
    1MOL   H322  322   0.613   4.856   3.759  0.0745 -0.4575  0.0605
    1MOL   H323  323   0.468   4.876   3.966 -0.2551  0.6260  0.4137
    1MOL   H324  324   0.615   4.977   3.958 -2.4947  1.1884 -0.8282
    1MOL   C325  325   0.528   4.984   4.144  0.2074 -0.3267  0.5041
    1MOL   C326  326   0.439   5.111   4.119  0.1575 -0.3198 -0.0701
    1MOL   C327  327   0.297   5.080   4.075  0.2712 -0.4169  0.0454
    1MOL   C328  328   0.230   5.202   4.011 -0.7751 -0.2127  0.3113
    1MOL   C329  329   0.350   5.273   3.951 -0.4810  0.4674  0.5720
    1MOL   C330  330   0.481   5.220   4.022  0.0975  0.0823  0.0761
    1MOL   C331  331   0.655   5.022   4.227  0.1883  0.4736  0.3306
    1MOL   H332  332   0.454   4.920   4.193  1.0130  0.8488  3.3592
    1MOL   H333  333   0.435   5.174   4.208 -2.1479  1.5146 -1.4215
    1MOL   H334  334   0.244   5.048   4.165 -0.5417  1.7612  0.3699
    1MOL   H335  335   0.286   4.994   4.008 -1.8402  0.7469 -1.1569
    1MOL   H336  336   0.187   5.265   4.089  0.2999 -0.3122  0.9831
    1MOL   H337  337   0.158   5.178   3.933  0.7437 -2.6718 -0.3998
    1MOL   H338  338   0.327   5.378   3.969 -2.8306  0.4458 -1.8652
    1MOL   H339  339   0.356   5.250   3.844  1.2625  1.1318  0.5238
    1MOL   H340  340   0.520   5.310   4.070  1.2701 -1.0041  1.1960
    1MOL   H341  341   0.563   5.188   3.958  0.6899 -0.3695  1.0492
    1MOL   H342  342   0.711   5.105   4.184 -0.3907  1.6265  1.7408
    1MOL   H343  343   0.723   4.937   4.227  1.4922  1.4971  0.0952
    1MOL   C344  344   0.627   5.067   4.374  0.1632  0.9384  0.0204
    1MOL   C345  345   0.763   5.094   4.445 -0.1498 -0.1873 -0.1502
    1MOL   C346  346   0.839   4.969   4.480 -0.7853 -0.1087 -0.1978
    1MOL   C347  347   0.952   5.018   4.571 -0.2347  0.2710 -0.4564
    1MOL   C348  348   0.882   5.128   4.654 -0.8838 -0.5767  0.3633
    1MOL   C349  349   0.753   5.167   4.573 -0.0611  0.3308 -0.3175
    1MOL   C350  350   0.541   4.971   4.461 -0.3423  0.2841 -1.0081
    1MOL   H351  351   0.573   5.162   4.371 -1.3754  0.1238  0.9433
    1MOL   H352  352   0.821   5.161   4.382  0.3527 -1.3236 -0.9237
    1MOL   H353  353   0.890   4.902   4.410  1.9692  3.0987 -1.4082
    1MOL   H354  354   0.782   4.908   4.550 -1.0598  1.0921  0.6171
    1MOL   H355  355   0.988   4.936   4.633  0.0281  0.3236 -0.5412
    1MOL   H356  356   1.037   5.048   4.511  0.8516 -3.4526 -0.8808
    1MOL   H357  357   0.939   5.220   4.670 -0.1996 -1.0229  0.4799
    1MOL   H358  358   0.859   5.095   4.755 -1.4829 -1.4905 -0.0626
    1MOL   H359  359   0.666   5.134   4.629 -0.5603  1.8386 -0.1826
    1MOL   H360  360   0.756   5.276   4.561 -0.8776  0.8733  3.8762
    1MOL   H361  361   0.574   4.947   4.562 -2.5106  1.8333  0.1089
    1MOL   H362  362   0.545   4.877   4.406 -1.8681  0.4209 -1.3674
    1MOL   C363  363   0.388   5.015   4.472  0.3567 -0.1628 -0.3968
    1MOL   C364  364   0.286   4.904   4.514 -0.3606 -0.6004  0.1574
    1MOL   C365  365   0.281   4.780   4.413 -0.6216 -1.3929  0.1881
    1MOL   C366  366   0.135   4.734   4.394 -0.2041 -0.2306  0.7361
    1MOL   C367  367   0.054   4.800   4.499 -0.3207  0.4189  0.4651
    1MOL   C368  368   0.136   4.934   4.521  0.1275  0.0201 -0.4087
    1MOL   C369  369   0.368   5.143   4.551 -0.5281 -0.0674 -0.0887
    1MOL   H370  370   0.357   5.032   4.369  2.9307 -0.3715 -1.2559
    1MOL   H371  371   0.325   4.853   4.601  1.8353 -0.2867 -0.6234
    1MOL   H372  372   0.320   4.799   4.313  0.0509  2.5013  1.1327
    1MOL   H373  373   0.337   4.694   4.448  0.3703 -0.6206  0.5051
    1MOL   H374  374   0.088   4.778   4.305 -1.7153  0.2371  1.7405
    1MOL   H375  375   0.139   4.627   4.376  4.4066 -0.2376  1.3502
    1MOL   H376  376   7.641   4.821   4.470  0.2643  1.7999 -0.6703
    1MOL   H377  377   0.051   4.739   4.590 -0.7844 -1.4053 -0.7634
    1MOL   H378  378   0.106   4.981   4.615  1.5024  1.8624 -0.8716
    1MOL   H379  379   0.118   4.999   4.435  0.6712  0.5729 -0.1112
    1MOL   H380  380   0.378   5.125   4.658  2.0448 -1.1595 -0.4679
    1MOL   H381  381   0.270   5.183   4.527 -0.8521  0.1424  1.4903
    1MOL   H382  382   0.430   5.228   4.524 -0.3145 -0.1419  0.1664
    2MOL     C1  383   0.273   6.805   1.658  0.3825 -0.1351 -0.0215
    2MOL     C2  384   0.235   6.852   1.522  0.0852  0.1739 -0.3700
    2MOL     C3  385   0.264   6.755   1.399  0.8010  0.0251 -0.7457
    2MOL     C4  386   0.307   6.849   1.281  0.9828 -0.1091 -0.7084
    2MOL     C5  387   0.318   6.995   1.338 -0.0598  0.3484 -0.2267
    2MOL     C6  388   0.322   6.976   1.486  0.2858 -0.2188 -0.0691
    2MOL     C7  389   0.241   6.908   1.760 -0.1787  0.3416  0.4103
    2MOL     H8  390   0.216   6.716   1.682 -2.3221  1.9371  1.4334
    2MOL     H9  391   0.128   6.871   1.524 -0.1814 -1.3585  0.2665
    2MOL    H10  392   0.340   6.679   1.414 -0.3708 -0.6513  1.9701
    2MOL    H11  393   0.169   6.710   1.372 -0.7033  3.7119 -2.0104
    2MOL    H12  394   0.402   6.816   1.240  1.1029  0.1730 -0.6590
    2MOL    H13  395   0.242   6.847   1.193  1.0730  1.5626 -0.8355
    2MOL    H14  396   0.395   7.059   1.296  0.1276 -0.5059 -1.2232
    2MOL    H15  397   0.229   7.056   1.322 -0.4548 -0.3542 -0.7851
    2MOL    H16  398   0.277   7.062   1.535 -1.0138 -0.5912 -0.6116
    2MOL    H17  399   0.426   6.966   1.520 -0.9203 -1.7507  3.4013
    2MOL    H18  400   0.309   6.993   1.761  1.0876 -0.6406 -0.7924
    2MOL    H19  401   0.143   6.950   1.736 -0.7910 -0.6626  1.1128
    2MOL    H20  402   0.377   6.772   1.660  0.7426  1.0473  1.5815
    2MOL    C21  403   0.236   6.854   1.899 -0.6460 -0.1081  0.0079
    2MOL    C22  404   0.372   6.789   1.940  0.0382 -0.5734 -0.0109
    2MOL    C23  405   0.367   6.708   2.067  0.1723  0.4407  0.2013
    2MOL    C24  406   0.507   6.728   2.128 -0.6805  0.3470 -0.3368
    2MOL    C25  407   0.599   6.782   2.025 -0.1374  0.3880 -0.3776
    2MOL    C26  408   0.501   6.874   1.947  0.3546  0.4319 -0.2002
    2MOL    C27  409   0.193   6.965   1.998 -0.2379  0.1871  0.2234
    2MOL    H28  410   0.154   6.782   1.898  0.9140 -1.9321 -2.0260
    2MOL    H29  411   0.394   6.712   1.867  1.0021 -0.6274  0.3385
    2MOL    H30  412   0.340   6.604   2.048 -3.0176  1.2410 -0.0069
    2MOL    H31  413   0.292   6.752   2.133 -0.1960 -1.1666  0.8833
    2MOL    H32  414   0.509   6.785   2.221  1.1569  0.7347 -0.5994
    2MOL    H33  415   0.528   6.629   2.169 -3.1037  0.1857  0.6112
    2MOL    H34  416   0.620   6.699   1.957 -0.9083 -1.3192  1.4014
    2MOL    H35  417   0.692   6.832   2.050 -0.3041  1.1972 -1.3146
    2MOL    H36  418   0.534   6.898   1.846 -0.9407  1.8451 -0.2949
    2MOL    H37  419   0.482   6.960   2.010  0.5437 -0.6658  1.3870
    2MOL    H38  420   0.229   6.945   2.098  2.4483 -0.3912 -0.8044
    2MOL    H39  421   0.250   7.047   1.954  2.3710 -1.8084 -0.2274
    2MOL    C40  422   0.037   7.005   1.987 -0.1081 -0.3843  0.3336
    2MOL    C41  423   7.641   6.950   2.098  1.0248  0.1414  0.5869
    2MOL    C42  424   7.636   6.799   2.108  0.4575  1.1462  0.3233
    2MOL    C43  425   7.496   6.752   2.167  0.3308  0.0117  0.0970
    2MOL    C44  426   7.414   6.883   2.171 -0.1359 -0.7090  0.4937
    2MOL    C45  427   7.491   6.991   2.085 -0.2970 -0.0684 -0.3418
    2MOL    C46  428   0.042   7.158   1.978 -0.2114 -0.3662 -0.3192
    2MOL    H47  429   7.682   6.980   1.891  3.1524 -2.4160 -0.7673
    2MOL    H48  430   7.675   6.995   2.191 -0.4732 -0.0795  1.2634
    2MOL    H49  431   0.023   6.759   2.173 -0.9111  0.2282  1.4058
    2MOL    H50  432   7.642   6.740   2.017 -2.1348 -0.4876  1.1311
    2MOL    H51  433   7.507   6.711   2.267  2.0736 -3.0265 -1.2754
    2MOL    H52  434   7.450   6.668   2.115 -1.3890  0.8798  0.2079
    2MOL    H53  435   7.315   6.867   2.128 -0.2240 -3.0883  1.5157
    2MOL    H54  436   7.404   6.914   2.275  0.1094  1.2875 -0.0565
    2MOL    H55  437   7.454   6.977   1.984  1.9113 -1.2584 -1.0258
    2MOL    H56  438   7.478   7.098   2.103 -1.1667 -0.4690  1.4889
    2MOL    H57  439   7.637   7.205   2.004  0.5011  1.3707 -0.7846
    2MOL    H58  440   0.110   7.209   2.046 -0.1063 -0.0125 -0.6815
    2MOL    C59  441   0.075   7.221   1.834 -0.0817 -0.3100 -0.7647
    2MOL    C60  442   7.637   7.214   1.741  0.5273  0.1862  0.2154
    2MOL    C61  443   7.668   7.230   1.598  0.5370  0.6516  0.6549
    2MOL    C62  444   7.534   7.267   1.524 -0.2053  0.2138  0.3584
    2MOL    C63  445   7.435   7.306   1.635  0.0078 -0.0868  0.3264
    2MOL    C64  446   7.519   7.322   1.762  0.0387 -0.5186  0.4526
    2MOL    C65  447   0.110   7.369   1.851 -0.1561 -0.1512 -0.5991
    2MOL    H66  448   0.157   7.163   1.791  1.3386 -0.2316  1.7440
    2MOL    H67  449   7.598   7.113   1.744  2.6026 -0.7209 -1.6388
    2MOL    H68  450   0.013   7.134   1.561 -2.8423  0.2090 -1.5516
    2MOL    H69  451   0.057   7.304   1.579 -1.1025  1.6534 -2.6624
    2MOL    H70  452   7.503   7.179   1.469 -4.1173  2.2057 -0.7479
    2MOL    H71  453   7.543   7.345   1.449 -2.4273 -0.2344 -0.3887
    2MOL    H72  454   7.364   7.225   1.647  2.0553 -1.8113  1.0146
    2MOL    H73  455   7.368   7.390   1.615 -0.7472 -0.6089  0.6393
    2MOL    H74  456   7.546   7.427   1.764 -1.9232  0.0608 -1.4334
    2MOL    H75  457   7.464   7.284   1.848 -0.5760  0.9298  0.6979
    2MOL    H76  458   0.042   7.398   1.931 -0.4065  1.4948 -1.3725
    2MOL    H77  459   0.105   7.427   1.759  2.3452  1.1922  0.0524
    2MOL    C78  460   0.259   7.396   1.901  0.3233 -0.2066 -0.1550
    2MOL    C79  461   0.364   7.345   1.799  0.1270 -0.6353  0.3659
    2MOL    C80  462   0.510   7.346   1.849  0.3380 -0.3416  0.0896
    2MOL    C81  463   0.595   7.344   1.721 -0.3983 -0.2858 -0.4131
    2MOL    C82  464   0.500   7.391   1.607  0.0973  0.2335  0.0657
    2MOL    C83  465   0.362   7.412   1.657  0.1664  0.7730 -0.5930
    2MOL    C84  466   0.268   7.553   1.942 -0.0946 -0.3549  0.7891
    2MOL    H85  467   0.288   7.336   1.987  1.1493 -0.6092 -0.7103
    2MOL    H86  468   0.344   7.242   1.771 -1.6656  0.0202 -0.8388
    2MOL    H87  469   0.532   7.264   1.917  0.2280 -1.1927 -0.8969
    2MOL    H88  470   0.533   7.443   1.893 -1.4617 -0.2524  0.8512
    2MOL    H89  471   0.645   7.248   1.709  1.2061  0.6524 -1.2956
    2MOL    H90  472   0.675   7.416   1.739 -0.4848 -0.2162 -0.2984
    2MOL    H91  473   0.539   7.473   1.546  2.2585 -0.4795  0.4477
    2MOL    H92  474   0.490   7.308   1.537  1.9676  0.8935 -1.0320
    2MOL    H93  475   0.350   7.519   1.671  2.3537  0.9734  0.0652
    2MOL    H94  476   0.285   7.375   1.591  0.5146 -0.3875 -0.3614
    2MOL    H95  477   0.246   7.617   1.857 -0.7951 -2.1319 -0.3863
    2MOL    H96  478   0.370   7.585   1.963  0.4869 -0.6337 -1.4705
    2MOL    C97  479   0.190   7.588   2.070 -0.0122  0.4354 -0.2025
    2MOL    C98  480   0.166   0.061   2.082  0.0479  0.2321  0.5996
    2MOL    C99  481   0.291   0.141   2.080  0.5478  0.6681  0.3754
    2MOL   C100  482   0.251   0.288   2.048 -0.5908  0.2994 -0.3467
    2MOL   C101  483   0.103   0.282   1.999 -0.0599  0.2510  0.0414
    2MOL   C102  484   0.076   0.127   1.985  0.0143  0.3088  0.6519
    2MOL   C103  485   0.262   7.529   2.196 -0.6473  0.4427  0.3161
    2MOL   H104  486   0.090   7.547   2.079 -0.6710  2.3087  1.3248
    2MOL   H105  487   0.111   0.083   2.174 -0.4333 -0.0788  0.3909
    2MOL   H106  488   0.346   0.137   2.174 -0.2477  3.1705  0.9910
    2MOL   H107  489   0.361   0.109   2.003 -0.4860  0.6472 -0.5655
    2MOL   H108  490   0.319   0.335   1.977  1.4382 -1.3320  0.4556
    2MOL   H109  491   0.248   0.355   2.134 -0.6650  1.8237 -1.5155
    2MOL   H110  492   0.095   0.329   1.901  1.6203 -0.3531 -0.4079
    2MOL   H111  493   0.041   0.327   2.076 -2.4903 -1.6505 -0.7541
    2MOL   H112  494   7.661   0.107   2.009 -0.2773  1.8930  0.7510
    2MOL   H113  495   0.101   0.096   1.884 -0.3032  3.4624 -0.4520
    2MOL   H114  496   0.337   7.466   2.147 -0.9005  2.7064 -3.1023
    2MOL   H115  497   0.318   7.605   2.251  1.2717 -1.4215  1.0060
    2MOL   C116  498   0.186   7.433   2.290 -0.0025  0.0726 -0.4795
    2MOL   C117  499   0.285   7.324   2.349  0.0267 -0.4466  0.0930
    2MOL   C118  500   0.372   7.375   2.464 -0.2163 -0.0361 -1.3360
    2MOL   C119  501   0.429   7.247   2.530 -0.2697 -0.7423  0.3687
    2MOL   C120  502   0.332   7.132   2.486  0.4062  0.2035 -0.7008
    2MOL   C121  503   0.220   7.193   2.401  0.7341  0.4845 -0.5421
    2MOL   C122  504   0.118   7.508   2.404  0.2397  0.6369  0.3455
    2MOL   H123  505   0.106   7.384   2.234 -0.7116 -0.1369  0.7076
    2MOL   H124  506   0.354   7.294   2.270  0.5529 -0.1116  0.4155
    2MOL   H125  507   0.445   7.450   2.432  1.3699 -0.1266  1.9118
    2MOL   H126  508   0.319   7.425   2.545  0.6289  0.9108 -1.3595
    2MOL   H127  509   0.452   7.252   2.637  0.2818 -1.1734  0.2767
    2MOL   H128  510   0.525   7.241   2.478 -0.9974  1.9458 -1.3757
    2MOL   H129  511   0.288   7.086   2.574  0.9566 -0.5222 -0.7951
    2MOL   H130  512   0.387   7.054   2.433  0.0145 -1.3114  1.0849
    2MOL   H131  513   0.190   7.123   2.323 -2.1563 -1.0861  1.8114
    2MOL   H132  514   0.125   7.214   2.451 -0.0655 -0.5528 -1.5885
    2MOL   H133  515   0.193   7.575   2.447  1.0771 -0.4210  0.5656
    2MOL   H134  516   0.095   7.441   2.486 -1.1907  0.2811 -0.3451
    2MOL   C135  517   7.681   7.593   2.376  0.8219  0.0602  0.5911
    2MOL   C136  518   7.665   0.028   2.472  0.1436  0.5382  0.0666
    2MOL   C137  519   0.083   0.138   2.449  1.1551  0.1152 -0.0789
    2MOL   C138  520   0.123   0.186   2.590 -0.1271  0.3980  0.5896
    2MOL   C139  521   0.014   0.129   2.685  0.2083  0.2676  0.1317
    2MOL   C140  522   7.668   7.686   2.625  0.7881  0.5226  0.4116
    2MOL   C141  523   7.562   7.486   2.370  0.9146  0.0920 -0.4316
    2MOL   H142  524   7.682   7.629   2.273  0.7150 -1.5373  0.0251
    2MOL   H143  525   7.570   0.077   2.448  0.0035  1.0011  1.5537
    2MOL   H144  526   0.168   0.104   2.390  0.7449  0.9367 -1.1570
    2MOL   H145  527   0.037   0.217   2.390 -1.6866 -0.0265  1.8142
    2MOL   H146  528   0.116   0.294   2.579 -1.8389  0.1551 -1.1556
    2MOL   H147  529   0.223   0.149   2.609 -0.0688 -0.3973 -1.2020
    2MOL   H148  530   7.618   0.196   2.687  0.6911  0.9026 -0.6392
    2MOL   H149  531   0.048   0.107   2.787  0.6883  1.4245  0.2269
    2MOL   H150  532   0.049   7.611   2.660  1.9549  1.7847  0.7870
    2MOL   H151  533   7.570   7.649   2.657  0.6990 -0.1994 -0.6579
    2MOL   H152  534   7.564   7.439   2.469 -0.0065  1.2769  0.1701
    2MOL   H153  535   7.588   7.398   2.311  0.8236  0.0490 -0.4079
    2MOL   C154  536   7.422   7.542   2.337  0.1589  0.2771 -0.0898
    2MOL   C155  537   7.415   7.615   2.195 -0.1888  0.3778  0.6308
    2MOL   C156  538   7.289   0.015   2.172  0.2619  0.1248  0.1997
    2MOL   C157  539   7.274   0.016   2.019  0.5806 -0.4676 -0.7202
    2MOL   C158  540   7.380   7.617   1.962  0.0754 -0.4027 -0.3847
    2MOL   C159  541   7.418   7.523   2.074  0.2329 -0.1287  0.0297
    2MOL   C160  542   7.316   7.434   2.343 -0.2416  0.5426  0.3249
    2MOL   H161  543   7.397   7.616   2.413  0.5294 -0.0752  0.3798
    2MOL   H162  544   7.496   7.687   2.181  0.3315 -0.5446 -1.1247
    2MOL   H163  545   7.197   7.659   2.209  0.7759  1.9141  3.9051
    2MOL   H164  546   7.304   0.110   2.222 -1.7503 -0.6787  2.4466
    2MOL   H165  547   7.176   7.676   1.983  0.4757 -3.0265  1.4990
    2MOL   H166  548   7.284   0.116   1.979 -0.3278  1.1175  2.8218
    2MOL   H167  549   7.472   7.675   1.958 -0.7847  0.9692 -0.3384
    2MOL   H168  550   7.356   7.571   1.866  0.5294 -0.6779 -0.3718
    2MOL   H169  551   7.516   7.475   2.064  0.1983 -0.1228 -0.3737
    2MOL   H170  552   7.350   7.438   2.066  1.8206 -1.5811  1.4968
    2MOL   H171  553   7.336   7.357   2.270  1.7015  1.0720  0.2664
    2MOL   H172  554   7.224   7.488   2.325 -0.6651 -0.1858  0.3082
    2MOL   C173  555   7.307   7.365   2.482  0.3429 -1.1283 -0.2518
    2MOL   C174  556   7.203   7.245   2.481 -0.0510  0.5901  0.6197
    2MOL   C175  557   7.255   7.116   2.418  0.2441  0.0559  0.3679
    2MOL   C176  558   7.127   7.037   2.382 -0.3158 -0.5288  1.1015
    2MOL   C177  559   7.043   7.149   2.317 -0.0116 -0.5917  0.2411
    2MOL   C178  560   7.068   7.273   2.402  0.2023  0.8727  0.2657
    2MOL   C179  561   7.275   7.464   2.603  0.1651 -0.2528  0.3514
    2MOL   H180  562   7.407   7.324   2.495  1.6888  2.1119  0.1537
    2MOL   H181  563   7.177   7.230   2.586 -3.4458  0.5782 -0.1867
    2MOL   H182  564   7.323   7.071   2.491 -0.8362  0.1068  1.4336
    2MOL   H183  565   7.311   7.144   2.329 -0.7817 -0.8178 -0.5679
    2MOL   H184  566   7.147   6.960   2.307 -1.0395 -0.3697  0.7385
    2MOL   H185  567   7.076   6.987   2.464 -0.1295 -0.8469  1.0255
    2MOL   H186  568   6.935   7.135   2.306 -0.0408  0.9923 -1.6508
    2MOL   H187  569   7.071   7.162   2.213  1.0239  0.6188  0.6594
    2MOL   H188  570   7.067   7.359   2.335 -0.2022  0.8057  0.1883
    2MOL   H189  571   6.986   7.293   2.471 -0.6170  0.1583 -0.4992
    2MOL   H190  572   7.353   7.539   2.591 -0.2227 -0.0312 -0.8542
    2MOL   H191  573   7.178   7.510   2.588 -0.5658 -1.6630  0.6984
    2MOL   C192  574   7.280   7.414   2.741 -0.7249 -0.3415 -0.0245
    2MOL   C193  575   7.221   7.524   2.835  0.7332  0.0559  0.2214
    2MOL   C194  576   7.251   7.526   2.987 -0.6255  0.2549  0.0352
    2MOL   C195  577   7.143   7.609   3.057  0.0152  0.7748  0.0637
    2MOL   C196  578   7.044   7.650   2.948 -0.0237  0.4024  0.2643
    2MOL   C197  579   7.071   7.558   2.825 -0.1346  0.0672  0.2329
    2MOL   C198  580   7.425   7.366   2.784  0.6014 -0.2657 -0.4003
    2MOL   H199  581   7.206   7.334   2.744  0.1794 -1.1718  1.1551
    2MOL   H200  582   7.263   7.616   2.794 -0.8400  0.0444 -1.5010
    2MOL   H201  583   7.349   7.563   3.019  0.0385 -1.7760  0.4250
    2MOL   H202  584   7.247   7.426   3.030  0.2637 -1.4840 -3.7139
    2MOL   H203  585   7.092   7.559   3.139 -0.6388 -1.4576 -1.6601
    2MOL   H204  586   7.182   0.008   3.106 -0.9625  1.4671 -0.3849
    2MOL   H205  587   7.054   0.062   2.910 -0.7157 -0.0192 -1.0721
    2MOL   H206  588   6.943   7.640   2.985 -0.7534  1.6778 -1.3226
    2MOL   H207  589   7.039   7.600   2.730  0.8737  0.3365  0.0080
    2MOL   H208  590   7.010   7.468   2.823 -1.5498  1.0052  0.4247
    2MOL   H209  591   7.464   7.306   2.701 -1.8601 -1.7172 -0.5536
    2MOL   H210  592   7.478   7.461   2.784 -0.3258  0.2506 -0.0663
    2MOL   C211  593   7.436   7.284   2.914  0.3621 -0.0747 -0.4211
    2MOL   C212  594   7.337   7.164   2.926 -0.3059  0.5776  0.1791
    2MOL   C213  595   7.361   7.047   2.818 -0.2745  0.3119 -0.6906
    2MOL   C214  596   7.293   6.923   2.883 -0.3352 -0.2017 -0.1342
    2MOL   C215  597   7.248   6.962   3.026  0.5592 -0.8675 -0.5105
    2MOL   C216  598   7.339   7.086   3.059 -0.1252  0.4315 -0.0775
    2MOL   C217  599   7.591   7.249   2.930 -0.4026  0.8197  0.1314
    2MOL   H218  600   7.430   7.345   3.005 -0.1138  0.3859 -0.7577
    2MOL   H219  601   7.236   7.205   2.916 -0.8338 -0.9539 -1.0398
    2MOL   H220  602   7.312   7.069   2.723  1.9458 -0.7589 -2.1222
    2MOL   H221  603   7.468   7.034   2.803  0.1479  2.9916 -0.3162
    2MOL   H222  604   7.205   6.893   2.825  0.4950 -1.6172 -0.6777
    2MOL   H223  605   7.350   6.830   2.883 -0.8867 -0.5600 -1.2189
    2MOL   H224  606   7.261   6.884   3.101  1.0630  0.4535  0.7993
    2MOL   H225  607   7.144   6.992   3.034  1.0414  1.1580 -1.4563
    2MOL   H226  608   7.308   7.142   3.147  0.2771 -0.5546  0.7026
    2MOL   H227  609   7.442   7.058   3.081 -0.3623  0.6223  1.3175
    2MOL   H228  610   7.620   7.201   2.837 -2.1324  0.3745 -0.1882
    2MOL   H229  611   7.614   7.165   2.996 -1.7336 -0.1840 -0.6552
    2MOL   C230  612   0.008   7.355   2.951  0.6943  0.3702  0.4523
    2MOL   C231  613   0.119   7.351   2.849  1.0965 -0.2526 -0.5693
    2MOL   C232  614   0.205   7.475   2.841 -0.1884  0.1609  0.4932
    2MOL   C233  615   0.349   7.443   2.884  0.0756 -0.1899  0.2573
    2MOL   C234  616   0.339   7.299   2.947 -0.2607 -0.3754 -0.0288
    2MOL   C235  617   0.220   7.231   2.876  0.1849  0.4680  0.1627
    2MOL   C236  618   0.049   7.361   3.103  0.5140  0.3919 -0.2169
    2MOL   H237  619   7.636   7.443   2.934  2.3482  1.7955  1.6515
    2MOL   H238  620   0.076   7.330   2.751 -0.8957 -1.1281  0.4568
    2MOL   H239  621   0.201   7.514   2.740 -1.5245 -0.2668  0.3623
    2MOL   H240  622   0.166   7.560   2.896  0.3578  0.3231  0.6288
    2MOL   H241  623   0.417   7.437   2.799 -1.4452  0.6662 -1.0603
    2MOL   H242  624   0.392   7.509   2.959 -1.7834  0.0015  1.1818
    2MOL   H243  625   0.321   7.300   3.055 -0.0539 -0.1739  0.0050
    2MOL   H244  626   0.432   7.247   2.926  0.2073 -0.6348  2.5273
    2MOL   H245  627   0.184   7.140   2.923 -0.7414 -0.6522 -2.6364
    2MOL   H246  628   0.250   7.195   2.778  1.2922  1.1342  0.2532
    2MOL   H247  629   0.144   7.414   3.120  0.6146 -0.0467  0.6152
    2MOL   H248  630   0.078   7.257   3.118  1.4321  0.5698 -0.7062
    2MOL   C249  631   7.639   7.420   3.208 -0.0634 -0.2877  0.8179
    2MOL   C250  632   7.616   7.570   3.184  0.7727 -0.6127 -0.3909
    2MOL   C251  633   0.039   7.668   3.188  0.1242 -0.7760 -0.1145
    2MOL   C252  634   7.662   0.118   3.168 -0.2638 -0.2505 -0.1430
    2MOL   C253  635   7.527   0.107   3.245  0.4375 -0.2434  0.1682
    2MOL   C254  636   7.496   7.645   3.256 -0.9825  0.0547  0.3008
    2MOL   C255  637   7.689   7.394   3.353 -0.0990  0.3158  0.0074
    2MOL   H256  638   7.546   7.368   3.184  0.8631 -0.5906 -2.4344
    2MOL   H257  639   7.578   7.587   3.083  2.7957 -0.0578 -1.0783
    2MOL   H258  640   0.101   7.655   3.100 -0.5512 -0.6875 -0.6141
    2MOL   H259  641   0.102   7.663   3.277 -1.8813 -1.7468  1.3134
    2MOL   H260  642   7.640   0.128   3.062 -2.9363  0.5577  0.4400
    2MOL   H261  643   0.029   0.201   3.211 -2.3828  0.8379  0.6069
    2MOL   H262  644   7.446   0.163   3.198  0.7083  0.4480  0.5002
    2MOL   H263  645   7.529   0.142   3.348 -2.0974 -1.2192  0.5677
    2MOL   H264  646   7.394   7.632   3.220 -1.1734  2.6986 -0.1947
    2MOL   H265  647   7.492   7.622   3.362 -1.2685 -1.3250 -0.0060
    2MOL   H266  648   0.096   7.444   3.351 -0.0423  0.2731  1.6285
    2MOL   H267  649   7.621   7.446   3.419 -0.4639  1.2346 -1.0804
    2MOL   C268  650   0.012   7.242   3.399  0.4045 -0.5490  0.2815
    2MOL   C269  651   7.570   7.203   3.477  0.7400  0.7003 -0.4443
    2MOL   C270  652   7.556   7.054   3.524 -0.4546  0.3471 -0.2451
    2MOL   C271  653   7.408   7.032   3.544 -0.0256 -0.6133  0.1423
    2MOL   C272  654   7.336   7.142   3.462 -0.4459 -1.1117  1.1150
    2MOL   C273  655   7.446   7.220   3.393 -0.6671 -0.5785  0.1585
    2MOL   C274  656   0.134   7.217   3.493 -0.3270  0.3522 -0.3422
    2MOL   H275  657   0.025   7.170   3.318  4.2856 -0.2009  0.5149
    2MOL   H276  658   7.563   7.281   3.554  1.9879  0.2262  0.1747
    2MOL   H277  659   7.582   6.994   3.437 -0.1153 -1.1667  0.8730
    2MOL   H278  660   7.625   7.032   3.606  0.6608 -0.7481 -1.4744
    2MOL   H279  661   7.365   6.934   3.526 -0.2272 -0.3764 -0.6912
    2MOL   H280  662   7.388   7.053   3.649 -1.0320 -2.9671  0.4469
    2MOL   H281  663   7.271   7.201   3.527  0.2691  0.4668  0.4243
    2MOL   H282  664   7.265   7.104   3.388  0.4272 -1.3298  0.3771
    2MOL   H283  665   7.418   7.324   3.378 -2.3036 -0.6904  2.2212
    2MOL   H284  666   7.459   7.168   3.298 -2.6951  1.5155 -1.3222
    2MOL   H285  667   0.103   7.228   3.597 -0.6664  0.9882 -0.5127
    2MOL   H286  668   0.188   7.312   3.497 -1.1125  0.9149 -2.8068
    2MOL   C287  669   0.225   7.097   3.462 -0.4184 -0.6846 -0.2960
    2MOL   C288  670   0.312   7.141   3.342 -0.3324 -0.0665 -0.0149
    2MOL   C289  671   0.415   7.256   3.359  0.6047  0.6756 -0.5367
    2MOL   C290  672   0.550   7.195   3.328  0.0419  0.3334 -0.0502
    2MOL   C291  673   0.519   7.082   3.226 -0.0956 -0.1513 -0.3176
    2MOL   C292  674   0.380   7.027   3.268 -0.0755 -0.4093 -0.1348
    2MOL   C293  675   0.319   7.058   3.578  0.5098  0.4928  0.3568
    2MOL   H294  676   0.169   7.014   3.419 -2.1128  0.3965 -0.2480
    2MOL   H295  677   0.255   7.196   3.267  0.1202  2.5878  1.5280
    2MOL   H296  678   0.388   7.330   3.282 -4.4333 -0.1229  0.3038
    2MOL   H297  679   0.406   7.318   3.448  1.7042  2.2736 -1.4881
    2MOL   H298  680   0.608   7.268   3.272 -0.4412  0.1901 -0.7462
    2MOL   H299  681   0.601   7.158   3.416 -1.2136  3.2561  2.0128
    2MOL   H300  682   0.588   6.999   3.238 -0.7849 -0.4835  1.4960
    2MOL   H301  683   0.516   7.115   3.122 -0.8211  1.8029  0.2783
    2MOL   H302  684   0.383   6.935   3.326  0.3679  0.6130  1.4907
    2MOL   H303  685   0.319   7.000   3.181 -0.1828  1.4091 -0.6408
    2MOL   H304  686   0.363   7.152   3.611  2.9859  0.1065 -1.6889
    2MOL   H305  687   0.402   7.004   3.534  0.1553 -0.3135  0.6647
    2MOL   C306  688   0.253   6.984   3.689  0.6551  0.1666 -0.4175
    2MOL   C307  689   0.237   6.839   3.645 -0.1220  0.0764 -0.4800
    2MOL   C308  690   0.363   6.752   3.649  0.7311 -0.3062  0.1577
    2MOL   C309  691   0.299   6.608   3.659  0.4238  0.5396 -0.0092
    2MOL   C310  692   0.155   6.620   3.713 -0.3374  0.2694  0.0352
    2MOL   C311  693   0.130   6.767   3.726 -0.2166 -0.4709 -0.1855
    2MOL   C312  694   0.337   6.996   3.823  0.3004  0.5217  0.5206
    2MOL   H313  695   0.154   7.021   3.714  0.4926 -0.5730  0.0332
    2MOL   H314  696   0.204   6.837   3.541 -0.2647  2.3562 -0.4865
    2MOL   H315  697   0.420   6.753   3.741  0.4057 -3.2615  0.4607
    2MOL   H316  698   0.418   6.768   3.557  0.9387 -0.7653  0.1973
    2MOL   H317  699   0.298   6.558   3.562  1.0287 -0.2733  0.4050
    2MOL   H318  700   0.371   6.551   3.718  0.4626  0.6108  0.0103
    2MOL   H319  701   0.153   6.571   3.810  0.0738 -0.9643 -0.5597
    2MOL   H320  702   0.088   6.575   3.640 -0.5146  0.7690 -0.1126
    2MOL   H321  703   0.031   6.794   3.690 -1.9005 -3.9132  1.5718
    2MOL   H322  704   0.127   6.800   3.830 -3.1870  2.3321 -1.0582
    2MOL   H323  705   0.434   6.951   3.801 -0.5657 -0.8883 -0.4711
    2MOL   H324  706   0.293   6.933   3.900  2.0600 -0.7955  0.4798
    2MOL   C325  707   0.360   7.139   3.882 -0.1012 -0.2123 -0.3492
    2MOL   C326  708   0.508   7.180   3.899  0.5332 -0.0906 -0.3414
    2MOL   C327  709   0.596   7.092   3.998  0.3909 -0.9660  0.5433
    2MOL   C328  710   0.707   7.191   4.054 -0.0682  0.5485  0.4438
    2MOL   C329  711   0.627   7.325   4.062  0.3485  0.2344  0.6199
    2MOL   C330  712   0.527   7.330   3.938 -0.0614  0.2375 -0.3091
    2MOL   C331  713   0.279   7.152   4.015  0.3844 -0.3334 -0.7181
    2MOL   H332  714   0.316   7.207   3.809 -2.0128  0.1618  1.1135
    2MOL   H333  715   0.552   7.155   3.802  0.2234  1.1128 -0.7981
    2MOL   H334  716   0.653   7.013   3.950  1.3559  0.5283 -0.7979
    2MOL   H335  717   0.525   7.055   4.072 -0.4100  0.5780  0.5614
    2MOL   H336  718   0.799   7.191   3.996  0.5304  2.5180  1.3467
    2MOL   H337  719   0.743   7.152   4.150  0.0821 -0.6322 -0.0837
    2MOL   H338  720   0.682   7.417   4.082 -1.1611  1.4168 -0.5362
    2MOL   H339  721   0.560   7.312   4.146  1.3345 -2.1453  1.0669
    2MOL   H340  722   0.568   7.388   3.855  0.0297  0.0353 -0.4031
    2MOL   H341  723   0.442   7.393   3.964 -0.7138 -0.1285 -1.4985
    2MOL   H342  724   0.327   7.220   4.085 -0.6440 -0.6828  0.3374
    2MOL   H343  725   0.286   7.063   4.078  1.4697  2.1768  2.9042
    2MOL   C344  726   0.133   7.197   3.997 -0.3947  0.4151  0.0614
    2MOL   C345  727   0.137   7.350   3.987  0.3036  0.5052  0.3650
    2MOL   C346  728   0.180   7.432   4.111  0.1516  0.7814 -0.0208
    2MOL   C347  729   0.121   7.574   4.099 -0.2325  0.0219  0.1598
    2MOL   C348  730   0.015   7.566   3.988 -0.4976  0.2193 -0.8582
    2MOL   C349  731   0.000   7.411   3.957 -0.3828 -0.0942 -0.0166
    2MOL   C350  732   0.048   7.132   4.102 -0.0375  0.6227 -0.3546
    2MOL   H351  733   0.098   7.168   3.898 -2.1483 -0.0175  0.7937
    2MOL   H352  734   0.211   7.379   3.913 -1.2458  1.0473 -1.0031
    2MOL   H353  735   0.282   7.419   4.148  0.5986  2.2485 -0.7269
    2MOL   H354  736   0.119   7.389   4.190  1.2049  0.2504  0.5256
    2MOL   H355  737   0.062   7.615   4.181 -0.0763 -0.5378  0.5537
    2MOL   H356  738   0.200   7.645   4.074 -1.1678  1.5570  1.4257
    2MOL   H357  739   0.060   7.619   3.904  1.9031 -0.7662 -0.2296
    2MOL   H358  740   7.608   7.610   4.012  0.2051  1.3908 -0.1815
    2MOL   H359  741   7.612   7.375   4.025 -1.2217 -1.5320 -1.7164
    2MOL   H360  742   7.641   7.384   3.864 -0.9187 -2.0430  0.7882
    2MOL   H361  743   7.641   7.183   4.109 -1.1281 -1.0418 -2.5000
    2MOL   H362  744   0.094   7.131   4.200  0.0767 -3.8867 -0.3421
    2MOL   C363  745   0.020   6.985   4.068  0.1300 -0.4930 -0.0193
    2MOL   C364  746   0.006   6.895   4.183 -0.4742  0.1892 -0.2130
    2MOL   C365  747   7.689   6.745   4.150  0.1138  0.0325  0.4402
    2MOL   C366  748   7.624   6.674   4.264 -0.1662  0.0670  0.2567
    2MOL   C367  749   7.556   6.786   4.342  0.7678 -0.0992 -0.6689
    2MOL   C368  750   7.591   6.919   4.284  0.6531  0.6209 -0.2982
    2MOL   C369  751   7.588   6.972   3.972 -0.3151  0.3449  0.6477
    2MOL   H370  752   0.100   6.950   4.003 -1.1329  1.0488 -2.4643
    2MOL   H371  753   0.095   6.907   4.245 -0.2933  2.2215 -0.8263
    2MOL   H372  754   7.639   6.720   4.057  1.2695  0.7167 -0.3855
    2MOL   H373  755   0.099   6.702   4.139  0.4871  1.3495 -1.4161
    2MOL   H374  756   7.558   6.593   4.234 -0.8696  0.1366  1.5964
    2MOL   H375  757   0.018   6.642   4.326  0.7176  2.3654  0.2866
    2MOL   H376  758   7.449   6.771   4.346  0.6699  0.8200  0.3099
    2MOL   H377  759   7.593   6.784   4.445 -3.9776  0.1612  1.1280
    2MOL   H378  760   7.630   6.989   4.358  0.0148  0.9009 -0.2215
    2MOL   H379  761   7.499   6.958   4.241 -0.6061 -1.2833  0.6241
    2MOL   H380  762   7.570   6.875   3.926  6.5588  0.0746 -2.0773
    2MOL   H381  763   7.600   7.033   3.882  0.7004 -1.3377 -0.3893
    2MOL   H382  764   7.494   7.003   4.019 -1.6097 -0.5235 -1.2970
    3MOL     C1  765   7.156   6.746   5.034  1.1471  0.5381  0.2954
    3MOL     C2  766   7.147   6.877   5.112 -0.0705 -0.6350  0.0234
    3MOL     C3  767   7.190   6.871   5.258  0.4070 -0.1584  0.4532
    3MOL     C4  768   7.064   6.888   5.354  0.1282  0.1609  0.3253
    3MOL     C5  769   6.974   6.975   5.268 -0.3203 -0.5574  0.1700
    3MOL     C6  770   7.003   6.926   5.117  0.2663  0.0111 -0.3604
    3MOL     C7  771   7.122   6.758   4.883  0.5447 -0.4946  0.1749
    3MOL     H8  772   7.253   6.697   5.042 -0.1877 -1.8715  2.2877
    3MOL     H9  773   7.197   6.962   5.066  0.8273 -1.5352 -0.6928
    3MOL    H10  774   7.246   6.780   5.280  0.9917  0.2292  0.5735
    3MOL    H11  775   7.255   6.955   5.283 -0.5861  1.1266 -1.1943
    3MOL    H12  776   7.017   6.791   5.371  1.8431 -0.5950  0.8830
    3MOL    H13  777   7.086   6.941   5.447 -1.9614  2.1190 -0.2555
    3MOL    H14  778   6.868   6.963   5.292 -0.8810  0.6654 -1.6145
    3MOL    H15  779   6.989   7.082   5.283 -1.3403 -0.2912 -0.6269
    3MOL    H16  780   6.983   7.002   5.042  0.0773 -1.6508 -2.0402
    3MOL    H17  781   6.935   6.842   5.100  0.9385 -1.0347  1.9135
    3MOL    H18  782   7.057   6.845   4.873  1.1433 -0.1531 -0.8315
    3MOL    H19  783   7.216   6.787   4.836  0.6697 -2.1243 -0.6097
    3MOL    H20  784   7.089   6.673   5.078  0.9341  0.2972 -0.4285
    3MOL    C21  785   7.092   6.620   4.815  0.5352  0.0592  0.0766
    3MOL    C22  786   7.014   6.633   4.685 -0.9168  0.0670 -0.4140
    3MOL    C23  787   7.090   6.714   4.578 -0.1496  0.9784 -0.6746
    3MOL    C24  788   6.988   6.763   4.481 -0.2198 -0.2703 -0.3469
    3MOL    C25  789   6.853   6.728   4.547  0.3674 -0.5114 -0.1029
    3MOL    C26  790   6.873   6.695   4.694  0.2799  0.1813  0.0543
    3MOL    C27  791   7.220   6.534   4.799  0.0226 -0.1173 -0.0346
    3MOL    H28  792   7.021   6.572   4.882 -0.2293  1.6915  0.4641
    3MOL    H29  793   6.995   6.533   4.644 -0.0657 -0.9708  1.6220
    3MOL    H30  794   7.174   6.660   4.534  0.4472  1.6159 -0.3383
    3MOL    H31  795   7.132   6.806   4.620  0.1415 -0.5351  2.4110
    3MOL    H32  796   6.999   6.867   4.450  0.0957 -0.9669 -2.6576
    3MOL    H33  797   6.986   6.705   4.389 -1.3574 -0.8612  0.0420
    3MOL    H34  798   6.815   6.637   4.501  1.1635  0.1867 -2.1920
    3MOL    H35  799   6.783   6.810   4.529 -0.7247 -1.2809  0.6022
    3MOL    H36  800   6.793   6.636   4.738 -0.1601  0.6628 -0.1017
    3MOL    H37  801   6.879   6.786   4.754 -0.4302  0.6274 -0.5284
    3MOL    H38  802   7.280   6.551   4.709 -1.3680  2.0451 -0.5889
    3MOL    H39  803   7.291   6.552   4.879 -0.8656 -1.9485  1.1919
    3MOL    C40  804   7.199   6.379   4.800  0.6256  0.4923  0.6488
    3MOL    C41  805   7.311   6.305   4.725  0.2817  0.2143 -0.0511
    3MOL    C42  806   7.455   6.342   4.769  0.3794 -0.0013 -0.2689
    3MOL    C43  807   7.535   6.380   4.645  0.1442  0.0429  0.2918
    3MOL    C44  808   7.460   6.314   4.532  0.0445  0.7621  0.0313
    3MOL    C45  809   7.316   6.318   4.571 -0.4919  0.0268 -0.4304
    3MOL    C46  810   7.166   6.334   4.939  0.7637  0.1062 -0.0005
    3MOL    H47  811   7.106   6.379   4.743  0.6500 -1.1198  0.5857
    3MOL    H48  812   7.292   6.199   4.741 -2.5850  0.4584 -1.4647
    3MOL    H49  813   7.499   6.253   4.814 -0.3233 -1.0160 -1.5512
    3MOL    H50  814   7.461   6.417   4.848 -2.5200  0.3634 -0.3434
    3MOL    H51  815   7.640   6.354   4.650 -0.0473 -0.5945  1.1583
    3MOL    H52  816   7.533   6.489   4.654  0.0633  0.1705 -1.2282
    3MOL    H53  817   7.494   6.357   4.438  3.0167 -1.7098 -0.0826
    3MOL    H54  818   7.506   6.216   4.533 -0.0149  0.7414  1.4968
    3MOL    H55  819   7.278   6.417   4.547  0.5025  0.3964 -0.5160
    3MOL    H56  820   7.267   6.243   4.509  0.1631 -1.0431  0.3213
    3MOL    H57  821   7.264   6.330   4.988  1.9162  1.6220 -2.1244
    3MOL    H58  822   7.112   6.411   4.994 -0.0354 -2.4852  2.9990
    3MOL    C59  823   7.113   6.191   4.954 -0.6910  0.0235 -0.4273
    3MOL    C60  824   7.161   6.120   5.084  0.1327  0.4173  0.1914
    3MOL    C61  825   7.119   6.192   5.210  0.3977  0.4853  0.5717
    3MOL    C62  826   7.238   6.163   5.306  0.2443  0.2308  0.0402
    3MOL    C63  827   7.366   6.136   5.226 -0.6150 -0.3482 -0.7687
    3MOL    C64  828   7.311   6.083   5.091 -0.1584  0.2671 -0.2303
    3MOL    C65  829   6.957   6.192   4.946 -0.0635  0.0891  0.2622
    3MOL    H66  830   7.147   6.126   4.874  1.8724 -0.8893  1.3343
    3MOL    H67  831   7.111   6.024   5.087 -0.5627  0.7672 -0.2194
    3MOL    H68  832   7.027   6.146   5.245  0.1581 -0.6169 -1.4495
    3MOL    H69  833   7.095   6.297   5.194  0.3399  0.3796 -0.0352
    3MOL    H70  834   7.217   6.076   5.368 -0.1909 -1.1227 -1.9760
    3MOL    H71  835   7.257   6.246   5.375  0.1502  1.2505 -1.1285
    3MOL    H72  836   7.440   6.065   5.262 -1.3738 -0.5897  0.3075
    3MOL    H73  837   7.432   6.222   5.212 -1.2532 -0.0922 -2.3953
    3MOL    H74  838   7.370   6.133   5.014 -1.6915  0.6740 -1.1610
    3MOL    H75  839   7.339   5.979   5.079 -0.4612  0.0486  0.8907
    3MOL    H76  840   6.929   6.286   4.898  0.0247 -0.5223 -1.0036
    3MOL    H77  841   6.916   6.193   5.047 -2.2726 -0.3581 -0.6009
    3MOL    C78  842   6.895   6.077   4.864 -0.0024 -0.1497 -0.2007
    3MOL    C79  843   6.761   6.012   4.906 -0.0913  0.1960 -0.8217
    3MOL    C80  844   6.649   6.121   4.927  0.1701 -0.3969 -0.3005
    3MOL    C81  845   6.564   6.074   5.048  0.2835  0.0343 -0.0122
    3MOL    C82  846   6.619   5.934   5.100 -0.1100 -0.1633  0.3509
    3MOL    C83  847   6.761   5.936   5.041  0.2330 -0.2967 -0.1954
    3MOL    C84  848   6.899   6.125   4.712 -0.0456 -0.1556 -0.3369
    3MOL    H85  849   6.974   6.003   4.877  0.1126  0.2853  1.7048
    3MOL    H86  850   6.727   5.941   4.831  0.9110 -2.5203  1.1924
    3MOL    H87  851   6.586   6.143   4.840  0.1030  1.6961  0.2486
    3MOL    H88  852   6.695   6.217   4.950 -1.1233  0.3528 -0.7711
    3MOL    H89  853   6.460   6.069   5.018  0.7774 -1.5171 -1.5761
    3MOL    H90  854   6.576   6.142   5.133  1.0105 -0.1086  0.0079
    3MOL    H91  855   6.603   5.907   5.205 -3.6269  3.3573  0.8253
    3MOL    H92  856   6.562   5.850   5.062  0.7441 -1.6421  2.2081
    3MOL    H93  857   6.817   5.994   5.115 -0.0397  1.7887 -1.5789
    3MOL    H94  858   6.796   5.833   5.029 -1.5613 -0.8874 -0.4639
    3MOL    H95  859   6.997   6.165   4.687  0.8748 -2.1553  0.0044
    3MOL    H96  860   6.825   6.204   4.700  0.0074 -0.0545  0.0099
    3MOL    C97  861   6.859   6.020   4.603  0.5038 -0.9264  0.5291
    3MOL    C98  862   6.970   5.907   4.591  0.5831 -0.3163  0.3491
    3MOL    C99  863   6.946   5.780   4.512 -0.4636 -0.4562  0.0846
    3MOL   C100  864   7.078   5.727   4.466  0.0185  0.1494 -0.3866
    3MOL   C101  865   7.179   5.812   4.544 -0.3041 -0.6137 -0.3904
    3MOL   C102  866   7.118   5.943   4.561  0.1081 -0.1896  0.5538
    3MOL   C103  867   6.837   6.091   4.464  0.2755 -0.0825 -0.0771
    3MOL   H104  868   6.762   5.980   4.634 -0.2401  0.9192  0.6091
    3MOL   H105  869   6.981   5.868   4.692 -0.1296 -0.3689  0.4063
    3MOL   H106  870   6.895   5.707   4.575  0.2349  0.0935  1.3027
    3MOL   H107  871   6.884   5.787   4.422  1.0262  0.2335 -0.8916
    3MOL   H108  872   7.086   5.742   4.358  0.8590 -0.8736 -0.4715
    3MOL   H109  873   7.088   5.622   4.492  1.0833 -0.1702 -2.0366
    3MOL   H110  874   7.282   5.811   4.508 -0.5350  2.2359 -1.2711
    3MOL   H111  875   7.174   5.759   4.639  1.3578 -1.5347 -0.7966
    3MOL   H112  876   7.160   6.018   4.629 -1.9632  0.4395  1.1667
    3MOL   H113  877   7.121   5.990   4.462  3.5353 -1.0080  0.2186
    3MOL   H114  878   6.911   6.168   4.443 -1.3749  1.1731 -1.5283
    3MOL   H115  879   6.859   6.012   4.392  2.1474  0.8425 -0.5397
    3MOL   C116  880   6.700   6.155   4.455  0.4943  0.1176 -0.0295
    3MOL   C117  881   6.708   6.272   4.363 -0.1878 -0.0703  0.3880
    3MOL   C118  882   6.782   6.396   4.411 -0.6641 -0.5936  0.9937
    3MOL   C119  883   6.828   6.467   4.284  0.7711  0.0774 -0.1166
    3MOL   C120  884   6.777   6.386   4.165  0.5261  0.0536  0.1668
    3MOL   C121  885   6.745   6.247   4.219 -0.0769  0.6587  0.2273
    3MOL   C122  886   6.588   6.039   4.431  0.4167  0.0305 -0.3024
    3MOL   H123  887   6.673   6.197   4.552 -1.1500 -2.4650  0.6781
    3MOL   H124  888   6.605   6.307   4.351 -0.4060 -0.6408  0.5916
    3MOL   H125  889   6.705   6.458   4.458 -0.8308 -0.0361 -0.0070
    3MOL   H126  890   6.858   6.393   4.489 -0.8793  3.7825  1.4743
    3MOL   H127  891   6.937   6.463   4.279  0.6819 -2.5500 -0.6992
    3MOL   H128  892   6.795   6.571   4.279 -2.9611 -1.0682 -0.8181
    3MOL   H129  893   6.847   6.375   4.082 -0.7732  2.0921 -1.2636
    3MOL   H130  894   6.694   6.443   4.121  1.1577  0.8016 -0.0616
    3MOL   H131  895   6.651   6.214   4.175  1.1061 -1.1695 -0.9591
    3MOL   H132  896   6.818   6.172   4.190  2.0161  2.4479  0.7096
    3MOL   H133  897   6.635   5.941   4.439  1.4411  0.3991 -1.5126
    3MOL   H134  898   6.555   6.040   4.327 -1.3972  1.0117  0.2765
    3MOL   C135  899   6.466   6.031   4.529  0.1485 -0.3456  0.7026
    3MOL   C136  900   6.410   5.889   4.540  1.1854 -0.2303  0.4004
    3MOL   C137  901   6.498   5.794   4.619  0.1108  0.6380  0.4547
    3MOL   C138  902   6.455   5.651   4.574  0.2915  0.5012 -0.0311
    3MOL   C139  903   6.407   5.664   4.424 -0.0080 -0.1341 -1.0913
    3MOL   C140  904   6.389   5.817   4.400  0.5260 -0.7277 -0.0183
    3MOL   C141  905   6.364   6.144   4.493 -0.3337 -0.3770 -0.4984
    3MOL   H142  906   6.490   6.055   4.633  0.9790 -2.6166  1.0747
    3MOL   H143  907   6.309   5.901   4.579  1.0036 -1.6622  0.4041
    3MOL   H144  908   6.602   5.808   4.589  0.5268 -1.8856  0.6047
    3MOL   H145  909   6.509   5.803   4.727  1.8701 -1.4504  0.4736
    3MOL   H146  910   6.374   5.616   4.638  3.0606 -1.9088  2.3602
    3MOL   H147  911   6.540   5.582   4.579 -0.7126 -0.8053 -0.6064
    3MOL   H148  912   6.319   5.601   4.411  0.1359 -0.5280 -0.1644
    3MOL   H149  913   6.476   5.618   4.353 -0.4647 -0.3896 -1.3705
    3MOL   H150  914   6.455   5.859   4.324  1.2645  1.3865  1.7433
    3MOL   H151  915   6.286   5.826   4.367  0.2357  1.1058  1.3014
    3MOL   H152  916   6.280   6.111   4.431  0.7606  0.0735 -2.2333
    3MOL   H153  917   6.415   6.210   4.423 -1.7786  0.3032 -0.9405
    3MOL   C154  918   6.292   6.217   4.610 -0.6249  0.1738 -1.3407
    3MOL   C155  919   6.384   6.330   4.665  0.2524  0.4064 -0.1494
    3MOL   C156  920   6.349   6.399   4.799 -0.4037 -0.1983  0.1439
    3MOL   C157  921   6.447   6.519   4.798  0.0243 -0.3182  0.0030
    3MOL   C158  922   6.475   6.556   4.658 -0.5683  0.1164  0.4152
    3MOL   C159  923   6.400   6.455   4.581  0.0512  0.2517  0.5825
    3MOL   C160  924   6.147   6.263   4.561 -0.3311  0.4253  0.2796
    3MOL   H161  925   6.277   6.161   4.702  2.3876  0.2742 -0.7347
    3MOL   H162  926   6.482   6.284   4.675  0.3690  0.8268  0.7292
    3MOL   H163  927   6.245   6.429   4.797 -0.2604  0.8099  3.4705
    3MOL   H164  928   6.354   6.331   4.884 -0.2025  0.8038  0.9490
    3MOL   H165  929   6.408   6.606   4.852 -1.6920 -0.5140 -0.8951
    3MOL   H166  930   6.539   6.488   4.848 -1.1506 -2.6950  0.7670
    3MOL   H167  931   6.579   6.570   4.627 -0.6819 -0.7567 -0.3653
    3MOL   H168  932   6.437   6.658   4.648  0.6908  0.4614 -0.9423
    3MOL   H169  933   6.458   6.441   4.490 -1.0476 -1.9084  0.1832
    3MOL   H170  934   6.306   6.504   4.558  0.6112 -0.6059 -3.9668
    3MOL   H171  935   6.139   6.302   4.460 -2.8056 -2.4660 -0.7209
    3MOL   H172  936   6.109   6.351   4.615 -1.2314  0.0495  0.2697
    3MOL   C173  937   6.041   6.153   4.577  0.7195  0.0457 -0.1074
    3MOL   C174  938   5.955   6.150   4.454  0.6062  0.3829 -0.0155
    3MOL   C175  939   5.827   6.061   4.458 -0.0266  0.0847  1.1510
    3MOL   C176  940   5.797   6.020   4.310 -0.4441  0.8724  0.8214
    3MOL   C177  941   5.927   6.037   4.246  0.0789 -0.2798  0.2768
    3MOL   C178  942   6.038   6.083   4.339 -1.0538  0.2272 -0.0278
    3MOL   C179  943   5.967   6.177   4.707  0.1289 -0.3637 -0.2732
    3MOL   H180  944   6.099   6.061   4.588 -0.1981 -0.1638  3.8171
    3MOL   H181  945   5.935   6.252   4.424  0.4298  0.5978  0.8134
    3MOL   H182  946   5.741   6.113   4.500 -0.7934 -0.0961 -0.1476
    3MOL   H183  947   5.844   5.969   4.514 -0.3664  1.0999  2.9557
    3MOL   H184  948   5.752   5.921   4.311 -2.2767  1.6707  3.1932
    3MOL   H185  949   5.739   6.101   4.266 -0.6192  0.0146 -0.5589
    3MOL   H186  950   5.910   6.108   4.165  1.9035 -1.3108 -1.0730
    3MOL   H187  951   5.955   5.943   4.197  0.5398 -0.5089  0.9589
    3MOL   H188  952   6.095   5.995   4.367 -2.2795 -0.9093 -1.0100
    3MOL   H189  953   6.099   6.159   4.291 -1.7074  0.5282 -0.3920
    3MOL   H190  954   6.015   6.256   4.766  2.7128 -2.5627  0.6897
    3MOL   H191  955   5.869   6.209   4.672  0.5041 -0.0711 -1.0573
    3MOL   C192  956   5.930   6.062   4.806 -0.5227  0.0105  0.1013
    3MOL   C193  957   5.822   6.094   4.913 -0.5225 -0.2798  0.1815
    3MOL   C194  958   5.689   6.125   4.850  0.0432 -0.3256  0.0410
    3MOL   C195  959   5.656   6.283   4.859  0.5298 -0.1393  0.3100
    3MOL   C196  960   5.782   6.336   4.928 -0.0341  0.2242 -0.3158
    3MOL   C197  961   5.853   6.220   4.993 -0.1905  0.2072  0.0826
    3MOL   C198  962   6.062   6.008   4.871 -0.3199  0.2653 -0.3265
    3MOL   H199  963   5.899   5.982   4.739 -2.5580  1.0512 -0.2452
    3MOL   H200  964   5.816   6.009   4.982  1.2775 -0.0991  0.6030
    3MOL   H201  965   5.603   6.067   4.880  0.0072  0.2459  1.0752
    3MOL   H202  966   5.693   6.088   4.748 -0.9937 -1.7194  0.4989
    3MOL   H203  967   5.630   6.331   4.764  2.5118  0.8526  0.2398
    3MOL   H204  968   5.576   6.298   4.932  0.0688  0.2648 -0.2650
    3MOL   H205  969   5.758   6.407   5.006 -1.5547 -1.2114  0.5651
    3MOL   H206  970   5.856   6.371   4.856 -0.9981 -0.4352 -1.6551
    3MOL   H207  971   5.798   6.202   5.085 -1.2647 -0.4865 -0.6753
    3MOL   H208  972   5.957   6.246   5.012  0.4764 -0.9340 -1.8375
    3MOL   H209  973   6.147   6.012   4.803 -0.9911 -1.2179 -1.2843
    3MOL   H210  974   6.092   6.087   4.941  4.5397 -1.0701 -0.6881
    3MOL   C211  975   6.055   5.863   4.938 -0.4141  0.7933  0.1152
    3MOL   C212  976   6.113   5.761   4.839 -0.3931  0.1462 -0.1469
    3MOL   C213  977   6.123   5.613   4.890  0.4402  0.0059 -0.3536
    3MOL   C214  978   6.118   5.527   4.766  0.3379  0.3789  0.2255
    3MOL   C215  979   6.082   5.621   4.653 -0.2051  0.0774  0.5155
    3MOL   C216  980   6.034   5.747   4.714  0.2847  0.4084  0.2493
    3MOL   C217  981   6.142   5.878   5.065  0.2472  0.3090 -0.4364
    3MOL   H218  982   5.951   5.837   4.955 -0.5328  0.0042 -1.6950
    3MOL   H219  983   6.217   5.793   4.826  0.4452 -1.1949  2.7759
    3MOL   H220  984   6.211   5.590   4.951 -0.0387  1.2348  0.8267
    3MOL   H221  985   6.039   5.583   4.953 -1.7284  2.1496 -2.1565
    3MOL   H222  986   6.210   5.476   4.738 -0.6792 -0.7888 -1.0185
    3MOL   H223  987   6.048   5.444   4.775 -0.2770  0.9499  0.7342
    3MOL   H224  988   6.011   5.564   4.594 -0.6506 -0.0653  1.1850
    3MOL   H225  989   6.170   5.641   4.592  1.1492  0.2688  2.4604
    3MOL   H226  990   6.019   5.830   4.645  0.3337 -2.5373 -3.4974
    3MOL   H227  991   5.927   5.734   4.730 -0.0684  3.1858  0.2768
    3MOL   H228  992   6.219   5.954   5.057  1.6110 -1.2173 -2.1316
    3MOL   H229  993   6.208   5.793   5.080  1.1160  0.6692 -2.1780
    3MOL   C230  994   6.057   5.897   5.198 -0.0644 -0.1457  0.4850
    3MOL   C231  995   6.120   5.980   5.306 -0.0126 -0.6668 -0.4519
    3MOL   C232  996   6.242   5.910   5.370  0.2093  0.0336  0.4055
    3MOL   C233  997   6.303   6.028   5.444  0.0809  0.5922 -0.1032
    3MOL   C234  998   6.290   6.152   5.351 -0.5442 -0.1816 -0.4402
    3MOL   C235  999   6.167   6.123   5.265 -0.7285 -0.1741 -0.5871
    3MOL   C236 1000   6.012   5.757   5.245  0.2926 -0.3270  0.0752
    3MOL   H237 1001   5.969   5.953   5.165 -0.9375 -2.2576 -0.8834
    3MOL   H238 1002   6.063   5.984   5.399 -2.5595 -2.4485 -1.8905
    3MOL   H239 1003   6.206   5.833   5.438 -0.5197 -2.3291 -2.5360
    3MOL   H240 1004   6.309   5.866   5.297  1.5446  0.7687  1.1651
    3MOL   H241 1005   6.254   6.043   5.541  1.2084 -1.4248  0.8113
    3MOL   H242 1006   6.404   5.995   5.467  0.1214  0.5165 -0.3829
    3MOL   H243 1007   6.373   6.171   5.283  0.4886 -0.1136  0.8257
    3MOL   H244 1008   6.292   6.239   5.417  0.4689 -0.4842 -0.0619
    3MOL   H245 1009   6.191   6.125   5.159 -0.1745  0.6437 -0.4499
    3MOL   H246 1010   6.086   6.196   5.273 -0.7716 -0.1040 -1.6144
    3MOL   H247 1011   6.089   5.704   5.301  0.5297  0.5919  0.6383
    3MOL   H248 1012   6.000   5.702   5.152  1.1242  0.4699 -0.5187
    3MOL   C249 1013   5.889   5.745   5.337  0.3842 -0.0942 -0.4167
    3MOL   C250 1014   5.872   5.603   5.403 -0.5240  0.2914  0.1476
    3MOL   C251 1015   5.738   5.570   5.470  0.5789 -0.2508 -0.3961
    3MOL   C252 1016   5.760   5.451   5.561 -0.3207  0.0657  0.3641
    3MOL   C253 1017   5.912   5.464   5.599 -0.2867 -0.2775 -0.1395
    3MOL   C254 1018   5.975   5.569   5.510  0.4215  0.1723 -0.0508
    3MOL   C255 1019   5.763   5.786   5.255 -0.1371  0.4666  0.0375
    3MOL   H256 1020   5.904   5.823   5.412  0.3651 -0.4637 -0.0255
    3MOL   H257 1021   5.878   5.518   5.335  0.6450  0.2465  0.2946
    3MOL   H258 1022   5.655   5.546   5.403  0.9959 -2.6978 -0.0954
    3MOL   H259 1023   5.710   5.651   5.537 -0.9636  0.9890 -2.4915
    3MOL   H260 1024   5.745   5.362   5.500 -0.3418  0.7746 -0.6667
    3MOL   H261 1025   5.692   5.456   5.646 -0.3814 -0.5562  0.3554
    3MOL   H262 1026   5.960   5.370   5.571  2.4844  1.0038  0.1759
    3MOL   H263 1027   5.924   5.488   5.705  1.0088 -1.0092 -0.1016
    3MOL   H264 1028   6.067   5.532   5.464  0.9238  1.0017  0.2783
    3MOL   H265 1029   6.009   5.653   5.570  1.9889  0.6616 -1.5860
    3MOL   H266 1030   5.786   5.835   5.160  0.9346 -0.9477 -0.4496
    3MOL   H267 1031   5.718   5.694   5.217  1.9363 -1.5859  2.3713
    3MOL   C268 1032   5.657   5.878   5.326 -0.3579  0.5145  0.1194
    3MOL   C269 1033   5.511   5.857   5.260 -0.7075 -0.6100 -0.1836
    3MOL   C270 1034   5.429   5.748   5.317  0.0318  0.3089  0.1461
    3MOL   C271 1035   5.304   5.734   5.227  0.1074  0.4126  0.3652
    3MOL   C272 1036   5.361   5.770   5.087 -0.3455 -0.6156 -0.0399
    3MOL   C273 1037   5.493   5.849   5.112  0.5215  0.7379  0.3698
    3MOL   C274 1038   5.689   6.030   5.295 -0.9445 -0.0568  0.0626
    3MOL   H275 1039   5.658   5.856   5.433 -4.0044 -0.9181 -0.0712
    3MOL   H276 1040   5.454   5.946   5.287 -0.1198 -0.2611 -0.0744
    3MOL   H277 1041   5.491   5.659   5.307 -0.5441 -0.0371 -0.4508
    3MOL   H278 1042   5.402   5.763   5.422 -0.7024 -2.2878  0.3746
    3MOL   H279 1043   5.261   5.635   5.241  0.4607  0.2318  0.1865
    3MOL   H280 1044   5.243   5.817   5.263 -1.1797 -0.1490 -0.4993
    3MOL   H281 1045   5.299   5.836   5.026  0.5116  2.9309  2.7747
    3MOL   H282 1046   5.375   5.685   5.021  1.3669 -0.8187  0.5484
    3MOL   H283 1047   5.485   5.951   5.073  1.8860  0.5562 -0.4246
    3MOL   H284 1048   5.572   5.793   5.063 -0.0044 -0.5616  1.0090
    3MOL   H285 1049   5.669   6.045   5.188  1.7102 -0.0523 -0.4550
    3MOL   H286 1050   5.794   6.058   5.300 -0.8557 -0.6468  1.5266
    3MOL   C287 1051   5.602   6.136   5.381  0.0406  0.1382  0.4983
    3MOL   C288 1052   5.685   6.206   5.497 -0.0209 -0.2344  1.0695
    3MOL   C289 1053   5.763   6.112   5.587 -0.3497  0.9097 -0.1223
    3MOL   C290 1054   5.864   6.203   5.654 -0.2225  0.1290 -0.3828
    3MOL   C291 1055   5.915   6.276   5.535  0.1144 -0.2453 -0.0136
    3MOL   C292 1056   5.787   6.309   5.448 -0.9852  0.3486  0.3241
    3MOL   C293 1057   5.530   6.228   5.280  0.2045  0.0400  0.1495
    3MOL   H294 1058   5.524   6.086   5.438 -0.3066 -0.7848 -0.7633
    3MOL   H295 1059   5.617   6.249   5.570 -0.5594  1.0491 -0.1477
    3MOL   H296 1060   5.696   6.061   5.657  0.1006 -1.0337 -1.0650
    3MOL   H297 1061   5.800   6.023   5.535 -0.2964 -0.6474  2.4883
    3MOL   H298 1062   5.808   6.275   5.714  2.2361  3.1534 -1.5612
    3MOL   H299 1063   5.943   6.153   5.710 -0.7424 -1.1177 -0.7530
    3MOL   H300 1064   5.976   6.209   5.474 -0.3817 -0.8406  0.1440
    3MOL   H301 1065   5.971   6.367   5.555  0.2126  0.0371 -1.5122
    3MOL   H302 1066   5.808   6.297   5.342  0.1893  3.1802  0.2010
    3MOL   H303 1067   5.759   6.414   5.452 -0.6177  0.6254 -2.9806
    3MOL   H304 1068   5.467   6.168   5.213 -0.2107  1.3074 -0.6083
    3MOL   H305 1069   5.601   6.279   5.216 -0.9363 -0.0326 -1.2055
    3MOL   C306 1070   5.439   6.335   5.338  0.0049 -0.2871  0.2988
    3MOL   C307 1071   5.401   6.450   5.247 -0.0058 -0.0420  0.4123
    3MOL   C308 1072   5.520   6.539   5.211 -0.7099 -0.1872  1.0548
    3MOL   C309 1073   5.464   6.622   5.100 -0.4208  0.5648  0.3713
    3MOL   C310 1074   5.368   6.539   5.019 -0.0916 -0.3249 -0.1670
    3MOL   C311 1075   5.344   6.415   5.109  0.2440  0.0031 -0.1882
    3MOL   C312 1076   5.302   6.260   5.384  0.0404  0.3334  0.3226
    3MOL   H313 1077   5.493   6.375   5.424  1.1468 -0.2604 -0.4355
    3MOL   H314 1078   5.331   6.514   5.300  1.0918  0.2395  1.5492
    3MOL   H315 1079   5.600   6.476   5.172  0.9540  3.4156 -1.6548
    3MOL   H316 1080   5.562   6.599   5.292  2.2124 -1.0847  0.2604
    3MOL   H317 1081   5.407   6.701   5.149 -0.4127  0.7981  0.0086
    3MOL   H318 1082   5.541   6.677   5.046 -1.3161  1.0793 -0.4143
    3MOL   H319 1083   5.413   6.504   4.926 -0.6388  1.0092 -0.9386
    3MOL   H320 1084   5.279   6.591   4.985 -0.1660 -0.4948 -0.2316
    3MOL   H321 1085   5.246   6.369   5.111  0.3894 -0.3067  3.0670
    3MOL   H322 1086   5.400   6.328   5.072  0.0810  0.6902 -2.0800
    3MOL   H323 1087   5.310   6.157   5.348  1.7684  1.0644 -1.4869
    3MOL   H324 1088   5.216   6.306   5.336 -0.2155 -1.2731 -0.7925
    3MOL   C325 1089   5.282   6.246   5.537 -0.0069 -0.5249 -0.6581
    3MOL   C326 1090   5.169   6.137   5.571  0.1733  0.3340  0.2393
    3MOL   C327 1091   5.161   6.096   5.719 -0.3387 -0.3924 -1.0164
    3MOL   C328 1092   5.083   5.969   5.712  0.3241  0.2722 -0.8832
    3MOL   C329 1093   5.148   5.894   5.598 -0.0167 -0.8658  0.1117
    3MOL   C330 1094   5.205   5.998   5.506 -0.5294 -0.5006  0.4282
    3MOL   C331 1095   5.239   6.386   5.595 -0.4978 -0.6694  0.4003
    3MOL   H332 1096   5.370   6.196   5.578 -0.4660 -1.2511 -0.5527
    3MOL   H333 1097   5.072   6.177   5.540  1.1924  2.1430 -0.6851
    3MOL   H334 1098   5.120   6.165   5.792  0.4165  0.5737 -1.4846
    3MOL   H335 1099   5.258   6.075   5.764 -1.7055 -1.6041  1.4308
    3MOL   H336 1100   4.989   6.004   5.670  1.9454  1.4975 -3.6268
    3MOL   H337 1101   5.072   5.925   5.811  0.8589  1.0254 -0.4849
    3MOL   H338 1102   5.074   5.832   5.548  0.6754 -1.5986 -0.0197
    3MOL   H339 1103   5.224   5.827   5.637  0.5342  0.6307  1.6714
    3MOL   H340 1104   5.165   5.979   5.406  1.5656  1.7902 -0.8785
    3MOL   H341 1105   5.314   5.995   5.509 -0.5031 -2.0654 -0.8661
    3MOL   H342 1106   5.155   6.360   5.661 -0.5911 -0.0560  0.5246
    3MOL   H343 1107   5.196   6.455   5.522 -0.8762 -0.9338  0.3689
    3MOL   C344 1108   5.346   6.452   5.683 -0.3561 -0.5767 -0.1220
    3MOL   C345 1109   5.349   6.394   5.825  1.4062  0.6430 -0.6205
    3MOL   C346 1110   5.249   6.448   5.929  0.4427  0.1945 -0.1048
    3MOL   C347 1111   5.309   6.417   6.062 -0.1396  0.4200 -0.1014
    3MOL   C348 1112   5.461   6.392   6.038  0.2842 -0.2455  0.0788
    3MOL   C349 1113   5.483   6.417   5.892  0.3077 -0.3791 -0.2424
    3MOL   C350 1114   5.332   6.610   5.686 -0.2231 -0.6087 -0.1610
    3MOL   H351 1115   5.436   6.439   5.623 -0.2095  1.0724 -0.2942
    3MOL   H352 1116   5.345   6.286   5.814  0.2491  0.5276  0.8185
    3MOL   H353 1117   5.148   6.407   5.925  0.5270  0.0932 -1.1777
    3MOL   H354 1118   5.251   6.557   5.916  2.0557  0.0894 -0.8512
    3MOL   H355 1119   5.297   6.489   6.142  0.8718  0.3629  0.1117
    3MOL   H356 1120   5.271   6.319   6.089 -0.6911  0.2290 -1.5201
    3MOL   H357 1121   5.504   6.300   6.078  1.2241 -1.2483 -3.1459
    3MOL   H358 1122   5.523   6.468   6.085  1.0978 -0.0240 -1.3289
    3MOL   H359 1123   5.517   6.520   5.879 -0.1046 -0.0451  1.2040
    3MOL   H360 1124   5.556   6.349   5.849  1.8124  0.9000  0.2238
    3MOL   H361 1125   5.369   6.647   5.781 -2.1474 -0.1294  0.4348
    3MOL   H362 1126   5.225   6.630   5.696  0.0343  0.2684  0.8074
    3MOL   C363 1127   5.400   6.687   5.568 -0.7110 -0.6575  0.3996
    3MOL   C364 1128   5.336   6.827   5.534 -0.2114 -0.3899 -0.1337
    3MOL   C365 1129   5.190   6.811   5.499  0.1950  0.2397  0.0009
    3MOL   C366 1130   5.163   6.933   5.414 -0.3349 -1.0265 -0.1716
    3MOL   C367 1131   5.283   6.943   5.322 -0.1981 -1.1011  0.4375
    3MOL   C368 1132   5.401   6.898   5.409  0.9844 -0.4242 -0.2300
    3MOL   C369 1133   5.555   6.709   5.591 -0.3904 -0.1607 -0.0307
    3MOL   H370 1134   5.397   6.615   5.487  0.1792 -1.5358  1.1258
    3MOL   H371 1135   5.352   6.902   5.611 -2.5474 -1.0614  1.0435
    3MOL   H372 1136   5.162   6.720   5.446  1.1293  1.3582 -2.5023
    3MOL   H373 1137   5.127   6.807   5.587  0.4658 -0.2983  0.1712
    3MOL   H374 1138   5.079   6.908   5.349 -0.6299 -0.7723  0.1101
    3MOL   H375 1139   5.143   7.023   5.472  0.5671 -1.8851  1.5013
    3MOL   H376 1140   5.277   6.862   5.249 -1.5463 -0.9057  0.3294
    3MOL   H377 1141   5.303   7.037   5.271 -0.3796 -2.0747 -1.4908
    3MOL   H378 1142   5.450   6.983   5.456 -1.6957 -0.2848  2.4970
    3MOL   H379 1143   5.478   6.852   5.348  2.8259  2.0212  0.2154
    3MOL   H380 1144   5.608   6.622   5.629  4.4058  2.0510 -1.2489
    3MOL   H381 1145   5.579   6.786   5.665  1.2331 -0.6947  0.0296
    3MOL   H382 1146   5.615   6.731   5.502  0.7529  0.1704  0.8054
    4MOL     C1 1147   7.057   0.043   7.608  0.6861 -0.9567  0.7113
    4MOL     C2 1148   6.944   0.138   7.555 -0.1576  0.5911  0.0778
    4MOL     C3 1149   6.984   0.282   7.528  0.2194 -0.3477 -0.5898
    4MOL     C4 1150   6.978   0.356   7.661 -0.5797  1.6127  0.0851
    4MOL     C5 1151   6.891   0.264   0.065 -0.1002  0.1138 -0.2564
    4MOL     C6 1152   6.841   0.157   7.663 -0.4198  0.3449  0.1017
    4MOL     C7 1153   7.136   7.672   7.495  0.3609  0.7868  0.0696
    4MOL     H8 1154   7.119   0.096   7.681 -0.1385  0.3951  0.4577
    4MOL     H9 1155   6.897   0.093   7.467  0.8144 -0.9757  0.3376
    4MOL    H10 1156   7.082   0.289   7.481  0.1838  1.7370 -0.3608
    4MOL    H11 1157   6.914   0.329   7.460 -0.4455 -1.3184 -0.5861
    4MOL    H12 1158   7.078   0.368   0.014 -0.5926  0.6417  0.3892
    4MOL    H13 1159   6.937   0.456   7.648 -0.2616  1.8601  0.9003
    4MOL    H14 1160   6.944   0.222   0.150  0.8022  1.3513 -0.1993
    4MOL    H15 1161   6.801   0.306   0.109 -1.2938 -1.8673 -0.7099
    4MOL    H16 1162   6.745   0.186   7.618 -1.7041  0.8936  3.0558
    4MOL    H17 1163   6.815   0.066   0.028  1.6418  0.2924  1.0151
    4MOL    H18 1164   7.064   7.605   7.448  3.0324 -1.4720 -0.9412
    4MOL    H19 1165   7.161   0.065   7.429  1.1379 -0.1523 -0.8352
    4MOL    H20 1166   7.015   7.661   7.678  0.2792  0.1480  1.6264
    4MOL    C21 1167   7.261   7.584   7.543 -0.1559  0.0260  0.7656
    4MOL    C22 1168   7.362   7.672   7.612  0.2823 -0.2078 -0.0257
    4MOL    C23 1169   7.392   0.120   7.548 -0.0665  0.0691  0.2024
    4MOL    C24 1170   7.542   0.145   7.572  0.7072 -0.3160  0.8094
    4MOL    C25 1171   7.596   0.033   7.662  0.0236 -0.6036  0.4057
    4MOL    C26 1172   7.494   7.611   7.646  0.0533  0.6331  0.6546
    4MOL    C27 1173   7.238   7.444   7.614 -0.8109  0.6600 -0.0158
    4MOL    H28 1174   7.321   7.561   7.454  2.3437 -1.4732  2.7444
    4MOL    H29 1175   7.318   0.005   0.019  1.0339 -0.4270  0.3689
    4MOL    H30 1176   7.318   0.193   7.580 -0.5346  0.1309 -1.0048
    4MOL    H31 1177   7.378   0.104   7.441 -2.2910 -1.5313  0.6906
    4MOL    H32 1178   7.583   0.136   7.472 -0.4829  3.0776 -0.0435
    4MOL    H33 1179   7.553   0.245   7.615 -1.7424  0.1762  0.3749
    4MOL    H34 1180   7.589   0.078   0.072  2.3995 -0.1128  0.3813
    4MOL    H35 1181   0.011   0.014   7.639  0.0127  0.3344 -0.4589
    4MOL    H36 1182   7.485   7.548   0.044 -1.7871  0.6408  0.4906
    4MOL    H37 1183   7.524   7.560   7.554  2.1199  4.0572 -0.6868
    4MOL    H38 1184   7.241   7.470   0.030  0.7350 -1.1328  0.3951
    4MOL    H39 1185   7.135   7.412   7.598 -0.0486 -0.7028 -2.3732
    4MOL    C40 1186   7.331   7.321   7.577 -0.6778 -0.2321 -0.6548
    4MOL    C41 1187   7.313   7.215   0.000 -0.7056  0.3940 -0.8263
    4MOL    C42 1188   7.178   7.193   0.053 -0.3942  0.2201 -0.2776
    4MOL    C43 1189   7.190   7.135   0.192  0.0598  0.0352 -0.5216
    4MOL    C44 1190   7.326   7.179   0.253 -0.4916  0.0557  0.4179
    4MOL    C45 1191   7.382   7.254   0.128 -0.3686  0.0079  0.2718
    4MOL    C46 1192   7.300   7.257   7.439 -0.3716 -0.6393  0.5402
    4MOL    H47 1193   7.436   7.348   7.590 -0.9466  0.4355  0.1771
    4MOL    H48 1194   7.358   7.121   7.662 -0.8646  0.3040 -0.7832
    4MOL    H49 1195   7.121   7.131   7.673  1.6259  0.0993 -1.8488
    4MOL    H50 1196   7.111   7.278   0.064  0.6698  0.9089  1.0889
    4MOL    H51 1197   7.175   7.027   0.189 -0.8558  0.1508 -0.2756
    4MOL    H52 1198   7.108   7.164   0.257 -0.8781 -1.8719 -0.8373
    4MOL    H53 1199   7.318   7.245   0.340 -0.7324  0.6911 -0.0847
    4MOL    H54 1200   7.385   7.091   0.281 -3.0533 -1.9239 -0.1893
    4MOL    H55 1201   7.376   7.362   0.137  0.2058  0.0878 -0.2660
    4MOL    H56 1202   7.488   7.233   0.114 -0.7061 -1.9391  0.4918
    4MOL    H57 1203   7.240   7.170   7.464 -2.3024  1.1597  2.3693
    4MOL    H58 1204   7.236   7.313   7.371  0.3384 -2.8603 -2.0618
    4MOL    C59 1205   7.438   7.218   7.375  0.2004  0.0877 -0.0038
    4MOL    C60 1206   7.423   7.099   7.277 -0.4256  0.3928  0.0165
    4MOL    C61 1207   7.320   7.118   7.166 -0.3384 -0.0086  0.8824
    4MOL    C62 1208   7.276   6.985   7.119 -0.1588  0.3047  0.3047
    4MOL    C63 1209   7.291   6.889   7.243 -0.0313  0.1197 -0.3161
    4MOL    C64 1210   7.389   6.959   7.340 -0.3347 -0.1747 -0.5434
    4MOL    C65 1211   7.504   7.341   7.302 -0.1956 -0.0710  0.1657
    4MOL    H66 1212   7.508   7.195   7.456 -0.9141 -0.0111  0.9400
    4MOL    H67 1213   7.519   7.087   7.227  0.0794  2.1819  0.5392
    4MOL    H68 1214   7.350   7.181   7.082  0.4299  1.0161  1.9067
    4MOL    H69 1215   7.229   7.167   7.202 -1.7888 -1.1328 -1.1426
    4MOL    H70 1216   7.324   6.952   7.027 -1.5857  0.7718 -0.6351
    4MOL    H71 1217   7.170   6.983   7.094  0.1930  0.9835 -1.2792
    4MOL    H72 1218   7.310   6.795   7.191  1.4075 -0.0315  0.4614
    4MOL    H73 1219   7.195   6.864   7.288  0.8321 -0.0909  1.4269
    4MOL    H74 1220   7.332   6.982   7.431  0.7041 -0.3319  0.1530
    4MOL    H75 1221   7.473   6.904   7.382  0.1924  1.8603  1.1382
    4MOL    H76 1222   7.495   7.425   7.370 -2.2742 -1.8624  2.2078
    4MOL    H77 1223   7.440   7.383   7.225 -0.8723  0.0504  0.7942
    4MOL    C78 1224   7.648   7.331   7.236  0.3059  0.6448 -0.1682
    4MOL    C79 1225   7.653   7.446   7.132 -0.1556  0.9269 -0.2148
    4MOL    C80 1226   7.566   7.427   7.008 -0.2713  0.1392 -0.3206
    4MOL    C81 1227   7.628   7.512   6.896  0.0766 -0.5815 -0.4238
    4MOL    C82 1228   0.080   7.540   6.941 -0.2357 -0.8109  0.2823
    4MOL    C83 1229   0.104   7.466   7.066 -0.2376 -0.2766  1.0124
    4MOL    C84 1230   0.063   7.349   7.348  0.1255  0.5556  0.6179
    4MOL    H85 1231   7.674   7.242   7.179  1.4515  1.3631 -0.7751
    4MOL    H86 1232   7.617   7.535   7.184  2.5926  2.3223 -0.5786
    4MOL    H87 1233   7.459   7.444   7.022  0.2463  2.3279  1.3261
    4MOL    H88 1234   7.583   7.323   6.982 -0.0629  0.0291  0.2714
    4MOL    H89 1235   7.564   7.600   6.887 -0.4192 -1.0906 -2.0746
    4MOL    H90 1236   7.627   7.461   6.800  1.8995  1.1274 -1.3836
    4MOL    H91 1237   0.157   7.506   6.871  0.3380 -0.4556  0.7322
    4MOL    H92 1238   0.084   7.648   6.957 -1.0510 -0.6550 -0.5786
    4MOL    H93 1239   0.158   7.373   7.047 -0.5702 -0.4401  0.8576
    4MOL    H94 1240   0.159   7.526   7.139  0.3897  1.1991 -0.6428
    4MOL    H95 1241   0.042   7.418   7.429  0.6251  0.4556  0.8352
    4MOL    H96 1242   0.142   7.405   7.298 -0.8665  1.3276 -0.1218
    4MOL    C97 1243   0.119   7.210   7.395 -0.1301 -0.1911  0.3890
    4MOL    C98 1244   0.163   7.194   7.550  0.1497  0.3030  0.5108
    4MOL    C99 1245   0.259   7.303   7.589 -0.0518  0.1941  0.2085
    4MOL   C100 1246   0.246   7.332   0.044 -0.0526 -0.2513  0.4462
    4MOL   C101 1247   0.108   7.285   0.088  0.2793  0.6374 -0.0890
    4MOL   C102 1248   0.050   7.215   7.651  0.3301  0.3060  0.7304
    4MOL   C103 1249   0.237   7.171   7.306  0.5560  0.0972 -0.1361
    4MOL   H104 1250   0.035   7.143   7.378  0.0097 -0.2335 -0.1245
    4MOL   H105 1251   0.207   7.095   7.564  0.8037  0.7427  1.6953
    4MOL   H106 1252   0.363   7.280   7.568  0.0991  1.3147 -0.3167
    4MOL   H107 1253   0.239   7.396   7.536  0.6442 -0.1608 -0.6965
    4MOL   H108 1254   0.247   7.441   0.047 -1.5962 -0.2490  2.1931
    4MOL   H109 1255   0.332   7.295   0.099  0.8267 -0.3439 -0.9807
    4MOL   H110 1256   0.053   7.374   0.121 -1.0042  0.0727 -0.6733
    4MOL   H111 1257   0.121   7.209   0.165 -2.6228  1.8142  1.6631
    4MOL   H112 1258   7.688   7.125   7.683  2.5165 -1.1818  0.1814
    4MOL   H113 1259   7.660   7.282   7.620 -2.0046 -3.1749 -1.0765
    4MOL   H114 1260   0.235   7.222   7.210  2.0025  1.3994  0.5133
    4MOL   H115 1261   0.335   7.201   7.343 -0.1556 -1.7171  3.4560
    4MOL   C116 1262   0.251   7.025   7.271 -0.2433 -1.1615  0.2707
    4MOL   C117 1263   0.133   6.954   7.197 -0.1843 -0.1960  0.8325
    4MOL   C118 1264   0.107   6.999   7.049  0.1137  0.9120  0.6049
    4MOL   C119 1265   0.021   6.885   6.991  0.0605 -0.1467 -0.1895
    4MOL   C120 1266   0.068   6.755   7.064 -0.5025  0.0749  0.7231
    4MOL   C121 1267   0.141   6.802   7.191 -0.2305  0.5509 -0.1264
    4MOL   C122 1268   0.389   6.994   7.207  0.9358 -0.2392  0.0223
    4MOL   H123 1269   0.254   6.983   7.372  1.7770 -0.0520  0.6990
    4MOL   H124 1270   0.043   6.969   7.257 -0.8818 -0.1062 -0.2239
    4MOL   H125 1271   0.052   7.093   7.054  2.4151  2.1797  3.1685
    4MOL   H126 1272   0.202   7.007   6.997  0.7020 -2.3027  1.0919
    4MOL   H127 1273   0.020   6.874   6.882  0.6745  3.1232 -0.5728
    4MOL   H128 1274   7.606   6.910   7.008  0.3992 -0.4645  2.4638
    4MOL   H129 1275   0.144   6.712   7.001 -0.7654  0.3897  0.1878
    4MOL   H130 1276   7.686   6.674   7.076  1.1134 -1.4962 -0.2388
    4MOL   H131 1277   0.086   6.767   7.279  1.7037 -1.7344  0.2376
    4MOL   H132 1278   0.241   6.758   7.199 -0.3885  0.2840  0.4312
    4MOL   H133 1279   0.407   7.085   7.150  0.4864  0.3113  0.7480
    4MOL   H134 1280   0.390   6.905   7.143 -0.9718 -0.8090  0.7790
    4MOL   C135 1281   0.509   6.963   7.295 -0.3168 -0.1579 -0.0930
    4MOL   C136 1282   0.649   6.976   7.233  0.1743  1.4407 -0.2529
    4MOL   C137 1283   0.704   7.119   7.207 -0.4226  0.1659  0.0522
    4MOL   C138 1284   0.794   7.099   7.082  0.2326  0.3297  0.4180
    4MOL   C139 1285   0.811   6.949   7.064 -0.0191  0.3611  0.4342
    4MOL   C140 1286   0.680   6.893   7.111 -0.2759 -0.0232  0.0958
    4MOL   C141 1287   0.491   6.836   7.385  0.0892 -0.3380 -0.3921
    4MOL   H142 1288   0.507   7.051   7.360  5.9138  0.8691 -0.9953
    4MOL   H143 1289   0.722   6.936   7.304 -2.3462 -0.7240  1.1950
    4MOL   H144 1290   0.617   7.182   7.188 -1.6586 -1.1172  1.3584
    4MOL   H145 1291   0.757   7.164   7.291 -0.9187 -1.2081  1.1166
    4MOL   H146 1292   0.891   7.147   7.085 -0.2032  1.2625 -0.1213
    4MOL   H147 1293   0.743   7.130   6.991  0.9145  2.4368  0.7365
    4MOL   H148 1294   0.885   6.905   7.131 -1.9322 -1.8869  1.1356
    4MOL   H149 1295   0.847   6.919   6.965 -0.3388 -2.5594  1.1479
    4MOL   H150 1296   0.617   6.894   7.021 -0.0419 -3.5493 -0.1716
    4MOL   H151 1297   0.700   6.788   7.129  1.0632  0.3612  0.8572
    4MOL   H152 1298   0.566   6.761   7.360  1.7884  2.0526 -2.8055
    4MOL   H153 1299   0.390   6.801   7.364  0.3598 -0.2546 -1.9443
    4MOL   C154 1300   0.497   6.862   7.545 -0.1073 -0.1664 -0.1414
    4MOL   C155 1301   0.412   6.774   7.643 -0.1620  0.4332 -0.0022
    4MOL   C156 1302   0.417   6.628   7.616 -0.8172 -1.0563 -0.0237
    4MOL   C157 1303   0.284   6.569   7.674 -0.3887  0.4307  0.0563
    4MOL   C158 1304   0.180   6.671   7.668 -0.0869 -0.6955 -0.7926
    4MOL   C159 1305   0.259   6.803   7.639 -0.5200 -0.4591 -0.0223
    4MOL   C160 1306   0.649   6.879   7.583  0.2640 -0.2351  0.2437
    4MOL   H161 1307   0.454   6.961   7.554 -0.0503 -0.1602  0.0633
    4MOL   H162 1308   0.434   6.792   0.059 -1.3931  2.7916 -0.0981
    4MOL   H163 1309   0.409   6.610   7.509 -0.1148  0.7032 -0.3923
    4MOL   H164 1310   0.512   6.578   7.638  1.2269  1.5398 -2.5614
    4MOL   H165 1311   0.269   6.477   7.617  1.1955 -0.1129  0.4803
    4MOL   H166 1312   0.287   6.543   0.090  2.0648 -1.3401 -0.4022
    4MOL   H167 1313   0.127   6.681   0.074  3.1477  1.7162  0.8498
    4MOL   H168 1314   0.101   6.659   7.594 -1.1319 -0.6001  0.2961
    4MOL   H169 1315   0.238   6.878   0.026 -2.1629 -0.1728 -0.7300
    4MOL   H170 1316   0.222   6.851   7.548 -1.7815 -0.6474  0.3842
    4MOL   H171 1317   0.704   6.922   7.499  0.1346  1.6515  1.0957
    4MOL   H172 1318   0.688   6.778   7.594 -0.5687 -0.8737 -2.1614
    4MOL   C173 1319   0.683   6.957   0.020  1.3048 -0.7510 -0.4053
    4MOL   C174 1320   0.670   7.109   7.674  0.2568  0.1955  0.0057
    4MOL   C175 1321   0.791   7.169   7.604  0.7736  0.2135 -0.8264
    4MOL   C176 1322   0.805   7.312   7.652  0.1357  0.7121 -0.2144
    4MOL   C177 1323   0.688   7.335   0.058 -0.3604  0.2285 -0.3895
    4MOL   C178 1324   0.647   7.195   0.109 -0.2984  1.0660  0.5657
    4MOL   C179 1325   0.815   6.904   0.098  0.4233 -0.2646  0.4714
    4MOL   H180 1326   0.602   6.938   0.090  1.7466 -1.1123  0.0089
    4MOL   H181 1327   0.581   7.129   7.615 -0.5068  0.0061  1.0874
    4MOL   H182 1328   0.770   7.161   7.497 -1.4929 -1.2454 -0.2960
    4MOL   H183 1329   0.882   7.113   7.622  0.7117  0.2793 -0.2925
    4MOL   H184 1330   0.893   7.331   0.023 -0.1844  1.5178 -0.0002
    4MOL   H185 1331   0.802   7.379   7.566  1.2101 -0.4507 -1.1886
    4MOL   H186 1332   0.603   7.387   0.015 -2.0709 -1.1362  1.2539
    4MOL   H187 1333   0.715   7.404   0.138  1.8532 -0.8615 -0.1695
    4MOL   H188 1334   0.712   7.173   0.194 -1.9383  0.0610  1.5993
    4MOL   H189 1335   0.543   7.179   0.140  0.1571 -2.9061  0.2665
    4MOL   H190 1336   0.906   6.921   0.042 -1.7216  0.4202 -2.9683
    4MOL   H191 1337   0.832   6.971   0.183 -0.6302  0.8868 -0.1978
    4MOL   C192 1338   0.810   6.757   0.151 -0.2115 -1.0288 -0.1195
    4MOL   C193 1339   0.689   6.726   0.246  0.5891  0.1821 -0.5411
    4MOL   C194 1340   0.691   6.778   0.391  0.1595  0.3054 -0.0167
    4MOL   C195 1341   0.657   6.666   0.483  0.1952  0.3080 -0.6082
    4MOL   C196 1342   0.595   6.564   0.391  0.3007 -0.6349  0.0009
    4MOL   C197 1343   0.655   6.577   0.252 -0.1121  0.1692  0.2901
    4MOL   C198 1344   0.948   6.710   0.217  0.5363  0.4434  0.1373
    4MOL   H199 1345   0.796   6.698   0.060 -1.3627  1.0322 -1.3162
    4MOL   H200 1346   0.612   6.770   0.183  1.6594 -1.3290 -3.0042
    4MOL   H201 1347   0.621   6.860   0.404 -0.4461 -0.2440  0.1870
    4MOL   H202 1348   0.791   6.815   0.413  0.5389 -0.6966 -0.0410
    4MOL   H203 1349   0.744   6.617   0.528 -0.0616  0.5303  0.1442
    4MOL   H204 1350   0.596   6.696   0.568  1.1288  1.4417 -0.3227
    4MOL   H205 1351   0.489   6.589   0.382  0.2712 -0.0094  1.8350
    4MOL   H206 1352   0.597   6.461   0.428 -0.6381 -0.8194 -0.4458
    4MOL   H207 1353   0.594   6.537   0.171 -0.8986 -0.3068  1.1084
    4MOL   H208 1354   0.750   6.524   0.245  0.1818  0.5944  1.0640
    4MOL   H209 1355   0.985   6.803   0.262  0.4768  0.0358  1.0340
    4MOL   H210 1356   0.925   6.644   0.300  0.1465 -0.6706 -0.8538
    4MOL   C211 1357   1.055   6.630   0.135 -0.7411 -0.3476 -0.2984
    4MOL   C212 1358   1.183   6.618   0.213  0.6865  0.0344 -0.0465
    4MOL   C213 1359   1.252   6.748   0.264  0.3750  0.0834  0.5568
    4MOL   C214 1360   1.329   6.707   0.392 -0.9579 -0.1262 -0.4478
    4MOL   C215 1361   1.292   6.563   0.428 -0.4509  0.4113 -0.1539
    4MOL   C216 1362   1.173   6.529   0.339 -0.5298  0.2601 -0.3639
    4MOL   C217 1363   0.995   6.494   0.093 -0.3214 -0.5911 -0.3334
    4MOL   H218 1364   1.072   6.695   0.049  1.0265 -1.7594 -1.0449
    4MOL   H219 1365   1.258   6.574   0.147 -0.2121 -1.4290 -0.0953
    4MOL   H220 1366   1.330   6.781   0.196  1.9381  0.0731  2.2695
    4MOL   H221 1367   1.183   6.832   0.271  0.4250  0.1840 -0.2186
    4MOL   H222 1368   1.435   6.715   0.371 -1.2722  3.8732 -0.8458
    4MOL   H223 1369   1.306   6.778   0.471  0.6159 -0.5041  0.3759
    4MOL   H224 1370   1.284   6.553   0.537  0.6982  0.0313 -0.1015
    4MOL   H225 1371   1.376   6.503   0.394  0.0191  0.2488  1.2290
    4MOL   H226 1372   1.175   6.422   0.316  0.9340  0.8567 -3.2084
    4MOL   H227 1373   1.080   6.538   0.395 -0.5803  0.2599 -0.4465
    4MOL   H228 1374   0.892   6.514   0.062 -0.4561  0.6551  0.8532
    4MOL   H229 1375   0.994   6.423   0.176  1.1667 -0.7885 -0.4705
    4MOL   C230 1376   1.064   6.428   7.665  0.5672 -0.1325 -0.4757
    4MOL   C231 1377   0.950   6.360   7.575 -0.2235 -0.3489 -0.2777
    4MOL   C232 1378   0.828   6.280   7.630  0.1230 -0.3766  0.5522
    4MOL   C233 1379   0.712   6.289   7.524  0.6306 -0.5228  0.6432
    4MOL   C234 1380   0.778   6.377   7.410  0.4925 -0.0555  0.1886
    4MOL   C235 1381   0.883   6.456   7.481 -0.2123 -0.0653 -0.8311
    4MOL   C236 1382   1.172   6.321   0.013  0.5471  0.1757 -0.4639
    4MOL   H237 1383   1.102   6.507   7.602  0.3800  0.1193 -0.2764
    4MOL   H238 1384   0.995   6.288   7.506  1.0206  1.2571 -1.1801
    4MOL   H239 1385   0.847   6.177   7.658 -0.2813 -0.5955  0.0446
    4MOL   H240 1386   0.806   6.337   0.031  0.7812  1.5925 -0.4882
    4MOL   H241 1387   0.667   6.199   7.484  0.0544  0.2470 -0.4959
    4MOL   H242 1388   0.617   6.326   7.561 -0.2545 -1.4972 -0.6116
    4MOL   H243 1389   0.712   6.432   7.343  1.2176  1.2148  0.5052
    4MOL   H244 1390   0.829   6.313   7.337  0.9838  0.3652  0.1548
    4MOL   H245 1391   0.837   6.539   7.535 -2.0174 -0.3957 -1.8165
    4MOL   H246 1392   0.952   6.500   7.408 -1.0625  2.0732 -0.3963
    4MOL   H247 1393   1.113   6.232   0.034 -1.4650  1.3467 -1.0057
    4MOL   H248 1394   1.219   6.347   0.108 -0.0566 -1.3966  0.2712
    4MOL   C249 1395   1.285   6.305   7.596  0.2133 -0.2226  0.4137
    4MOL   C250 1396   1.347   6.164   7.598  0.1492  1.1632  0.1463
    4MOL   C251 1397   1.255   6.043   7.604  1.3586 -0.2912 -0.1632
    4MOL   C252 1398   1.344   5.923   7.604 -1.1249 -0.4270  0.1117
    4MOL   C253 1399   1.464   5.974   0.005  0.0247 -0.4381 -0.2951
    4MOL   C254 1400   1.449   6.127   0.020 -0.1244 -0.1505 -0.0310
    4MOL   C255 1401   1.395   6.409   7.614 -0.2016 -0.0505 -0.3696
    4MOL   H256 1402   1.232   6.322   7.502  0.4003  1.1470  0.5462
    4MOL   H257 1403   1.406   6.161   7.507  1.7750 -3.2076  1.1978
    4MOL   H258 1404   1.185   6.038   7.520  0.1160 -0.9591  0.9129
    4MOL   H259 1405   1.197   6.028   0.005  3.5612 -3.1473  0.8498
    4MOL   H260 1406   1.378   5.892   7.506 -2.4133  0.0128 -0.4825
    4MOL   H261 1407   1.300   5.836   7.653 -1.5755  2.0164  4.3425
    4MOL   H262 1408   1.558   5.961   7.640  0.4814  0.1339  0.3523
    4MOL   H263 1409   1.473   5.922   0.100 -0.0260 -0.7100 -0.4377
    4MOL   H264 1410   1.544   6.178   0.003  0.1518 -0.5294  0.3818
    4MOL   H265 1411   1.412   6.153   0.119 -0.8109 -0.3875 -0.2224
    4MOL   H266 1412   1.340   6.497   7.647 -1.2468  0.5178 -3.5046
    4MOL   H267 1413   1.455   6.392   0.014 -1.3472  3.2368  1.1065
    4MOL   C268 1414   1.488   6.447   7.498 -0.4422  0.3544  1.2292
    4MOL   C269 1415   1.610   6.530   7.544  0.0553 -0.1769  0.3713
    4MOL   C270 1416   1.692   6.580   7.429 -0.7130  0.5150  0.1296
    4MOL   C271 1417   1.835   6.578   7.476  1.1793  0.4296 -0.1979
    4MOL   C272 1418   1.837   6.511   7.617 -0.0794  0.0561  0.2544
    4MOL   C273 1419   1.705   6.449   7.630  0.2274 -0.1194 -0.1800
    4MOL   C274 1420   1.411   6.507   7.380 -0.0039  0.8137 -1.0625
    4MOL   H275 1421   1.527   6.351   7.462 -0.8281 -0.1760  2.2188
    4MOL   H276 1422   1.582   6.620   7.598  0.1350  2.1979 -3.3327
    4MOL   H277 1423   1.681   6.519   7.339  0.1878  1.2252 -0.4792
    4MOL   H278 1424   1.671   6.685   7.407  0.0189  0.9679  1.5230
    4MOL   H279 1425   1.898   6.523   7.405  1.9641 -0.7398  1.3899
    4MOL   H280 1426   1.880   6.677   7.485  1.3463  0.3272  0.0958
    4MOL   H281 1427   1.846   6.593   7.687 -0.6504 -1.2174  1.8520
    4MOL   H282 1428   1.924   6.446   7.629  0.3188  0.4372 -0.5581
    4MOL   H283 1429   1.667   6.437   0.042  1.5752 -1.4852  0.1895
    4MOL   H284 1430   1.713   6.345   7.599  0.8746 -0.3246  0.6553
    4MOL   H285 1431   1.425   6.615   7.381  1.7744  0.6344  3.1448
    4MOL   H286 1432   1.304   6.499   7.397  0.1140 -2.0717 -1.3229
    4MOL   C287 1433   1.439   6.439   7.234 -0.2683  0.2265 -0.0279
    4MOL   C288 1434   1.341   6.317   7.222 -0.4085  0.1368  0.4939
    4MOL   C289 1435   1.195   6.359   7.188  0.5599  0.5264 -0.5777
    4MOL   C290 1436   1.135   6.224   7.141 -0.2464  0.0631 -0.1110
    4MOL   C291 1437   1.246   6.137   7.085  0.2900 -0.2873  0.5724
    4MOL   C292 1438   1.379   6.213   7.114 -0.4557 -1.1246 -0.0288
    4MOL   C293 1439   1.440   6.537   7.111  0.3153  0.0493  0.4779
    4MOL   H294 1440   1.538   6.395   7.226 -0.0817  0.5096  0.6957
    4MOL   H295 1441   1.336   6.265   7.318 -0.8214 -0.2622  0.2602
    4MOL   H296 1442   1.144   6.414   7.267  0.3600  0.7235 -0.8446
    4MOL   H297 1443   1.199   6.437   7.112 -0.6693  1.0873 -0.0756
    4MOL   H298 1444   1.093   6.173   7.228  0.3716  1.4760  1.0303
    4MOL   H299 1445   1.053   6.233   7.070 -0.4962 -1.4772 -0.0342
    4MOL   H300 1446   1.237   6.116   6.978 -0.4223  2.9090 -0.0597
    4MOL   H301 1447   1.250   6.041   7.135  3.1618  0.5836  2.1554
    4MOL   H302 1448   1.408   6.251   7.016  1.7658 -3.2737 -0.2654
    4MOL   H303 1449   1.460   6.145   7.141  0.7113  0.8452  1.4864
    4MOL   H304 1450   1.351   6.598   7.126  0.7380  0.4452  1.4166
    4MOL   H305 1451   1.428   6.489   7.014  0.0293  0.0929  0.4911
    4MOL   C306 1452   1.560   6.629   7.098  0.1317 -0.6431 -0.0259
    4MOL   C307 1453   1.691   6.547   7.048  0.2443  0.1964 -0.0455
    4MOL   C308 1454   1.678   6.512   6.899 -0.0220  0.2187  0.3094
    4MOL   C309 1455   1.821   6.494   6.859 -0.2286 -0.0346  0.0776
    4MOL   C310 1456   1.918   6.581   6.939  0.3972  0.6844 -0.5989
    4MOL   C311 1457   1.830   6.627   7.066  0.1801 -0.1744  0.6071
    4MOL   C312 1458   1.527   6.749   7.001  0.2610  0.3360  0.3795
    4MOL   H313 1459   1.592   6.665   7.196  0.1549 -1.9345  0.4545
    4MOL   H314 1460   1.698   6.459   7.111  0.4276  1.9527  2.4412
    4MOL   H315 1461   1.644   6.593   6.833  0.8474 -1.6226 -2.4783
    4MOL   H316 1462   1.626   6.422   6.867  0.8266  0.4240 -1.6780
    4MOL   H317 1463   1.843   6.394   6.895 -0.8372  0.2196  1.2012
    4MOL   H318 1464   1.835   6.497   6.751  0.9630 -0.2083  0.2257
    4MOL   H319 1465   1.942   6.670   6.880 -2.5882  0.7524 -1.7778
    4MOL   H320 1466   2.004   6.525   6.977  0.4236  1.3167  0.2983
    4MOL   H321 1467   1.880   6.595   7.157  1.4010 -0.6840 -0.2309
    4MOL   H322 1468   1.828   6.736   7.055 -2.2189 -0.2493 -0.1275
    4MOL   H323 1469   1.444   6.715   6.939 -0.8590  1.3020  1.3283
    4MOL   H324 1470   1.614   6.783   6.944  0.4305  0.7567  0.8867
    4MOL   C325 1471   1.475   6.864   7.098 -0.1196 -0.3356 -0.1214
    4MOL   C326 1472   1.399   6.975   7.018  0.3220 -0.8335 -0.1246
    4MOL   C327 1473   1.259   6.931   6.971  0.9502  0.1842 -0.4036
    4MOL   C328 1474   1.256   6.966   6.825  0.0319  0.3535  0.2364
    4MOL   C329 1475   1.359   7.067   6.793 -0.4239 -0.6449 -0.4011
    4MOL   C330 1476   1.471   7.045   6.893 -0.4995  0.2780  0.4745
    4MOL   C331 1477   1.591   6.930   7.172 -0.1110  0.1304 -0.5692
    4MOL   H332 1478   1.415   6.816   7.174 -0.7690  1.5356  0.5738
    4MOL   H333 1479   1.373   7.065   7.073 -1.2856 -1.0119 -0.5617
    4MOL   H334 1480   1.189   6.998   7.021  1.3920  2.7340 -3.0340
    4MOL   H335 1481   1.250   6.824   6.987 -0.3706  0.5339  1.2833
    4MOL   H336 1482   1.158   6.995   6.787  0.4547  1.3355 -0.1088
    4MOL   H337 1483   1.292   6.879   6.770  1.9686  0.8318  0.7040
    4MOL   H338 1484   1.323   7.171   6.791  2.2019  0.2854 -1.0760
    4MOL   H339 1485   1.388   7.053   6.689 -1.8139 -1.2034 -0.7274
    4MOL   H340 1486   1.508   7.145   6.917  0.2951  0.0159  0.3291
    4MOL   H341 1487   1.543   6.982   6.842 -2.8478  0.3106 -3.0527
    4MOL   H342 1488   1.646   6.989   7.098  1.6076 -0.7072  0.0182
    4MOL   H343 1489   1.672   6.865   7.203 -1.5435 -0.3790  2.2680
    4MOL   C344 1490   1.556   7.012   7.295  0.5627 -0.4337  0.2773
    4MOL   C345 1491   1.675   7.110   7.333 -0.1830 -0.2029 -0.0955
    4MOL   C346 1492   1.641   7.206   7.446 -0.2915  0.0222 -0.3237
    4MOL   C347 1493   1.704   7.338   7.423 -0.3763 -0.0190  0.4776
    4MOL   C348 1494   1.790   7.320   7.296 -0.0620  0.1151 -0.9503
    4MOL   C349 1495   1.725   7.205   7.226  0.3727  0.0763 -0.2150
    4MOL   C350 1496   1.527   6.912   7.417  0.0673  0.3679  0.4235
    4MOL   H351 1497   1.467   7.074   7.278 -0.5621 -2.3695 -1.0240
    4MOL   H352 1498   1.757   7.049   7.371 -0.1370  0.3828  0.7277
    4MOL   H353 1499   1.676   7.161   7.539  0.7767  0.0291 -0.7100
    4MOL   H354 1500   1.535   7.221   7.465  0.1396  4.1541 -0.7049
    4MOL   H355 1501   1.628   7.413   7.402 -1.6249 -1.2045  0.7192
    4MOL   H356 1502   1.766   7.374   7.505 -0.4865 -0.0474  0.5728
    4MOL   H357 1503   1.894   7.298   7.318 -0.1812 -0.0428 -0.5534
    4MOL   H358 1504   1.785   7.414   7.240  3.1864  1.1222  0.3763
    4MOL   H359 1505   1.640   7.242   7.169  0.9809 -0.7126 -1.6631
    4MOL   H360 1506   1.792   7.156   7.154  1.3320 -0.5232  1.0516
    4MOL   H361 1507   1.615   6.908   7.481 -0.1932  1.5003  0.8605
    4MOL   H362 1508   1.516   6.812   7.376 -0.4282  0.5629  0.0701
    4MOL   C363 1509   1.404   6.946   7.504 -0.2797 -0.0386 -0.4320
    4MOL   C364 1510   1.267   6.944   7.438 -0.6056  0.5150  0.3523
    4MOL   C365 1511   1.154   7.025   7.500  0.2361  0.1056  0.0033
    4MOL   C366 1512   1.045   6.985   7.408  0.7019 -0.1993  0.4888
    4MOL   C367 1513   1.070   6.839   7.380  0.0599 -0.6972  0.0345
    4MOL   C368 1514   1.210   6.809   7.417  0.5207 -0.5145 -0.2340
    4MOL   C369 1515   1.408   6.867   7.635  0.2325 -0.0795 -0.2456
    4MOL   H370 1516   1.416   7.049   7.536 -1.1505 -0.5630  1.6349
    4MOL   H371 1517   1.271   6.988   7.338 -1.0608  1.5650  0.8008
    4MOL   H372 1518   1.124   7.006   7.603 -0.2889  1.6424  0.1488
    4MOL   H373 1519   1.178   7.131   7.498 -0.0284  0.1878  0.9454
    4MOL   H374 1520   0.945   6.996   7.450  1.2134 -0.8264  1.9080
    4MOL   H375 1521   1.037   7.038   7.313 -1.8075 -2.2182 -0.4782
    4MOL   H376 1522   0.997   6.774   7.429 -0.5749  0.4060  0.5833
    4MOL   H377 1523   1.062   6.829   7.272  2.9830 -1.9483 -0.0924
    4MOL   H378 1524   1.267   6.762   7.337  0.3864  0.9183 -1.1957
    4MOL   H379 1525   1.211   6.748   7.507 -1.1978 -2.5311 -1.5237
    4MOL   H380 1526   1.411   6.762   7.606 -0.2218  0.0813 -0.8775
    4MOL   H381 1527   1.332   6.907   0.013 -0.8358  0.1615 -1.5837
    4MOL   H382 1528   1.497   6.891   0.005  0.6137  0.6744 -1.1173
    5MOL     C1 1529   1.726   5.045   6.547  0.5398  0.2105  0.2889
    5MOL     C2 1530   1.860   5.050   6.483  0.6230 -0.5522  0.1317
    5MOL     C3 1531   1.883   4.933   6.383  1.0180 -0.2317  0.3165
    5MOL     C4 1532   1.991   4.848   6.449 -0.2122 -0.2159  0.0774
    5MOL     C5 1533   2.083   4.948   6.525  0.1110  0.2942 -0.0054
    5MOL     C6 1534   1.976   5.038   6.589 -0.6580 -0.2950  0.8062
    5MOL     C7 1535   1.609   5.089   6.453  0.2246 -0.6926 -0.4531
    5MOL     H8 1536   1.708   4.941   6.574 -1.0319  0.8040  1.6897
    5MOL     H9 1537   1.881   5.146   6.435 -1.5547 -0.5071 -0.7952
    5MOL    H10 1538   1.800   4.870   6.349  0.5808 -0.1708  1.2542
    5MOL    H11 1539   1.924   4.980   6.293 -0.4341 -0.4082 -0.4475
    5MOL    H12 1540   1.947   4.785   6.527 -1.0013  1.6335  1.1648
    5MOL    H13 1541   2.037   4.779   6.378  0.4837  0.9730 -0.6258
    5MOL    H14 1542   2.150   4.900   6.596  0.8539 -0.7125 -1.3461
    5MOL    H15 1543   2.138   5.004   6.449 -1.5208 -0.3407 -1.6985
    5MOL    H16 1544   2.015   5.133   6.624  1.7298 -0.2031 -1.8951
    5MOL    H17 1545   1.933   4.995   6.680 -1.6691  0.2754  0.5961
    5MOL    H18 1546   1.640   5.162   6.378  1.6344  1.3231  1.9888
    5MOL    H19 1547   1.587   5.005   6.387  0.2033 -1.8084  0.9457
    5MOL    H20 1548   1.716   5.110   6.635  0.9021 -0.0330  0.5096
    5MOL    C21 1549   1.483   5.141   6.534  0.0737 -0.6855  0.2130
    5MOL    C22 1550   1.414   5.045   6.637  0.0500 -0.9653  0.6908
    5MOL    C23 1551   1.378   4.914   6.563  0.1222 -0.1043  0.2565
    5MOL    C24 1552   1.261   4.849   6.637  0.1590  0.4052  0.3821
    5MOL    C25 1553   1.204   4.951   6.725  0.0403 -0.0605 -0.2447
    5MOL    C26 1554   1.283   5.084   6.706  0.3089 -0.2961  0.2834
    5MOL    C27 1555   1.516   5.282   6.599 -0.3964 -0.2576  0.9656
    5MOL    H28 1556   1.406   5.170   6.462 -1.0760 -0.0011  1.6783
    5MOL    H29 1557   1.485   5.023   6.717 -0.1156  0.3164  1.1902
    5MOL    H30 1558   1.464   4.850   6.579  1.8292  2.5638  2.3923
    5MOL    H31 1559   1.355   4.923   6.457 -1.3545 -1.6945  0.4240
    5MOL    H32 1560   1.189   4.801   6.570 -0.7603 -0.9534  2.2982
    5MOL    H33 1561   1.295   4.776   6.710  1.8911 -0.3135 -1.1179
    5MOL    H34 1562   1.222   4.931   6.830 -1.6830  0.4423  0.1640
    5MOL    H35 1563   1.098   4.969   6.705 -0.0755 -0.5374 -0.0450
    5MOL    H36 1564   1.298   5.137   6.801  1.4273  1.0401 -0.6173
    5MOL    H37 1565   1.219   5.152   6.651  0.6058 -0.6742 -0.5306
    5MOL    H38 1566   1.536   5.262   6.704  0.9605  0.3995  0.8366
    5MOL    H39 1567   1.596   5.329   6.542 -1.3838  0.7599  0.3737
    5MOL    C40 1568   1.410   5.397   6.600 -0.1009 -0.6001  0.1401
    5MOL    C41 1569   1.439   5.496   6.721 -0.2389  0.3268 -0.7119
    5MOL    C42 1570   1.422   5.430   6.858  0.2738 -0.7052  0.2616
    5MOL    C43 1571   1.388   5.555   6.949  0.3637 -0.1106  0.4654
    5MOL    C44 1572   1.306   5.654   6.861 -0.4365  0.4085 -0.2631
    5MOL    C45 1573   1.333   5.596   6.727  0.4339  0.1006 -0.4764
    5MOL    C46 1574   1.414   5.468   6.460  0.4270  0.3781  0.4245
    5MOL    H47 1575   1.313   5.353   6.622  0.5913 -2.3980 -0.3234
    5MOL    H48 1576   1.536   5.543   6.702 -0.4708  0.4777 -1.5869
    5MOL    H49 1577   1.509   5.371   6.886 -0.4201 -0.9897  1.9125
    5MOL    H50 1578   1.336   5.363   6.855  0.3707 -0.7883 -0.5567
    5MOL    H51 1579   1.476   5.598   6.997 -0.6206  2.0098  0.4159
    5MOL    H52 1580   1.328   5.510   7.028 -1.7069  1.3191 -0.2473
    5MOL    H53 1581   1.199   5.653   6.883 -0.8113  0.8483 -1.9496
    5MOL    H54 1582   1.359   5.749   6.867  2.1217 -1.1727  3.4017
    5MOL    H55 1583   1.239   5.548   6.700 -0.5727  0.6682  1.8464
    5MOL    H56 1584   1.356   5.669   6.650 -0.8931  2.3208  1.1714
    5MOL    H57 1585   1.485   5.551   6.463  0.8126  0.0968 -0.6026
    5MOL    H58 1586   1.459   5.397   6.390  0.3479 -0.5064  1.2574
    5MOL    C59 1587   1.277   5.529   6.407  0.1532 -0.0441  0.5894
    5MOL    C60 1588   1.287   5.614   6.271  0.2223 -0.2783  0.2980
    5MOL    C61 1589   1.332   5.536   6.146  0.2851 -0.6604  0.4496
    5MOL    C62 1590   1.389   5.640   6.044 -0.1179  0.3642 -0.3290
    5MOL    C63 1591   1.391   5.772   6.124  0.3064 -0.5854 -0.0082
    5MOL    C64 1592   1.384   5.736   6.271  0.8998  0.1756  0.6283
    5MOL    C65 1593   1.178   5.403   6.383  0.1534 -0.2585 -0.1982
    5MOL    H66 1594   1.230   5.594   6.480 -1.1012  0.1481 -0.3766
    5MOL    H67 1595   1.186   5.652   6.264 -0.4385 -1.7339  1.5705
    5MOL    H68 1596   1.263   5.469   6.095  3.7488 -3.8706 -0.2202
    5MOL    H69 1597   1.418   5.473   6.169  1.7128  1.2010  0.3981
    5MOL    H70 1598   1.329   5.640   5.953 -0.3057  0.6352 -0.2061
    5MOL    H71 1599   1.493   5.627   6.016  0.5053 -1.9065  2.8221
    5MOL    H72 1600   1.298   5.826   6.108  0.8526  0.9050  1.7199
    5MOL    H73 1601   1.472   5.838   6.095 -0.1213 -0.6457 -1.3869
    5MOL    H74 1602   1.482   5.705   6.307  0.6877 -0.2142  0.8670
    5MOL    H75 1603   1.352   5.818   6.335  2.0928  0.7911  0.4566
    5MOL    H76 1604   1.168   5.348   6.476  0.7013 -1.9781 -1.1278
    5MOL    H77 1605   1.228   5.340   6.310  1.5012 -0.3921  0.8204
    5MOL    C78 1606   1.040   5.436   6.332  0.5123  0.1998  0.5017
    5MOL    C79 1607   0.974   5.304   6.273  1.2177 -0.1920 -0.1857
    5MOL    C80 1608   0.940   5.190   6.374  0.4910 -0.0122  0.5534
    5MOL    C81 1609   1.013   5.063   6.308 -0.7413  0.2545 -0.3445
    5MOL    C82 1610   1.111   5.114   6.205  0.5990 -0.3913 -0.4040
    5MOL    C83 1611   1.042   5.247   6.150  0.3530  0.3784  0.3744
    5MOL    C84 1612   0.954   5.503   6.443  0.2143 -0.3025  0.6967
    5MOL    H85 1613   1.034   5.502   6.246 -0.9559  1.0187  1.2284
    5MOL    H86 1614   0.876   5.335   6.236  1.4349  0.0295 -0.5827
    5MOL    H87 1615   0.835   5.181   6.400  0.2848 -0.1216 -0.2864
    5MOL    H88 1616   1.003   5.217   6.459 -0.9932 -0.6857  1.8835
    5MOL    H89 1617   0.953   5.000   6.243  0.5857  0.6690 -2.0217
    5MOL    H90 1618   1.066   4.996   6.376  2.0958  2.3755 -0.3594
    5MOL    H91 1619   1.207   5.143   6.247 -0.3877  1.3385  0.6939
    5MOL    H92 1620   1.120   5.040   6.124  0.8975  2.5900 -3.2020
    5MOL    H93 1621   1.116   5.306   6.096  1.3724 -2.5185 -1.4863
    5MOL    H94 1622   0.970   5.222   6.071  0.4935 -0.9837  0.6641
    5MOL    H95 1623   1.017   5.586   6.473  0.5420 -0.1898 -0.2636
    5MOL    H96 1624   0.936   5.449   6.536  1.1172 -1.4626  0.2135
    5MOL    C97 1625   0.810   5.565   6.412 -0.5833 -0.5966 -0.4775
    5MOL    C98 1626   0.686   5.472   6.428  0.2315 -0.1184 -0.2143
    5MOL    C99 1627   0.679   5.405   6.569 -0.8452 -0.5480 -0.7142
    5MOL   C100 1628   0.526   5.404   6.614 -0.3461  0.3611 -0.2118
    5MOL   C101 1629   0.456   5.474   6.498 -0.0191  0.1488  0.0804
    5MOL   C102 1630   0.548   5.549   6.406 -0.6250 -0.2012 -0.5719
    5MOL   C103 1631   0.803   5.647   6.285  0.7615  0.2683  0.3676
    5MOL   H104 1632   0.794   5.639   6.490  1.5546 -2.2570  1.6144
    5MOL   H105 1633   0.683   5.388   6.358  2.0073 -1.6807  1.5129
    5MOL   H106 1634   0.742   5.315   6.573 -0.1282 -0.0319 -0.0319
    5MOL   H107 1635   0.736   5.476   6.630  0.2223 -0.7234 -1.4829
    5MOL   H108 1636   0.510   5.448   6.713  2.2567  1.3958 -0.1974
    5MOL   H109 1637   0.486   5.303   6.620  0.6758 -0.0150  0.4539
    5MOL   H110 1638   0.376   5.538   6.535  1.5634  3.0863 -1.3675
    5MOL   H111 1639   0.400   5.401   6.438 -1.6338  0.9232  0.6276
    5MOL   H112 1640   0.513   5.528   6.305 -0.4004 -1.1437 -0.4584
    5MOL   H113 1641   0.554   5.653   6.438 -1.4599 -0.4085  0.2638
    5MOL   H114 1642   0.838   5.587   6.202  0.2669  0.8037 -0.2330
    5MOL   H115 1643   0.704   5.652   6.241  0.5173 -3.1197  0.3911
    5MOL   C116 1644   0.878   5.785   6.286  0.6403 -0.2362 -0.5471
    5MOL   C117 1645   0.908   5.837   6.134  0.3164  0.4382 -0.2527
    5MOL   C118 1646   0.975   5.972   6.127 -0.2878 -0.7517  0.7728
    5MOL   C119 1647   1.034   5.981   5.983  0.2210 -0.6460 -0.0304
    5MOL   C120 1648   1.037   5.835   5.926 -0.2685  0.5250 -0.2351
    5MOL   C121 1649   0.996   5.746   6.040 -0.4782 -0.1773  0.0862
    5MOL   C122 1650   0.797   5.890   6.371  0.3310  0.1283 -0.0858
    5MOL   H123 1651   0.976   5.764   6.328  1.9405  1.5023 -2.6145
    5MOL   H124 1652   0.807   5.862   6.100  0.0059 -0.6636 -0.1444
    5MOL   H125 1653   0.908   6.057   6.135  2.6388  1.5985  1.2497
    5MOL   H126 1654   1.056   5.984   6.199 -1.8591  1.8616  2.1523
    5MOL   H127 1655   1.121   6.047   5.986 -2.2867  2.7239  2.8095
    5MOL   H128 1656   0.973   6.043   5.917 -0.9956 -1.6945  0.0974
    5MOL   H129 1657   1.132   5.803   5.881  1.6173  1.5499  2.8916
    5MOL   H130 1658   0.964   5.842   5.845 -1.0405  1.1388  0.5115
    5MOL   H131 1659   0.939   5.659   6.005 -0.9615  0.1185  0.1251
    5MOL   H132 1660   1.086   5.709   6.088 -0.0521  1.0613  0.2595
    5MOL   H133 1661   0.726   5.848   6.442 -1.0754  2.0578 -0.2855
    5MOL   H134 1662   0.723   5.939   6.307 -0.4984  0.6273  1.2354
    5MOL   C135 1663   0.879   5.998   6.450 -0.0864  0.3955  0.0820
    5MOL   C136 1664   0.965   5.930   6.562 -0.3139  0.1386 -0.1264
    5MOL   C137 1665   0.892   5.916   6.696  0.5740  0.5126 -0.0259
    5MOL   C138 1666   0.989   5.966   6.808 -0.0883  0.6107 -0.1684
    5MOL   C139 1667   1.128   5.988   6.739 -0.0178  0.1753  0.3392
    5MOL   C140 1668   1.091   6.012   6.592  0.0406 -0.0358 -0.5803
    5MOL   C141 1669   0.795   6.120   6.494  0.4482  0.4224 -0.4063
    5MOL   H142 1670   0.951   6.023   6.373  1.3214 -0.9721  0.9148
    5MOL   H143 1671   1.015   5.836   6.539  0.7809  0.7377 -0.2157
    5MOL   H144 1672   0.791   5.955   6.701  0.2491 -0.3198 -0.1250
    5MOL   H145 1673   0.886   5.808   6.706 -0.7341  0.2913 -2.6307
    5MOL   H146 1674   1.007   5.896   6.889  2.1123 -0.1150 -1.2483
    5MOL   H147 1675   0.953   6.066   6.833  2.5458  1.0411  2.0787
    5MOL   H148 1676   1.189   5.899   6.755  1.0807  0.7497 -0.6164
    5MOL   H149 1677   1.180   6.080   6.767 -1.4785  1.5983 -1.5168
    5MOL   H150 1678   1.067   6.115   6.566 -1.9255 -0.7252 -1.5623
    5MOL   H151 1679   1.179   5.988   6.532 -1.7073 -2.6197 -2.2044
    5MOL   H152 1680   0.839   6.153   6.588  1.5150 -1.0853 -0.3629
    5MOL   H153 1681   0.696   6.086   6.525  1.7051 -1.5227  1.5735
    5MOL   C154 1682   0.814   6.251   6.406 -0.0662 -0.2074 -0.3491
    5MOL   C155 1683   0.690   6.268   6.305  0.2159 -0.1163 -0.6604
    5MOL   C156 1684   0.717   6.336   6.177 -0.4334  0.7514  0.4202
    5MOL   C157 1685   0.575   6.374   6.138 -0.1732  0.1358 -0.2311
    5MOL   C158 1686   0.491   6.393   6.262  0.3081  0.4118 -0.1238
    5MOL   C159 1687   0.584   6.354   6.373 -0.6382 -0.3372  0.3063
    5MOL   C160 1688   0.849   6.383   6.495 -0.3856 -0.1614  0.1417
    5MOL   H161 1689   0.895   6.221   6.339  0.3539 -1.1627  0.5683
    5MOL   H162 1690   0.650   6.169   6.288  0.1567 -0.0154 -1.1117
    5MOL   H163 1691   0.771   6.430   6.187  0.4851  0.2748  0.0711
    5MOL   H164 1692   0.764   6.272   6.102 -1.6764  0.7999 -0.4085
    5MOL   H165 1693   0.577   6.461   6.072  0.9832  0.5920  0.3891
    5MOL   H166 1694   0.537   6.293   6.076  1.5579 -1.1205  0.3189
    5MOL   H167 1695   0.409   6.323   6.270  0.7689  0.0016  1.0241
    5MOL   H168 1696   0.459   6.496   6.280  0.9147  0.7760 -1.0464
    5MOL   H169 1697   0.541   6.292   6.453  3.0132  0.3866  2.9531
    5MOL   H170 1698   0.619   6.445   6.421  1.0040 -1.3008  0.9929
    5MOL   H171 1699   0.771   6.413   6.565  0.0811 -0.1188  0.6463
    5MOL   H172 1700   0.842   6.468   6.427  1.9721  1.3709  1.7633
    5MOL   C173 1701   0.982   6.385   6.568  0.3834  0.0410  0.3531
    5MOL   C174 1702   0.991   6.509   6.657  0.2168 -0.2550 -0.0831
    5MOL   C175 1703   1.111   6.501   6.753 -0.7437 -0.0405  0.0137
    5MOL   C176 1704   1.086   6.602   6.865  0.1846 -0.0286 -0.2059
    5MOL   C177 1705   0.934   6.613   6.879  0.1860  0.4528 -0.0542
    5MOL   C178 1706   0.875   6.525   6.763  0.3452 -0.1299  0.0751
    5MOL   C179 1707   1.104   6.381   6.473  0.2333  0.0359 -0.3376
    5MOL   H180 1708   0.983   6.292   6.623 -1.1023 -0.4910 -0.4874
    5MOL   H181 1709   0.983   6.601   6.599  0.3753  0.3011  0.7765
    5MOL   H182 1710   1.202   6.531   6.700 -1.3160  0.2297 -0.8282
    5MOL   H183 1711   1.117   6.398   6.789  2.4151 -0.1891 -0.8069
    5MOL   H184 1712   1.140   6.590   6.959 -1.9911  1.7979  1.3510
    5MOL   H185 1713   1.118   6.700   6.830 -0.0434  0.7582  1.7154
    5MOL   H186 1714   0.907   6.719   6.881 -0.0177  0.3998 -0.0996
    5MOL   H187 1715   0.891   6.565   6.966 -3.2600  0.6208 -1.5929
    5MOL   H188 1716   0.847   6.423   6.790  1.5721 -1.5910 -3.8007
    5MOL   H189 1717   0.791   6.578   6.719  0.4892  0.8127  0.9374
    5MOL   H190 1718   1.192   6.377   6.537 -0.8068  0.1258  1.1389
    5MOL   H191 1719   1.110   6.281   6.430  1.0450  0.5828 -1.5350
    5MOL   C192 1720   1.122   6.494   6.369 -0.0206 -0.2414  0.2304
    5MOL   C193 1721   1.088   6.441   6.223 -0.4170  0.6602 -1.0260
    5MOL   C194 1722   1.193   6.343   6.161 -0.3801 -0.2835  0.8227
    5MOL   C195 1723   1.193   6.382   6.006 -0.4958  0.2680 -0.2234
    5MOL   C196 1724   1.096   6.494   5.982 -0.2650  0.1285  0.2629
    5MOL   C197 1725   1.072   6.546   6.117  0.5076  0.6154 -0.1528
    5MOL   C198 1726   1.260   6.570   6.380 -0.4742  0.8580  0.6769
    5MOL   H199 1727   1.049   6.572   6.391  1.3572  0.8178  1.1210
    5MOL   H200 1728   0.989   6.395   6.229 -0.1595 -0.0539 -2.2092
    5MOL   H201 1729   1.165   6.244   6.196  0.1744 -0.7902 -0.1481
    5MOL   H202 1730   1.291   6.367   6.201 -0.4073  0.4788  0.4373
    5MOL   H203 1731   1.280   6.436   5.971 -1.7653  1.6214 -1.3426
    5MOL   H204 1732   1.178   6.298   5.939 -1.7338 -0.4752  0.9432
    5MOL   H205 1733   1.000   6.453   5.952 -0.5359  2.4684 -2.3121
    5MOL   H206 1734   1.130   6.570   5.912  1.3140  0.0387  0.9096
    5MOL   H207 1735   0.970   6.585   6.120  0.9685  1.6911  1.8558
    5MOL   H208 1736   1.140   6.628   6.138  1.5031  0.5459 -2.8457
    5MOL   H209 1737   1.330   6.506   6.433  0.3696  1.5870  0.4551
    5MOL   H210 1738   1.301   6.587   6.281  0.7692 -1.6992  0.7286
    5MOL   C211 1739   1.253   6.710   6.441  0.1204  0.7302 -0.1738
    5MOL   C212 1740   1.393   6.761   6.484 -0.0235 -0.8615 -1.0580
    5MOL   C213 1741   1.466   6.678   6.596  0.5456 -0.0118  0.2702
    5MOL   C214 1742   1.616   6.724   6.583 -0.0529  0.0138  0.2970
    5MOL   C215 1743   1.635   6.755   6.439 -0.4929 -0.1227  0.0540
    5MOL   C216 1744   1.500   6.762   6.369  0.1302  0.3847 -0.7182
    5MOL   C217 1745   1.184   6.813   6.344 -0.4347 -0.0835 -0.1326
    5MOL   H218 1746   1.191   6.711   6.531 -1.7800 -0.4451 -1.4303
    5MOL   H219 1747   1.389   6.861   6.528 -1.2673 -2.0293  1.6471
    5MOL   H220 1748   1.418   6.694   6.692 -1.2652 -2.2938 -0.2266
    5MOL   H221 1749   1.469   6.572   6.570 -0.0659  0.5787 -2.3569
    5MOL   H222 1750   1.634   6.814   6.642  1.7211 -0.8211  1.0751
    5MOL   H223 1751   1.693   6.651   6.606 -0.6431 -0.5076  0.6127
    5MOL   H224 1752   1.704   6.681   6.397 -0.9088  0.3608 -1.5436
    5MOL   H225 1753   1.678   6.854   6.427 -1.0727  0.0858 -0.3442
    5MOL   H226 1754   1.493   6.848   6.302  0.5563  1.0957  0.1404
    5MOL   H227 1755   1.492   6.674   6.304 -0.1440  0.5031 -0.8489
    5MOL   H228 1756   1.087   6.776   6.311 -0.1269 -2.2759  1.3442
    5MOL   H229 1757   1.249   6.826   6.257 -0.4590 -2.4852 -0.5301
    5MOL   C230 1758   1.156   6.957   6.398  0.3091  0.3311 -0.1794
    5MOL   C231 1759   1.041   6.959   6.500  0.8412 -0.0078 -0.4112
    5MOL   C232 1760   1.011   7.099   6.559 -0.8914 -0.3552 -0.3269
    5MOL   C233 1761   0.895   7.064   6.655  0.3414 -0.2658  0.8464
    5MOL   C234 1762   0.814   6.963   6.576 -0.0959  0.2768  0.5777
    5MOL   C235 1763   0.904   6.905   6.462  0.4817 -0.0486  0.2556
    5MOL   C236 1764   1.142   7.054   6.274  0.5454  0.2156 -0.1630
    5MOL   H237 1765   1.241   6.999   6.451  0.3269  0.0807 -0.0075
    5MOL   H238 1766   1.072   6.905   6.589  0.5332 -0.0712 -0.3408
    5MOL   H239 1767   1.092   7.137   6.621 -0.1544 -1.6216 -0.4855
    5MOL   H240 1768   0.988   7.171   6.481  0.2098  0.8199  0.4223
    5MOL   H241 1769   0.922   7.007   6.743  0.1656  0.3501  1.3066
    5MOL   H242 1770   0.837   7.151   6.686 -1.6764 -1.1193 -0.4146
    5MOL   H243 1771   0.719   6.989   6.529  0.9228 -0.9841 -2.3138
    5MOL   H244 1772   0.797   6.882   6.647  2.0704 -0.2980  0.4830
    5MOL   H245 1773   0.871   6.956   6.372 -1.8607 -1.5736  0.2297
    5MOL   H246 1774   0.888   6.799   6.446 -0.0721  0.2784 -1.4596
    5MOL   H247 1775   1.092   7.148   6.298 -0.6618 -0.0546 -1.4732
    5MOL   H248 1776   1.071   7.007   6.205 -1.7990  1.6472  1.1852
    5MOL   C249 1777   1.279   7.095   6.205 -0.0982  0.4460 -0.2095
    5MOL   C250 1778   1.317   7.241   6.251 -0.6429 -0.1953  0.1142
    5MOL   C251 1779   1.323   7.265   6.404  0.3216  0.7133 -0.3507
    5MOL   C252 1780   1.315   7.419   6.419 -0.1554  0.8363 -0.2886
    5MOL   C253 1781   1.225   7.467   6.314  0.2773  0.0911  0.1100
    5MOL   C254 1782   1.231   7.362   6.201 -0.4365 -0.4044 -0.5782
    5MOL   C255 1783   1.275   7.088   6.052 -0.6392  0.4435 -0.4935
    5MOL   H256 1784   1.362   7.036   6.243  0.3282  0.3656 -1.2314
    5MOL   H257 1785   1.415   7.258   6.207  0.5746 -0.1660  2.7607
    5MOL   H258 1786   1.404   7.222   6.463 -1.2140 -0.9288  0.6242
    5MOL   H259 1787   1.237   7.212   6.445 -0.3406 -0.1785 -2.8262
    5MOL   H260 1788   1.412   7.454   6.384  0.0214 -0.5284 -1.2308
    5MOL   H261 1789   1.299   7.455   6.521 -2.2155  2.7116 -1.2327
    5MOL   H262 1790   1.254   7.568   6.284  0.3574 -0.0890 -0.4370
    5MOL   H263 1791   1.125   7.479   6.353  0.7172  1.4451  0.8231
    5MOL   H264 1792   1.266   7.395   6.103 -0.0179  0.7372 -0.0533
    5MOL   H265 1793   1.131   7.337   6.165  0.7937 -0.7824 -3.8635
    5MOL   H266 1794   1.187   7.145   6.022 -1.6650 -1.5431 -1.3950
    5MOL   H267 1795   1.360   7.143   6.013  0.7837  0.1695  2.1125
    5MOL   C268 1796   1.274   6.946   5.983  0.5470 -0.6739 -0.3711
    5MOL   C269 1797   1.412   6.894   5.931 -0.3211  0.1064  0.3408
    5MOL   C270 1798   1.437   6.747   5.934  0.0332  0.2841 -0.2388
    5MOL   C271 1799   1.584   6.731   5.919 -0.2967  0.0264  0.1052
    5MOL   C272 1800   1.648   6.841   6.000 -0.0094 -0.4803  0.0120
    5MOL   C273 1801   1.544   6.956   5.994 -0.6219 -0.3029 -0.4598
    5MOL   C274 1802   1.154   6.923   5.892 -0.2798 -0.6907  0.3433
    5MOL   H275 1803   1.248   6.880   6.066  0.8100 -0.3594 -0.0359
    5MOL   H276 1804   1.418   6.929   5.828  2.0023 -0.4521  0.2591
    5MOL   H277 1805   1.415   6.710   6.034  0.5064 -0.5687 -0.4435
    5MOL   H278 1806   1.374   6.694   5.862 -2.2941  1.2959  0.9926
    5MOL   H279 1807   1.627   6.638   5.956  1.2623  0.4782 -0.5314
    5MOL   H280 1808   1.623   6.739   5.817  0.8462  1.0709  0.6144
    5MOL   H281 1809   1.746   6.866   5.960  0.4824 -0.6303  1.1131
    5MOL   H282 1810   1.653   6.799   6.101 -1.0424 -0.3300  0.1340
    5MOL   H283 1811   1.575   7.032   5.922 -1.1559  0.7497  0.4108
    5MOL   H284 1812   1.535   6.986   6.098  2.6678  1.9410 -0.7253
    5MOL   H285 1813   1.058   6.932   5.944 -0.2961 -1.1301  0.3978
    5MOL   H286 1814   1.158   6.814   5.879  0.0678 -0.2595 -3.6336
    5MOL   C287 1815   1.146   7.000   5.756 -0.3752 -0.2805  0.5683
    5MOL   C288 1816   1.108   6.916   5.628 -0.2839 -0.0461  0.3704
    5MOL   C289 1817   1.202   6.811   5.591 -0.0558 -0.4509 -0.4331
    5MOL   C290 1818   1.120   6.688   5.549  0.1974 -0.3557 -0.6756
    5MOL   C291 1819   0.980   6.741   5.535  0.6274  0.2069 -0.2995
    5MOL   C292 1820   0.972   6.852   5.636 -0.7525 -0.3189  0.6451
    5MOL   C293 1821   1.050   7.124   5.768  0.0728  0.2717  0.8101
    5MOL   H294 1822   1.246   7.032   5.728 -0.8628  0.3020 -0.5192
    5MOL   H295 1823   1.117   6.987   5.546  2.1870 -0.4096  0.2901
    5MOL   H296 1824   1.277   6.841   5.517  1.8900  0.3587  1.8173
    5MOL   H297 1825   1.259   6.787   5.681 -0.6524  2.1043  0.6636
    5MOL   H298 1826   1.159   6.635   5.462  0.6378 -1.7401  0.3452
    5MOL   H299 1827   1.126   6.612   5.627  1.1602 -0.2686 -0.6635
    5MOL   H300 1828   0.900   6.668   5.550 -0.8371  2.1058  1.3704
    5MOL   H301 1829   0.971   6.783   5.435 -0.8518 -0.7038 -0.5721
    5MOL   H302 1830   0.943   6.823   5.737 -1.9501  0.9812  0.6915
    5MOL   H303 1831   0.895   6.920   5.597  0.1933  0.1766 -0.3931
    5MOL   H304 1832   1.047   7.148   5.874  0.4146 -1.3654  1.2063
    5MOL   H305 1833   0.947   7.093   5.750  0.0393 -1.4169  3.6274
    5MOL   C306 1834   1.092   7.252   5.689  0.1091 -0.0128  0.8694
    5MOL   C307 1835   0.995   7.372   5.704 -0.8649 -0.1995 -0.4645
    5MOL   C308 1836   0.850   7.353   5.655  0.0251  0.0562  0.0347
    5MOL   C309 1837   0.766   7.448   5.728  0.4408 -0.6011 -0.9097
    5MOL   C310 1838   0.824   7.457   5.867 -0.5140  0.2605  0.2556
    5MOL   C311 1839   0.976   7.431   5.840 -0.0538 -0.2845 -0.2596
    5MOL   C312 1840   1.233   7.308   5.728 -0.0024  0.3358  0.7708
    5MOL   H313 1841   1.091   7.220   5.585 -1.2453 -1.0551  1.1928
    5MOL   H314 1842   1.023   7.445   5.628 -0.9609  2.1303  1.6786
    5MOL   H315 1843   0.806   7.253   5.664 -0.5334  0.5739  3.9447
    5MOL   H316 1844   0.836   7.365   5.548  0.2633  1.5588  0.1646
    5MOL   H317 1845   0.773   7.548   5.685  0.1791  0.8107  2.1751
    5MOL   H318 1846   0.660   7.424   5.723  0.4444 -0.8941  0.3511
    5MOL   H319 1847   0.788   7.377   5.932 -2.0669  2.6778  2.4389
    5MOL   H320 1848   0.797   7.552   5.914  0.6112  0.7862 -0.1354
    5MOL   H321 1849   1.027   7.527   5.852  2.4059 -1.9147  2.7626
    5MOL   H322 1850   1.018   7.362   5.913 -0.1082  0.3696  0.4056
    5MOL   H323 1851   1.283   7.234   5.791  1.7081  0.6675 -0.1796
    5MOL   H324 1852   1.230   7.400   5.787 -0.2878  0.4431  0.5878
    5MOL   C325 1853   1.316   7.345   5.595  0.0034  0.2178 -0.0063
    5MOL   C326 1854   1.363   7.223   5.508 -0.2933 -0.6111 -0.2050
    5MOL   C327 1855   1.477   7.133   5.573  0.0203 -0.1704 -0.4625
    5MOL   C328 1856   1.572   7.095   5.461 -0.1839  0.1409 -0.2250
    5MOL   C329 1857   1.508   7.141   5.330 -0.0194  0.1151  0.6152
    5MOL   C330 1858   1.405   7.249   5.364 -0.0310 -0.5661  0.3510
    5MOL   C331 1859   1.434   7.447   5.626  0.4055 -0.0114  0.0883
    5MOL   H332 1860   1.248   7.395   5.526 -1.9812 -0.3323  1.5077
    5MOL   H333 1861   1.280   7.153   5.500  1.0739 -2.3035  0.1680
    5MOL   H334 1862   1.428   7.045   5.617  0.2306  0.9033  1.9988
    5MOL   H335 1863   1.532   7.170   5.660  0.7442  0.6491 -1.2602
    5MOL   H336 1864   1.587   6.988   5.460 -1.4929 -0.0681  1.1952
    5MOL   H337 1865   1.671   7.134   5.486 -0.3456  0.7432 -0.5171
    5MOL   H338 1866   1.454   7.057   5.286 -1.9723  1.6049  0.1051
    5MOL   H339 1867   1.584   7.171   5.258  1.3270 -2.3149  0.9451
    5MOL   H340 1868   1.327   7.239   5.289  0.0442  0.9114  0.0543
    5MOL   H341 1869   1.439   7.352   5.351 -2.1099  0.2470  1.1475
    5MOL   H342 1870   1.488   7.460   5.532 -0.1167 -0.5678 -0.2926
    5MOL   H343 1871   1.504   7.413   5.703  0.1723 -1.7144 -0.4344
    5MOL   C344 1872   1.394   7.593   5.664 -0.4600  0.7562  0.0507
    5MOL   C345 1873   1.300   7.667   5.564 -0.1787 -0.2817 -0.5379
    5MOL   C346 1874   1.362   0.017   5.432  0.1163  0.3968  0.0681
    5MOL   C347 1875   1.364   0.168   5.424  0.1907 -0.0592  0.5816
    5MOL   C348 1876   1.254   0.211   5.512 -0.4857 -0.8152 -0.2164
    5MOL   C349 1877   1.248   0.107   5.620  0.4028 -0.5600 -0.5841
    5MOL   C350 1878   1.530   7.669   5.688  0.2519 -0.2453  0.2654
    5MOL   H351 1879   1.357   7.589   5.766  0.6700  3.5700  0.6213
    5MOL   H352 1880   1.211   7.613   5.533  0.5476 -1.7814 -0.0439
    5MOL   H353 1881   1.307   7.669   5.346 -2.7385  2.7077  0.8074
    5MOL   H354 1882   1.460   7.660   5.419 -1.1672 -1.7152 -2.3245
    5MOL   H355 1883   1.459   0.206   5.461  0.9530 -2.3995  1.1442
    5MOL   H356 1884   1.349   0.207   5.323  0.1262 -0.7108  0.3370
    5MOL   H357 1885   1.161   0.195   5.456  0.1648 -1.0933 -1.2288
    5MOL   H358 1886   1.252   0.313   5.548 -0.9803 -0.3277 -1.5878
    5MOL   H359 1887   1.301   0.147   5.706  2.0792  0.2038 -1.9220
    5MOL   H360 1888   1.148   0.082   5.653  0.3561  1.6872  1.1038
    5MOL   H361 1889   1.521   0.087   5.677 -0.2633 -0.3523 -0.4474
    5MOL   H362 1890   1.591   7.640   5.602 -0.0422 -0.5893  0.1690
    5MOL   C363 1891   1.597   7.640   5.827  0.2428  0.2797 -0.5556
    5MOL   C364 1892   1.745   0.015   5.831  0.5511  0.1741  0.1132
    5MOL   C365 1893   1.842   7.664   5.718 -0.4248  0.6572 -0.0707
    5MOL   C366 1894   1.980   7.661   5.769  0.6511  0.8897  0.4107
    5MOL   C367 1895   1.976   0.019   5.919  0.0890 -0.9795  0.3029
    5MOL   C368 1896   1.827   7.675   5.957 -0.0655 -0.7287 -0.9293
    5MOL   C369 1897   1.508   7.690   5.948  0.2323  0.6216 -0.0544
    5MOL   H370 1898   1.600   7.533   5.851 -0.2598  0.6332  1.2018
    5MOL   H371 1899   1.736   0.124   5.832 -0.0039  0.1476 -1.0993
    5MOL   H372 1900   1.800   7.566   5.695 -1.5870  0.6955  1.7913
    5MOL   H373 1901   1.833   0.041   5.632  1.2009  0.8060 -0.1387
    5MOL   H374 1902   2.007   7.556   5.756  0.2740  0.5806  1.9520
    5MOL   H375 1903   2.055   0.021   5.709 -1.7690  2.2958 -1.5522
    5MOL   H376 1904   2.043   7.650   5.981 -0.6958  0.5721  2.7086
    5MOL   H377 1905   2.000   0.125   5.915  1.4327 -1.3146 -0.8352
    5MOL   H378 1906   1.795   0.050   6.039 -0.7856 -2.9722  0.6167
    5MOL   H379 1907   1.807   7.574   5.992  0.6741 -0.1327  1.2895
    5MOL   H380 1908   1.553   0.002   6.047 -0.3515  1.6671  0.1888
    5MOL   H381 1909   1.422   7.623   5.956 -1.6453  2.7479 -1.7155
    5MOL   H382 1910   1.467   0.098   5.924 -1.0351 -0.0861 -0.8177
    6MOL     C1 1911   2.061   6.168   4.295 -0.4240  0.3609 -0.3572
    6MOL     C2 1912   2.125   6.085   4.410  0.0438  0.2751  1.2357
    6MOL     C3 1913   2.073   5.937   4.405  0.3359 -0.3462  0.1101
    6MOL     C4 1914   2.073   5.888   4.542 -0.5155  0.5240 -0.1987
    6MOL     C5 1915   2.100   6.009   4.641 -0.4633  1.2318 -0.2594
    6MOL     C6 1916   2.093   6.133   4.554 -0.1298 -0.1836 -0.5048
    6MOL     C7 1917   2.084   6.321   4.313  0.2062 -0.0424 -0.2619
    6MOL     H8 1918   2.098   6.140   4.196  1.3982  0.0164  0.3930
    6MOL     H9 1919   2.230   6.070   4.386 -0.3056 -1.1740  0.5086
    6MOL    H10 1920   1.970   5.956   4.375  0.1856 -1.4249 -0.0876
    6MOL    H11 1921   2.123   5.869   4.336  1.8030 -0.0619  0.8792
    6MOL    H12 1922   1.980   5.839   4.573  0.1987 -0.8596 -0.1847
    6MOL    H13 1923   2.163   5.828   4.560 -0.7829 -0.7347 -2.8641
    6MOL    H14 1924   2.026   6.004   4.720 -0.7907 -0.5395 -0.6490
    6MOL    H15 1925   2.198   5.991   4.685 -1.4218  0.7174  1.6965
    6MOL    H16 1926   2.169   6.207   4.580  0.1369 -0.5090 -0.3598
    6MOL    H17 1927   1.991   6.170   4.555  0.4011  1.3537  1.4283
    6MOL    H18 1928   1.995   6.350   4.369 -0.3611 -0.4269 -0.9493
    6MOL    H19 1929   2.173   6.347   4.370  0.3079  0.1416 -0.5028
    6MOL    H20 1930   1.953   6.165   4.302 -0.4237  0.3954 -0.3383
    6MOL    C21 1931   2.093   6.409   4.179  0.3282 -0.3420  0.1672
    6MOL    C22 1932   2.078   6.560   4.219 -0.0330 -0.7655  0.4480
    6MOL    C23 1933   1.954   6.594   4.303 -0.7608 -0.7641 -0.2384
    6MOL    C24 1934   1.934   6.744   4.270  0.2460 -0.3720 -0.6239
    6MOL    C25 1935   2.015   6.781   4.148  0.9528 -0.2765  0.7724
    6MOL    C26 1936   2.063   6.652   4.098 -0.3477  1.2272 -0.5440
    6MOL    C27 1937   2.220   6.386   4.086  0.6373  0.4034  0.3741
    6MOL    H28 1938   2.007   6.383   4.117  1.0191 -1.0801 -0.4887
    6MOL    H29 1939   2.176   6.589   4.257 -0.6436  1.2128  0.5455
    6MOL    H30 1940   1.960   6.578   4.411 -0.6815 -0.0220 -0.1318
    6MOL    H31 1941   1.868   6.532   4.276 -0.4798 -0.4809 -1.8032
    6MOL    H32 1942   1.827   6.763   4.265  0.2916  0.2252  0.5359
    6MOL    H33 1943   1.955   6.801   4.361 -1.3878 -0.3259 -0.2601
    6MOL    H34 1944   2.100   6.843   4.177 -0.1717  1.8767 -0.4316
    6MOL    H35 1945   1.959   6.839   4.074 -0.4746 -0.2393  1.8843
    6MOL    H36 1946   2.141   6.649   4.022  1.0183  2.1957  0.7891
    6MOL    H37 1947   1.981   6.610   4.040  1.1326 -0.9044 -1.1729
    6MOL    H38 1948   2.296   6.460   4.108  3.2422 -1.3853 -2.1158
    6MOL    H39 1949   2.255   6.290   4.125 -0.3122 -1.1960 -2.5549
    6MOL    C40 1950   2.180   6.354   3.939  0.5905 -0.4832 -0.5390
    6MOL    C41 1951   2.308   6.349   3.839  0.7317  1.2197 -0.0035
    6MOL    C42 1952   2.416   6.242   3.863 -0.0743 -0.4902 -0.3542
    6MOL    C43 1953   2.531   6.293   3.772  0.3840 -0.1208  0.2102
    6MOL    C44 1954   2.509   6.450   3.753 -0.4507 -0.0250  0.1922
    6MOL    C45 1955   2.380   6.482   3.824  0.0233  0.8046 -0.0061
    6MOL    C46 1956   2.096   6.222   3.925 -0.4216 -0.2976  0.2744
    6MOL    H47 1957   2.121   6.440   3.907 -1.8185 -2.4019 -1.3645
    6MOL    H48 1958   2.273   6.324   3.739 -1.0103  1.0821  0.6205
    6MOL    H49 1959   2.381   6.140   3.843  0.9858 -0.6820 -1.2431
    6MOL    H50 1960   2.447   6.248   3.967  3.8873 -0.6872 -1.4440
    6MOL    H51 1961   2.530   6.236   3.678  5.3227 -0.7271  0.3708
    6MOL    H52 1962   2.622   6.267   3.826 -1.6902 -1.9505  2.9376
    6MOL    H53 1963   2.581   6.516   3.801 -0.8129 -0.4118  1.2943
    6MOL    H54 1964   2.500   6.465   3.645 -2.4492  3.1281  0.7506
    6MOL    H55 1965   2.398   6.528   3.921 -0.0452 -0.8025  0.7979
    6MOL    H56 1966   2.321   6.555   3.767  0.2263  0.4465 -0.6823
    6MOL    H57 1967   2.155   6.138   3.961  0.2184 -0.2771 -0.7017
    6MOL    H58 1968   2.014   6.216   3.997 -1.4051 -2.2622 -0.9541
    6MOL    C59 1969   2.038   6.193   3.781 -0.2298  0.0438  0.2272
    6MOL    C60 1970   2.041   6.035   3.763 -0.2427  0.2524  0.9065
    6MOL    C61 1971   2.178   5.972   3.730  0.4141 -0.2749 -0.1501
    6MOL    C62 1972   2.151   5.838   3.666  0.4874  0.2638  0.1710
    6MOL    C63 1973   2.000   5.832   3.636 -0.4915 -0.2161  0.3420
    6MOL    C64 1974   1.951   5.968   3.658  0.3625 -0.9929  1.1773
    6MOL    C65 1975   1.894   6.242   3.768 -0.3930 -0.1680 -0.0644
    6MOL    H66 1976   2.085   6.235   3.692 -1.9100  1.5024  0.0146
    6MOL    H67 1977   2.009   5.993   3.858 -1.0490 -2.3346 -0.4516
    6MOL    H68 1978   2.242   5.962   3.819  0.6977  0.4620 -0.2660
    6MOL    H69 1979   2.227   6.039   3.660 -0.3694  1.7978  1.2407
    6MOL    H70 1980   2.191   5.754   3.723  0.6414 -1.6021 -2.5827
    6MOL    H71 1981   2.216   5.824   3.580 -0.2340 -0.8560 -0.2135
    6MOL    H72 1982   1.944   5.767   3.703 -0.0226 -1.2838 -0.2815
    6MOL    H73 1983   1.976   5.800   3.534  1.4310 -0.5048 -0.0352
    6MOL    H74 1984   1.965   6.031   3.570 -1.5987 -1.9757  0.1083
    6MOL    H75 1985   1.844   5.956   3.675  0.0551 -3.0670 -1.7612
    6MOL    H76 1986   1.831   6.179   3.831 -0.1169  0.7137  1.1127
    6MOL    H77 1987   1.858   6.221   3.668  0.0794  1.1603 -0.5130
    6MOL    C78 1988   1.859   6.392   3.799 -0.1767  0.4976 -0.5548
    6MOL    C79 1989   1.946   6.484   3.707 -0.2814 -0.2744  0.0381
    6MOL    C80 1990   1.935   6.642   3.715  0.0027  0.9616 -0.0390
    6MOL    C81 1991   1.994   6.691   3.578 -0.6444 -0.8033 -0.1256
    6MOL    C82 1992   1.967   6.576   3.477  0.3390 -0.9361  0.7389
    6MOL    C83 1993   1.913   6.459   3.561  0.3390 -0.3107  0.2852
    6MOL    C84 1994   1.703   6.420   3.818 -0.3195  0.3063 -0.0752
    6MOL    H85 1995   1.903   6.421   3.894  1.3740 -2.5459 -0.3019
    6MOL    H86 1996   2.050   6.455   3.722 -0.3028  0.4961  1.8320
    6MOL    H87 1997   1.982   6.686   3.803 -0.3267  2.6092 -0.6682
    6MOL    H88 1998   1.829   6.667   3.717 -0.6034 -1.5240  0.4158
    6MOL    H89 1999   2.101   6.711   3.574 -0.9246  1.0364  1.0546
    6MOL    H90 2000   1.944   6.784   3.550  0.4115 -0.3819 -0.6088
    6MOL    H91 2001   1.909   6.607   3.390 -1.0111 -2.9552  0.8839
    6MOL    H92 2002   2.059   6.540   3.432 -1.0930 -3.1093 -0.5714
    6MOL    H93 2003   1.805   6.463   3.550  0.5293 -1.2506 -2.2006
    6MOL    H94 2004   1.947   6.364   3.520  1.9863  0.3621  0.0356
    6MOL    H95 2005   1.651   6.333   3.779  0.0259 -0.7071  1.6540
    6MOL    H96 2006   1.681   6.512   3.763  2.6606  0.3138 -1.3829
    6MOL    C97 2007   1.666   6.439   3.971 -0.4794 -0.3545  0.8596
    6MOL    C98 2008   1.682   6.301   4.045  0.2004 -0.2184  1.0152
    6MOL    C99 2009   1.664   6.299   4.198 -0.8098  0.0323  0.0964
    6MOL   C100 2010   1.583   6.176   4.231  0.0220  0.1403 -0.3625
    6MOL   C101 2011   1.599   6.089   4.107 -0.7991 -0.5525 -0.3408
    6MOL   C102 2012   1.594   6.188   3.994  0.3108 -0.6379 -0.2844
    6MOL   C103 2013   1.524   6.500   3.993 -0.1525  0.2444  0.6850
    6MOL   H104 2014   1.739   6.503   4.019  0.3913 -1.3688  0.8999
    6MOL   H105 2015   1.781   6.258   4.026 -0.7130 -2.5941  1.3473
    6MOL   H106 2016   1.761   6.302   4.247 -0.7089  2.0119 -0.1924
    6MOL   H107 2017   1.602   6.380   4.234 -1.2416  0.1153 -0.8139
    6MOL   H108 2018   1.480   6.206   4.249  0.4881  1.5181  0.1280
    6MOL   H109 2019   1.621   6.135   4.325  1.3766 -0.4704 -1.1507
    6MOL   H110 2020   1.525   6.010   4.106  1.0861 -2.4983  2.7870
    6MOL   H111 2021   1.692   6.033   4.117  0.0160  0.5724 -1.4916
    6MOL   H112 2022   1.629   6.136   3.905  1.3999 -0.6309  0.1366
    6MOL   H113 2023   1.491   6.213   3.970  0.0417 -1.0450  0.4457
    6MOL   H114 2024   1.482   6.527   3.897 -0.4511 -0.9512  0.4757
    6MOL   H115 2025   1.476   6.413   4.037  0.7993 -0.0551  1.1552
    6MOL   C116 2026   1.491   6.609   4.092  0.7355  0.3142 -0.3639
    6MOL   C117 2027   1.528   6.748   4.041  0.2778 -0.7230 -0.2196
    6MOL   C118 2028   1.491   6.857   4.139  0.0589  0.3556  0.3615
    6MOL   C119 2029   1.617   6.941   4.149  0.4259  0.5066  0.2956
    6MOL   C120 2030   1.683   6.911   4.011 -0.5399 -0.2744 -0.4162
    6MOL   C121 2031   1.670   6.768   3.990 -0.1242  0.5398 -0.2089
    6MOL   C122 2032   1.341   6.597   4.133  0.1669  0.9338  0.1930
    6MOL   H123 2033   1.545   6.590   4.185  0.1094 -1.9399 -0.4120
    6MOL   H124 2034   1.469   6.762   3.950 -0.7332 -0.3492  0.4736
    6MOL   H125 2035   1.402   6.917   4.118 -0.3761 -0.2356  0.5122
    6MOL   H126 2036   1.475   6.819   4.240  0.0526 -0.4501  0.0609
    6MOL   H127 2037   1.680   6.915   4.234  0.2019  0.1344  0.3485
    6MOL   H128 2038   1.586   7.045   4.160 -0.6962  0.2451 -0.2903
    6MOL   H129 2039   1.789   6.936   4.015 -0.7132  0.3217  0.7003
    6MOL   H130 2040   1.640   6.957   3.922  1.7212 -0.4673 -1.6444
    6MOL   H131 2041   1.678   6.747   3.883 -3.1030 -0.0678 -0.3689
    6MOL   H132 2042   1.750   6.723   4.050 -0.7088  1.5213  1.3299
    6MOL   H133 2043   1.285   6.569   4.043 -0.2735  0.4230  0.6206
    6MOL   H134 2044   1.296   6.695   4.145 -0.6062  0.9193 -2.2856
    6MOL   C135 2045   1.299   6.510   4.259  0.1459 -0.5024 -0.0337
    6MOL   C136 2046   1.165   6.434   4.229 -0.0334 -0.3319  0.3904
    6MOL   C137 2047   1.173   6.342   4.104  0.7142 -0.5985 -0.2800
    6MOL   C138 2048   1.047   6.360   4.025  0.5717  0.2681 -0.3295
    6MOL   C139 2049   0.957   6.435   4.109  0.5245  0.3154  0.4011
    6MOL   C140 2050   1.044   6.518   4.204 -0.0593 -0.1470 -0.3722
    6MOL   C141 2051   1.311   6.588   4.386  0.3964 -0.4882  0.5163
    6MOL   H142 2052   1.376   6.433   4.258  0.5896 -0.0684 -1.3582
    6MOL   H143 2053   1.145   6.368   4.314 -1.7487  1.4219  1.3822
    6MOL   H144 2054   1.260   6.356   4.040 -0.0020  0.2283 -1.1028
    6MOL   H145 2055   1.181   6.238   4.134 -3.0196 -0.7810  0.3769
    6MOL   H146 2056   0.990   6.268   4.009 -2.2269  2.2392 -2.1330
    6MOL   H147 2057   1.068   6.408   3.929  0.5975 -0.5174 -0.7249
    6MOL   H148 2058   0.874   6.377   4.149 -0.0314 -0.0969 -1.2923
    6MOL   H149 2059   0.900   6.509   4.052  1.4769  0.8964  0.1849
    6MOL   H150 2060   1.083   6.604   4.150  1.0411  0.2976  1.0958
    6MOL   H151 2061   0.987   6.535   4.295 -0.8105 -3.2767 -0.2031
    6MOL   H152 2062   1.239   6.669   4.377  0.2259 -0.7176 -0.1940
    6MOL   H153 2063   1.401   6.648   4.375  0.6818 -1.5594 -3.3899
    6MOL   C154 2064   1.301   6.505   4.525 -0.8507  0.2780 -0.2988
    6MOL   C155 2065   1.433   6.419   4.543 -0.4980 -0.0298  0.0720
    6MOL   C156 2066   1.438   6.326   4.664 -0.1466 -0.1411 -0.0440
    6MOL   C157 2067   1.576   6.336   4.729  0.2500 -0.1941 -0.3185
    6MOL   C158 2068   1.665   6.400   4.623 -0.1553 -0.7038  0.0951
    6MOL   C159 2069   1.570   6.487   4.538 -0.4683 -0.2767  0.1699
    6MOL   C160 2070   1.259   6.600   4.636 -0.3091  0.3636  0.0119
    6MOL   H161 2071   1.222   6.430   4.518 -1.6253  1.0630  0.0222
    6MOL   H162 2072   1.430   6.345   4.463  1.7287 -0.7233  0.5968
    6MOL   H163 2073   1.370   6.366   4.738  0.4531  0.0987  0.3803
    6MOL   H164 2074   1.411   6.225   4.632  0.1311  0.1469 -1.2115
    6MOL   H165 2075   1.573   6.388   4.826  1.4625 -1.1006  0.2117
    6MOL   H166 2076   1.611   6.234   4.741 -0.0629 -0.2224  0.4159
    6MOL   H167 2077   1.691   6.327   4.547 -0.7153 -1.2458  0.4158
    6MOL   H168 2078   1.754   6.446   4.665  0.9423 -2.6431 -0.0667
    6MOL   H169 2079   1.604   6.489   4.435  2.1165 -0.8549  0.9729
    6MOL   H170 2080   1.567   6.585   4.584 -1.4361 -0.2089 -0.0338
    6MOL   H171 2081   1.268   6.701   4.596  0.1462  0.1299 -0.4771
    6MOL   H172 2082   1.348   6.593   4.698 -0.4743 -0.2116  0.1890
    6MOL   C173 2083   1.133   6.567   4.709 -0.0107  0.6466  1.0296
    6MOL   C174 2084   1.001   6.577   4.627 -0.2941  0.2257  0.5043
    6MOL   C175 2085   0.956   6.717   4.569  0.2009  0.5122 -0.1642
    6MOL   C176 2086   0.804   6.702   4.538 -0.0965 -0.2794 -0.3063
    6MOL   C177 2087   0.762   6.563   4.582 -0.0231 -0.6033  0.7419
    6MOL   C178 2088   0.877   6.511   4.676 -0.4655 -0.0986 -0.1050
    6MOL   C179 2089   1.119   6.661   4.837 -0.2183  0.0933 -0.3625
    6MOL   H180 2090   1.142   6.462   4.737  0.1219 -0.5995 -3.3660
    6MOL   H181 2091   1.019   6.520   4.536  1.2147 -1.7960  2.0205
    6MOL   H182 2092   1.017   6.750   4.485  0.3722 -0.6847 -0.5120
    6MOL   H183 2093   0.960   6.800   4.640 -0.2246  0.3827  0.0097
    6MOL   H184 2094   0.738   6.775   4.585  1.9843  1.9526 -0.7917
    6MOL   H185 2095   0.782   6.709   4.432  0.2332 -2.5112 -0.5566
    6MOL   H186 2096   0.765   6.499   4.494  1.9723  1.4880 -0.7658
    6MOL   H187 2097   0.659   6.554   4.616  0.5967 -1.3569  2.5261
    6MOL   H188 2098   0.852   6.524   4.781 -0.5605  0.3525 -0.1823
    6MOL   H189 2099   0.880   6.403   4.662  0.3941 -0.4515  2.6220
    6MOL   H190 2100   1.118   6.760   4.790  0.2532 -0.1288 -0.8609
    6MOL   H191 2101   1.026   6.648   4.891  0.5000  1.4019  1.2449
    6MOL   C192 2102   1.235   6.668   4.941  0.3033  0.4347  0.3259
    6MOL   C193 2103   1.259   6.527   5.008 -0.0646 -0.2498 -0.2272
    6MOL   C194 2104   1.147   6.486   5.114  0.0444  0.1136 -0.1705
    6MOL   C195 2105   1.224   6.429   5.235  0.4566  0.1619 -0.0064
    6MOL   C196 2106   1.366   6.398   5.188  0.5486 -0.6029  0.3814
    6MOL   C197 2107   1.388   6.504   5.080  0.5589  0.1021  0.1092
    6MOL   C198 2108   1.204   6.779   5.043  0.3960 -0.4284  0.9458
    6MOL   H199 2109   1.325   6.693   4.883 -0.7073  1.5862 -0.7660
    6MOL   H200 2110   1.254   6.445   4.936  1.8146 -0.4507 -0.1504
    6MOL   H201 2111   1.082   6.410   5.072 -0.7054  1.7803 -2.0665
    6MOL   H202 2112   1.076   6.558   5.156  0.3275 -0.7529  1.8628
    6MOL   H203 2113   1.224   6.507   5.312 -0.8968 -0.1367  0.3211
    6MOL   H204 2114   1.174   6.337   5.264 -1.6172  1.0909 -0.5407
    6MOL   H205 2115   1.354   6.295   5.157 -0.1206 -1.3047  2.8553
    6MOL   H206 2116   1.433   6.400   5.274  3.1140 -0.2300 -1.5803
    6MOL   H207 2117   1.473   6.474   5.018  1.5092 -0.7857  1.7977
    6MOL   H208 2118   1.415   6.595   5.133 -0.0139  0.2787  0.0997
    6MOL   H209 2119   1.103   6.750   5.071 -1.5175  1.7510 -3.1917
    6MOL   H210 2120   1.278   6.770   5.122  0.6666  2.3435  1.0878
    6MOL   C211 2121   1.198   6.929   4.996  0.2436 -0.3500  0.0613
    6MOL   C212 2122   1.146   7.019   5.116 -0.2281 -0.4943  0.3203
    6MOL   C213 2123   1.124   7.166   5.081  0.3947  0.2849 -0.7191
    6MOL   C214 2124   1.010   7.226   5.171 -0.2896  0.3634  0.6108
    6MOL   C215 2125   0.948   7.096   5.231 -0.3215  0.2148  0.2916
    6MOL   C216 2126   1.002   6.982   5.155  0.7717 -0.0760  0.1896
    6MOL   C217 2127   1.333   6.980   4.930  0.0525  0.1620 -0.3302
    6MOL   H218 2128   1.119   6.932   4.920  1.5403 -1.6407 -1.3936
    6MOL   H219 2129   1.206   7.008   5.206 -0.0706 -4.0310 -0.1582
    6MOL   H220 2130   1.213   7.226   5.100  0.7794  0.0583 -1.7592
    6MOL   H221 2131   1.107   7.164   4.973 -1.3211 -1.5281 -0.4435
    6MOL   H222 2132   1.054   7.283   5.252  0.6787  1.8398 -0.9225
    6MOL   H223 2133   0.951   7.299   5.115  2.6581  0.2343 -2.8429
    6MOL   H224 2134   0.839   7.100   5.233 -0.3395  0.0234 -0.1405
    6MOL   H225 2135   0.986   7.077   5.331  0.6464 -1.2940 -0.3416
    6MOL   H226 2136   1.001   6.887   5.207  1.0228 -0.7916 -1.0745
    6MOL   H227 2137   0.940   6.964   5.067 -1.2253 -0.3140  1.6096
    6MOL   H228 2138   1.402   6.900   4.903  1.6919  1.8765 -1.3498
    6MOL   H229 2139   1.395   7.030   5.005  0.3215  1.7470 -1.5784
    6MOL   C230 2140   1.323   7.060   4.791  0.2521 -0.2305 -0.3245
    6MOL   C231 2141   1.332   6.963   4.662 -0.0834 -0.4215 -0.2616
    6MOL   C232 2142   1.278   7.022   4.530 -0.2946 -0.4402 -0.3598
    6MOL   C233 2143   1.394   7.039   4.434 -0.9714  0.2535  0.1172
    6MOL   C234 2144   1.520   6.986   4.505  0.0933  0.4007 -0.6094
    6MOL   C235 2145   1.472   6.909   4.626  0.4864  0.4745  1.2830
    6MOL   C236 2146   1.426   7.173   4.781 -0.7966 -0.5690  0.4996
    6MOL   H237 2147   1.225   7.107   4.785 -1.1418 -2.7934  1.3593
    6MOL   H238 2148   1.273   6.879   4.699 -0.4985 -0.3761 -0.8115
    6MOL   H239 2149   1.200   6.957   4.490 -1.0651  0.2484 -0.0103
    6MOL   H240 2150   1.229   7.117   4.549 -1.2576 -0.9300 -0.3400
    6MOL   H241 2151   1.375   6.990   4.339  0.2949 -0.3739  0.1816
    6MOL   H242 2152   1.414   7.144   4.414 -0.7300  0.6952  2.4742
    6MOL   H243 2153   1.583   7.073   4.523  0.3346  0.0094  0.4506
    6MOL   H244 2154   1.582   6.916   4.448  3.2670  1.0089  1.9276
    6MOL   H245 2155   1.552   6.907   4.700  0.0852  2.1071  1.7835
    6MOL   H246 2156   1.468   6.803   4.602 -0.8572  1.0399 -1.0964
    6MOL   H247 2157   1.443   7.186   4.674 -0.2036 -0.1966  0.6364
    6MOL   H248 2158   1.523   7.129   4.806 -0.9776 -0.9615  0.5126
    6MOL   C249 2159   1.406   7.297   4.871 -0.3044  0.0174  1.2128
    6MOL   C250 2160   1.277   7.374   4.835  0.0100  0.3776  0.0272
    6MOL   C251 2161   1.268   7.444   4.696 -0.4078  0.4422  0.8182
    6MOL   C252 2162   1.200   7.577   4.725  0.5486  0.5964  0.3349
    6MOL   C253 2163   1.245   7.616   4.870 -0.4756  0.5602 -0.1706
    6MOL   C254 2164   1.240   7.483   4.943  0.2283 -0.5253  0.2161
    6MOL   C255 2165   1.535   7.382   4.865 -0.4494 -0.4551  0.3137
    6MOL   H256 2166   1.393   7.279   4.978 -2.5786  2.0637  1.3216
    6MOL   H257 2167   1.193   7.306   4.830  0.7938 -0.6713  0.9949
    6MOL   H258 2168   1.211   7.380   4.629  0.4687 -0.3843  0.8489
    6MOL   H259 2169   1.369   7.466   4.661  0.2142 -4.2076 -0.7292
    6MOL   H260 2170   1.092   7.582   4.710  0.4139  1.6074  1.5564
    6MOL   H261 2171   1.232   7.650   4.650 -1.5490  0.4350 -0.7494
    6MOL   H262 2172   1.187   0.003   4.922 -1.4265 -0.5019  0.3551
    6MOL   H263 2173   1.349   7.650   4.870  0.0172 -0.8621 -2.2145
    6MOL   H264 2174   1.141   7.466   4.986 -0.7000  1.4238 -1.0850
    6MOL   H265 2175   1.310   7.488   5.027 -0.1102 -1.5114  0.5733
    6MOL   H266 2176   1.585   7.392   4.769 -1.4045  1.4405 -0.0060
    6MOL   H267 2177   1.521   7.488   4.887  1.3524 -0.3706  1.1685
    6MOL   C268 2178   1.647   7.340   4.969  0.5736  0.4636 -0.0780
    6MOL   C269 2179   1.707   7.467   5.038  0.3344  0.0227  0.6149
    6MOL   C270 2180   1.611   7.543   5.140 -0.4308  0.3175  0.9334
    6MOL   C271 2181   1.690   7.679   5.165 -0.4349 -0.0611  0.7054
    6MOL   C272 2182   1.742   0.021   5.021  0.0246  0.6609  0.1476
    6MOL   C273 2183   1.767   7.580   4.944 -0.3566  0.4232 -0.2729
    6MOL   C274 2184   1.757   7.232   4.922 -0.5990 -0.3336  0.3869
    6MOL   H275 2185   1.594   7.285   5.046 -1.3961  1.1551 -0.9088
    6MOL   H276 2186   1.788   7.428   5.100 -0.9265  0.0876  2.3389
    6MOL   H277 2187   1.516   7.574   5.096  0.5610  0.3049 -1.2926
    6MOL   H278 2188   1.585   7.480   5.225 -0.8655 -0.0556  0.5317
    6MOL   H279 2189   1.627   0.067   5.210 -0.8215 -0.5340  0.9849
    6MOL   H280 2190   1.769   7.645   5.233 -0.4313  0.0065  0.7352
    6MOL   H281 2191   1.828   0.088   5.028  0.2222  0.1220  3.4359
    6MOL   H282 2192   1.667   0.084   4.973  1.1383  2.1443  0.3071
    6MOL   H283 2193   1.873   7.555   4.950 -0.8212 -1.9076 -1.3611
    6MOL   H284 2194   1.730   7.577   4.842 -0.4212 -1.7641 -0.2205
    6MOL   H285 2195   1.834   7.290   4.871 -1.1983  0.4610  0.3804
    6MOL   H286 2196   1.722   7.174   4.837  0.0837  1.3486 -1.0781
    6MOL   C287 2197   1.818   7.145   5.033 -0.4462 -0.5343 -0.1399
    6MOL   C288 2198   1.745   7.010   5.032 -1.0558  0.0943  0.4248
    6MOL   C289 2199   1.772   6.913   4.914 -0.2280  0.3914 -0.2298
    6MOL   C290 2200   1.713   6.776   4.957  0.7082 -0.1562  0.3806
    6MOL   C291 2201   1.698   6.783   5.109  0.2220  0.1430 -0.8619
    6MOL   C292 2202   1.762   6.915   5.153  0.6481  0.6723 -0.3743
    6MOL   C293 2203   1.967   7.147   5.026 -0.0864  0.3915  0.0579
    6MOL   H294 2204   1.780   7.189   5.125 -1.1057  2.9790 -1.9567
    6MOL   H295 2205   1.639   7.032   5.014 -0.5782  0.1243 -2.5209
    6MOL   H296 2206   1.728   6.948   4.821 -0.1111 -0.0148 -0.4392
    6MOL   H297 2207   1.879   6.900   4.904 -0.3606  0.0131 -1.2680
    6MOL   H298 2208   1.623   6.748   4.903  0.3684  0.9093  0.3769
    6MOL   H299 2209   1.787   6.701   4.927 -0.2922 -1.3746  0.9372
    6MOL   H300 2210   1.730   6.688   5.151 -4.9545 -0.4861  2.1345
    6MOL   H301 2211   1.591   6.772   5.125  0.4241 -1.0080 -0.2336
    6MOL   H302 2212   1.865   6.883   5.169  0.6911  1.0851  0.2225
    6MOL   H303 2213   1.714   6.954   5.243 -0.1463 -0.8104 -0.1453
    6MOL   H304 2214   1.999   7.122   4.925  0.0930 -1.6886  0.6013
    6MOL   H305 2215   2.021   7.080   5.093  2.1106  0.1205 -1.9044
    6MOL   C306 2216   2.041   7.283   5.060 -0.8600  0.6230  0.2165
    6MOL   C307 2217   2.020   7.323   5.204  0.0970 -0.5830 -0.1494
    6MOL   C308 2218   2.101   7.248   5.315  0.4176  0.0578 -0.2019
    6MOL   C309 2219   2.089   7.338   5.441  0.1195  0.0901  0.4226
    6MOL   C310 2220   2.041   7.476   5.398  0.6163 -0.7743  0.4465
    6MOL   C311 2221   2.054   7.469   5.244  0.1136  0.5402  0.3964
    6MOL   C312 2222   2.190   7.270   5.023 -0.7070  0.7535 -0.0295
    6MOL   H313 2223   2.002   7.364   4.998  1.0793  0.4475 -1.2757
    6MOL   H314 2224   1.916   7.306   5.230 -0.0227  2.7906  1.8031
    6MOL   H315 2225   2.205   7.250   5.282 -0.1602 -1.5304 -2.2798
    6MOL   H316 2226   2.075   7.146   5.342  2.1344  0.0266  1.4724
    6MOL   H317 2227   2.029   7.288   5.516  2.6614 -2.6899  0.6985
    6MOL   H318 2228   2.187   7.335   5.490 -0.6175 -2.0238  1.8133
    6MOL   H319 2229   2.091   7.558   5.449  1.7467  0.4633 -2.5070
    6MOL   H320 2230   1.934   7.488   5.418  0.5440 -0.7086  0.0269
    6MOL   H321 2231   1.979   7.530   5.194 -0.1063 -0.4674 -0.5045
    6MOL   H322 2232   2.155   7.493   5.210  0.3678 -0.8240  0.1601
    6MOL   H323 2233   2.240   7.182   5.063  3.3210  2.6759 -0.5436
    6MOL   H324 2234   2.247   7.350   5.071  0.9988  0.7016 -1.9394
    6MOL   C325 2235   2.222   7.295   4.874 -0.1576  0.2143  0.4446
    6MOL   C326 2236   2.339   7.201   4.819  0.4904  0.5802 -0.0616
    6MOL   C327 2237   2.299   7.057   4.799  0.1009  0.5254 -0.5182
    6MOL   C328 2238   2.436   6.986   4.790  0.4631 -0.7808  0.4687
    6MOL   C329 2239   2.521   7.052   4.896  0.1404 -0.7629 -0.0377
    6MOL   C330 2240   2.471   7.195   4.905  0.5368 -0.2351 -0.2112
    6MOL   C331 2241   2.251   7.445   4.849  0.6818  0.6207  0.1936
    6MOL   H332 2242   2.137   7.267   4.811 -0.2825  1.4581  0.0477
    6MOL   H333 2243   2.368   7.245   4.724 -1.1343 -2.3461 -2.0049
    6MOL   H334 2244   2.259   7.035   4.700  1.5889 -1.2774 -0.7282
    6MOL   H335 2245   2.231   7.027   4.879  2.0888  0.6211  1.2370
    6MOL   H336 2246   2.475   7.000   4.689 -0.9204 -1.2056 -0.1395
    6MOL   H337 2247   2.425   6.879   4.809 -0.2350 -1.1817 -2.0220
    6MOL   H338 2248   2.624   7.042   4.860  0.6060 -1.2315  1.3942
    6MOL   H339 2249   2.530   7.008   4.995  0.6825  0.7144  0.5820
    6MOL   H340 2250   2.544   7.263   4.860  1.8746 -1.2760  0.3636
    6MOL   H341 2251   2.452   7.231   5.006 -0.1899  3.1520 -1.4862
    6MOL   H342 2252   2.357   7.465   4.866  1.1335 -1.2662 -0.3341
    6MOL   H343 2253   2.207   7.511   4.924 -0.1383  1.0912 -0.6917
    6MOL   C344 2254   2.216   7.494   4.706 -0.0042  0.1698  0.1706
    6MOL   C345 2255   2.299   7.623   4.670  0.4110 -0.6705  0.7118
    6MOL   C346 2256   2.264   0.013   4.536 -0.5242  0.3208  0.0192
    6MOL   C347 2257   2.389   0.103   4.517  0.0007  0.2870 -0.0812
    6MOL   C348 2258   2.501   0.000   4.527 -0.0576 -0.1212  0.3538
    6MOL   C349 2259   2.456   7.600   4.642  0.0011  0.4018 -0.3134
    6MOL   C350 2260   2.061   7.507   4.683  0.1695 -0.6030  0.2105
    6MOL   H351 2261   2.250   7.418   4.635 -0.1105  1.2069 -1.0033
    6MOL   H352 2262   2.285   7.689   4.755 -1.0651 -1.6651  1.2602
    6MOL   H353 2263   2.182   0.084   4.528 -1.5844 -1.0291 -1.4573
    6MOL   H354 2264   2.245   7.625   4.461  2.5048 -1.5378  1.1047
    6MOL   H355 2265   2.391   0.149   4.418  0.1970 -0.4943 -0.4430
    6MOL   H356 2266   2.402   0.170   4.602 -1.2035  0.6053 -0.1436
    6MOL   H357 2267   2.594   0.056   4.537 -0.4906  0.5887  0.4922
    6MOL   H358 2268   2.494   7.634   4.433 -0.4226 -0.0407  0.3303
    6MOL   H359 2269   2.467   7.500   4.601  1.7291  0.8032 -0.8946
    6MOL   H360 2270   2.515   7.593   4.734  0.9789 -0.4765 -0.9965
    6MOL   H361 2271   2.041   7.609   4.714  1.9567  0.7582 -2.9029
    6MOL   H362 2272   2.013   7.452   4.764 -0.5478  0.2521  0.3748
    6MOL   C363 2273   1.998   7.468   4.550 -0.8807 -0.1273  0.3132
    6MOL   C364 2274   2.018   7.321   4.499  0.0340 -0.3510 -0.6728
    6MOL   C365 2275   1.976   7.281   4.358 -0.4343 -0.5502 -0.1166
    6MOL   C366 2276   1.936   7.133   4.360 -0.1935 -0.2133 -0.3184
    6MOL   C367 2277   1.945   7.090   4.505 -0.1723  0.3672 -0.1776
    6MOL   C368 2278   1.947   7.214   4.590 -0.1349  0.2725 -0.3846
    6MOL   C369 2279   1.857   7.518   4.556  0.4931  0.1312  0.4450
    6MOL   H370 2280   2.055   7.529   4.480 -0.2862  0.1914  1.0671
    6MOL   H371 2281   2.125   7.298   4.491  0.5811  1.5216  0.8487
    6MOL   H372 2282   1.883   7.336   4.343  0.5613  1.1602 -0.0628
    6MOL   H373 2283   2.052   7.307   4.284 -1.2952  1.4148 -0.3287
    6MOL   H374 2284   1.833   7.122   4.326 -0.2932 -0.3462  0.0258
    6MOL   H375 2285   2.000   7.076   4.293  0.9126  1.9647 -1.1652
    6MOL   H376 2286   1.876   7.008   4.525 -1.0010  1.2293  0.5537
    6MOL   H377 2287   2.047   7.052   4.519  0.3324  2.2775  1.5915
    6MOL   H378 2288   1.998   7.194   4.683  0.3434 -3.1099 -1.2910
    6MOL   H379 2289   1.842   7.241   4.604 -0.5263 -0.3414 -1.9721
    6MOL   H380 2290   1.854   7.625   4.579  0.5711  0.4365 -0.9497
    6MOL   H381 2291   1.802   7.459   4.630  1.1246 -0.1292  0.7061
    6MOL   H382 2292   1.806   7.495   4.462  2.1498 -0.0371 -0.4301
    7MOL     C1 2293   6.671   6.403   7.425  0.3687 -0.2901  0.3759
    7MOL     C2 2294   6.624   6.390   7.282  0.3197 -0.3549 -0.3964
    7MOL     C3 2295   6.479   6.330   7.258  0.0325  0.1453 -0.0353
    7MOL     C4 2296   6.473   6.278   7.111  0.7452  0.1696 -0.1834
    7MOL     C5 2297   6.612   6.309   7.061  0.3544  0.1195 -0.2592
    7MOL     C6 2298   6.703   6.314   7.182 -0.0851  0.2361 -0.0675
    7MOL     C7 2299   6.804   6.494   7.425 -0.1285  0.2128  0.5278
    7MOL     H8 2300   6.596   6.454   7.485  1.2777  0.0771  1.2128
    7MOL     H9 2301   6.613   6.489   7.239  0.8545 -0.5023 -0.8863
    7MOL    H10 2302   6.440   6.249   7.320  3.8148 -1.8215 -0.1059
    7MOL    H11 2303   6.405   6.410   7.262 -1.1146 -0.9035  0.2605
    7MOL    H12 2304   6.454   6.171   7.109  1.1612  0.1045 -0.7833
    7MOL    H13 2305   6.389   6.318   7.054 -0.7079 -0.7185  1.2860
    7MOL    H14 2306   6.645   6.228   6.996  1.3395  2.0771 -2.2729
    7MOL    H15 2307   6.608   6.400   7.002 -0.0427 -0.8436 -1.7468
    7MOL    H16 2308   6.797   6.358   7.146 -0.3554  1.9283  1.2205
    7MOL    H17 2309   6.732   6.216   7.218  0.8246  0.4961 -0.0832
    7MOL    H18 2310   6.871   6.439   7.359 -0.0902 -0.8252  1.4151
    7MOL    H19 2311   6.777   6.588   7.377 -2.2995 -1.8965 -2.5798
    7MOL    H20 2312   6.693   6.305   7.467 -0.4504 -0.3704  0.6135
    7MOL    C21 2313   6.854   6.521   7.566 -0.0326 -0.3505  0.1454
    7MOL    C22 2314   7.011   6.525   7.576  0.4218  0.5298 -0.7044
    7MOL    C23 2315   7.071   6.628   7.486 -0.2424  0.2288  0.1455
    7MOL    C24 2316   7.220   6.593   7.480  0.1049 -0.1937 -0.2174
    7MOL    C25 2317   7.232   6.454   7.540  0.3886 -0.2439 -0.0873
    7MOL    C26 2318   7.091   6.395   7.559 -0.3430  0.0998  0.4730
    7MOL    C27 2319   6.779   6.640   7.643  0.5850  0.7700 -0.0997
    7MOL    H28 2320   6.834   6.426   7.615  0.0902 -0.6163 -0.3066
    7MOL    H29 2321   7.036   6.559   7.677 -0.0374  0.5617 -0.6008
    7MOL    H30 2322   7.046   6.719   7.540 -0.6785 -0.9443  1.9781
    7MOL    H31 2323   7.034   6.625   7.383 -2.6776 -0.7408  1.0308
    7MOL    H32 2324   7.253   6.593   7.376 -2.1766 -1.2680 -0.9719
    7MOL    H33 2325   7.283   6.664   7.534 -0.7874  0.7869 -0.4587
    7MOL    H34 2326   7.276   6.454   7.640 -2.0871 -0.8719  1.0232
    7MOL    H35 2327   7.284   6.382   7.477  1.1076  0.7899 -0.6898
    7MOL    H36 2328   7.086   6.322   7.640  1.0643 -1.1707 -0.5657
    7MOL    H37 2329   7.069   6.338   7.469 -1.6762 -0.8186  1.3504
    7MOL    H38 2330   6.829   6.729   7.605  0.1285  1.4661  0.9080
    7MOL    H39 2331   6.674   6.644   7.614  0.2856 -1.7895  0.5187
    7MOL    C40 2332   6.798   6.658   0.102 -0.6110  0.7311 -0.6267
    7MOL    C41 2333   6.768   6.807   0.145  0.6966 -0.0797 -0.1344
    7MOL    C42 2334   6.632   6.866   0.110  0.0931 -1.3327 -0.0300
    7MOL    C43 2335   6.648   7.017   0.091 -0.0341  0.0737  0.4246
    7MOL    C44 2336   6.787   7.017   0.032  0.3283 -0.1743  0.1886
    7MOL    C45 2337   6.868   6.907   0.090 -0.4927  0.2227 -0.5084
    7MOL    C46 2338   6.731   6.556   0.196  0.6102 -0.2005  0.2358
    7MOL    H47 2339   6.903   6.638   0.121 -1.1565 -0.1729  1.5935
    7MOL    H48 2340   6.774   6.826   0.252 -2.0887  2.0411 -0.2887
    7MOL    H49 2341   6.557   6.850   0.188  1.5971 -1.3736  1.4427
    7MOL    H50 2342   6.596   6.832   0.012  1.3133  2.0174 -1.7117
    7MOL    H51 2343   6.659   7.056   0.192 -1.4231  1.1972  0.1491
    7MOL    H52 2344   6.572   7.072   0.035 -0.8398 -2.2123 -0.7685
    7MOL    H53 2345   6.790   6.994   7.615  0.1572  1.8238 -0.2562
    7MOL    H54 2346   6.828   7.117   0.044 -0.5253  0.0434  1.4125
    7MOL    H55 2347   6.937   6.869   0.015  1.1899  1.7940  0.1989
    7MOL    H56 2348   6.930   6.931   0.177  0.7301 -0.6722 -1.1035
    7MOL    H57 2349   6.628   6.583   0.220  0.9502 -1.3049  3.0493
    7MOL    H58 2350   6.721   6.458   0.148 -2.6617  0.5800 -0.7900
    7MOL    C59 2351   6.805   6.537   0.325 -0.3241 -0.3170 -0.1692
    7MOL    C60 2352   6.709   6.510   0.450 -0.4884 -0.8041  0.0142
    7MOL    C61 2353   6.592   6.408   0.426  0.1528  0.3289 -0.0911
    7MOL    C62 2354   6.489   6.439   0.533 -0.3178 -0.4518  0.3897
    7MOL    C63 2355   6.514   6.580   0.579  0.1218 -0.2727 -0.1550
    7MOL    C64 2356   6.638   6.640   0.505  0.2159 -0.6153  0.3484
    7MOL    C65 2357   6.904   6.422   0.312  0.1615  0.5724  0.6549
    7MOL    H66 2358   6.858   6.627   0.356 -1.4428  0.5606 -0.7316
    7MOL    H67 2359   6.769   6.455   0.522  1.1439  0.0727 -0.6458
    7MOL    H68 2360   6.627   6.306   0.440 -1.3828 -0.0013  1.5569
    7MOL    H69 2361   6.548   6.409   0.326 -0.3311  0.7126  0.1246
    7MOL    H70 2362   6.501   6.372   0.618 -0.0963 -0.0696  0.6600
    7MOL    H71 2363   6.384   6.436   0.505 -0.4870 -1.6009  1.1350
    7MOL    H72 2364   6.529   6.567   0.686  0.2498 -1.2655 -0.2946
    7MOL    H73 2365   6.428   6.645   0.562 -1.0480 -1.7133  0.1809
    7MOL    H74 2366   6.600   6.694   0.419  0.8058  0.4957  0.7788
    7MOL    H75 2367   6.708   6.711   0.550  2.2161 -1.5679 -1.1680
    7MOL    H76 2368   6.942   6.412   0.210  0.0888 -2.8425  0.9353
    7MOL    H77 2369   6.852   6.328   0.330 -2.0987  1.1551 -2.4293
    7MOL    C78 2370   7.031   6.436   0.405 -0.3011 -0.2701  0.1396
    7MOL    C79 2371   7.114   6.306   0.407  0.4903 -0.0189  0.3539
    7MOL    C80 2372   7.143   6.236   0.267 -0.0121 -1.0942  0.2270
    7MOL    C81 2373   7.200   6.096   0.310 -0.6066  0.1085 -0.6074
    7MOL    C82 2374   7.134   6.069   0.444  0.4092  0.0745  0.0217
    7MOL    C83 2375   7.067   6.198   0.495  0.4508  0.1549 -0.2805
    7MOL    C84 2376   7.114   6.557   0.361  0.3040  0.6183 -0.1588
    7MOL    H85 2377   7.001   6.451   0.509 -0.1057 -0.2375  0.1908
    7MOL    H86 2378   7.209   6.337   0.450  0.7024 -1.1160  0.7146
    7MOL    H87 2379   7.206   6.292   0.198  1.0429 -1.5646  0.7941
    7MOL    H88 2380   7.057   6.206   0.209  1.9766 -2.3490 -2.1670
    7MOL    H89 2381   7.306   6.115   0.324 -0.8876  2.3181 -1.2323
    7MOL    H90 2382   7.184   6.022   0.232  1.2647  0.3224 -1.2230
    7MOL    H91 2383   7.058   5.994   0.421  0.5003  0.1852 -0.6699
    7MOL    H92 2384   7.204   6.028   0.517  1.6485  0.0167 -1.1824
    7MOL    H93 2385   6.959   6.186   0.479  0.1494  0.2210  1.5956
    7MOL    H94 2386   7.082   6.209   0.602 -0.9014  1.1576 -0.1762
    7MOL    H95 2387   7.052   6.606   0.286  0.3136 -1.2780 -1.4397
    7MOL    H96 2388   7.200   6.506   0.318 -0.7301 -1.2111 -0.0708
    7MOL    C97 2389   7.165   6.646   0.475 -0.0010  0.7802 -0.5036
    7MOL    C98 2390   7.052   6.719   0.560 -0.5084  0.4571  0.1688
    7MOL    C99 2391   7.088   6.749   0.701  0.0976  0.1026 -0.3408
    7MOL   C100 2392   7.015   6.871   0.759 -0.1374 -0.3240  0.2408
    7MOL   C101 2393   6.938   6.917   0.640  0.9180  0.1139 -0.5152
    7MOL   C102 2394   6.992   6.853   0.514 -0.2894  0.1195 -0.2106
    7MOL   C103 2395   7.283   6.744   0.433 -0.5936  0.3926  1.2608
    7MOL   H104 2396   7.194   6.565   0.542  1.8195 -0.1245 -2.3197
    7MOL   H105 2397   6.965   6.654   0.567  1.2455 -1.8016  1.5891
    7MOL   H106 2398   7.059   6.668   0.768 -1.3587  0.0558 -1.0030
    7MOL   H107 2399   7.196   6.756   0.716 -0.0422 -1.0306  1.4165
    7MOL   H108 2400   7.074   6.957   0.790 -2.0743  0.9570  0.5024
    7MOL   H109 2401   6.943   6.851   0.838  0.2028  0.8233  0.8446
    7MOL   H110 2402   6.932   7.026   0.648 -0.9497 -0.0207  0.1798
    7MOL   H111 2403   6.834   6.891   0.655  0.6000  2.1523  1.0216
    7MOL   H112 2404   6.911   6.848   0.441 -0.4658  0.4805 -0.0382
    7MOL   H113 2405   7.070   6.910   0.464  0.8757 -0.3494  1.0579
    7MOL   H114 2406   7.249   6.791   0.340 -1.1390  0.3576  1.4415
    7MOL   H115 2407   7.300   6.827   0.502 -2.6068  1.9425 -0.0389
    7MOL   C116 2408   7.422   6.676   0.400 -0.5571  0.4500  0.1690
    7MOL   C117 2409   7.510   6.765   0.310 -0.3312  0.0547 -0.5307
    7MOL   C118 2410   7.458   6.809   0.173  0.0168  0.0475  0.2732
    7MOL   C119 2411   7.557   6.910   0.124  0.3522  0.5193  0.1389
    7MOL   C120 2412   7.622   6.963   0.248 -0.2454 -0.7499 -0.2730
    7MOL   C121 2413   7.563   6.885   0.372 -0.6024 -0.3725 -0.4752
    7MOL   C122 2414   7.495   6.630   0.530 -0.5203 -0.0996  0.2477
    7MOL   H123 2415   7.407   6.587   0.339 -1.3160 -0.5703  1.7850
    7MOL   H124 2416   7.603   6.708   0.300 -0.5251  0.0942 -2.7900
    7MOL   H125 2417   7.454   6.725   0.104 -2.5614  0.3079  0.0445
    7MOL   H126 2418   7.362   6.861   0.172  1.1213  2.1808  1.5162
    7MOL   H127 2419   7.511   6.988   0.063 -0.6912 -0.4681 -0.3609
    7MOL   H128 2420   7.629   6.868   0.055  0.9096 -1.6605  1.9700
    7MOL   H129 2421   7.611   7.071   0.258  1.9562 -0.5056 -0.3688
    7MOL   H130 2422   0.041   6.954   0.250 -0.2895 -1.3020  3.5497
    7MOL   H131 2423   7.615   6.858   0.464 -0.9788 -0.1756 -0.1985
    7MOL   H132 2424   7.481   6.949   0.407 -1.5146 -0.4643 -2.3789
    7MOL   H133 2425   7.433   6.667   0.612 -0.1089 -0.5472  0.7608
    7MOL   H134 2426   7.581   6.690   0.557  1.1810 -3.0620  1.5764
    7MOL   C135 2427   7.519   6.477   0.536 -0.0325 -0.3365 -0.3288
    7MOL   C136 2428   7.528   6.412   0.676  0.1041  0.3353  0.0605
    7MOL   C137 2429   7.392   6.415   0.746  0.1909 -0.0983  0.0142
    7MOL   C138 2430   7.420   6.466   0.887 -0.2695 -0.1803  0.3235
    7MOL   C139 2431   7.568   6.427   0.906 -0.7330  0.1395 -0.2743
    7MOL   C140 2432   7.625   6.472   0.771  0.0695 -0.6068 -0.3094
    7MOL   C141 2433   7.646   6.450   0.450 -0.3368 -0.2006  0.2003
    7MOL   H142 2434   7.436   6.426   0.487  0.7958 -0.2338 -1.8850
    7MOL   H143 2435   7.546   6.305   0.666 -0.8258  0.3088 -1.5905
    7MOL   H144 2436   7.319   6.478   0.695  0.0459 -0.8012 -0.6775
    7MOL   H145 2437   7.354   6.313   0.742 -0.6135  0.1749  0.6618
    7MOL   H146 2438   7.361   6.428   0.971  1.7038 -0.3274  1.6686
    7MOL   H147 2439   7.395   6.572   0.890 -1.4711 -0.4857  2.2401
    7MOL   H148 2440   7.571   6.318   0.913  0.2286  0.2270  0.9138
    7MOL   H149 2441   7.613   6.468   0.996  1.4774 -0.9784 -0.8323
    7MOL   H150 2442   7.628   6.580   0.761  2.2769 -0.6135 -0.0217
    7MOL   H151 2443   0.036   6.438   0.746  1.0396  1.7012  0.3007
    7MOL   H152 2444   0.047   6.455   0.509 -0.3724 -1.6842  0.4118
    7MOL   H153 2445   7.655   6.523   0.370  0.5882 -1.2572 -0.6808
    7MOL   C154 2446   7.640   6.322   0.370  0.1483  0.1255 -0.1671
    7MOL   C155 2447   7.537   6.329   0.245  0.3653  0.7541 -0.4257
    7MOL   C156 2448   7.509   6.195   0.169 -0.2300 -0.5046  0.8057
    7MOL   C157 2449   7.576   6.192   0.033 -0.0579  0.1655  0.0822
    7MOL   C158 2450   7.657   6.319   0.031  0.4252 -0.0313 -0.4213
    7MOL   C159 2451   7.592   6.418   0.128 -0.3103  0.1060 -1.0284
    7MOL   C160 2452   0.083   6.263   0.323 -0.7428  0.1006 -0.3798
    7MOL   H161 2453   7.595   6.245   0.431  1.0037  0.1524  0.5105
    7MOL   H162 2454   7.439   6.365   0.276  0.6757  1.7746 -0.6114
    7MOL   H163 2455   7.532   6.105   0.225 -1.1862 -0.5296  1.1704
    7MOL   H164 2456   7.402   6.185   0.150  0.4568 -2.4120 -2.4662
    7MOL   H165 2457   7.639   6.103   0.042  0.3259  0.2960 -1.2362
    7MOL   H166 2458   7.506   6.178   7.641  0.3453 -0.6227 -0.1308
    7MOL   H167 2459   7.672   6.355   7.619 -1.0012 -1.1989 -1.0673
    7MOL   H168 2460   0.070   6.288   0.049 -0.6635 -2.1507  2.4436
    7MOL   H169 2461   7.502   6.457   0.080  0.6057  2.4336 -0.9432
    7MOL   H170 2462   7.648   6.509   0.151  1.0572 -0.9405 -0.1403
    7MOL   H171 2463   0.125   6.323   0.241  0.3285 -2.2502 -1.5978
    7MOL   H172 2464   0.062   6.166   0.279 -1.1536 -0.6925  1.5451
    7MOL   C173 2465   0.204   6.232   0.419  0.0318  0.0136  0.0651
    7MOL   C174 2466   0.330   6.176   0.340  0.0769 -0.6031  0.5352
    7MOL   C175 2467   0.400   6.284   0.252  0.0967 -0.5219 -0.3785
    7MOL   C176 2468   0.441   6.206   0.121  0.8732  0.1941 -0.1696
    7MOL   C177 2469   0.334   6.092   0.113  0.5554  0.6825 -0.2865
    7MOL   C178 2470   0.313   6.045   0.258 -0.0309 -0.0997  0.0285
    7MOL   C179 2471   0.163   6.140   0.535  0.5030  0.0815 -0.4284
    7MOL   H180 2472   0.249   6.322   0.461  2.2155 -1.1899  0.3481
    7MOL   H181 2473   0.402   6.145   0.415  1.6718  0.6314 -0.4731
    7MOL   H182 2474   0.492   6.329   0.289  0.4793 -1.5014 -0.1224
    7MOL   H183 2475   0.340   6.373   0.235 -0.1699 -0.0009  2.9988
    7MOL   H184 2476   0.437   6.267   0.030 -2.6684 -1.5958 -1.2932
    7MOL   H185 2477   0.540   6.163   0.133  0.8149  0.3279  0.7644
    7MOL   H186 2478   0.363   6.004   0.056 -1.2334 -1.3889  1.8898
    7MOL   H187 2479   0.242   6.126   0.066  0.9583 -2.0801 -3.2440
    7MOL   H188 2480   0.217   5.995   0.263  0.1932 -0.6929 -1.2503
    7MOL   H189 2481   0.380   5.969   0.299 -1.6649 -1.9112 -0.5680
    7MOL   H190 2482   0.061   6.166   0.566  0.2175 -0.2240 -1.1055
    7MOL   H191 2483   0.149   6.038   0.500 -2.7371 -0.2699  1.6203
    7MOL   C192 2484   0.257   6.134   0.656  0.5079 -0.4110  0.2863
    7MOL   C193 2485   0.211   6.014   0.743  0.2161 -0.0016  0.2745
    7MOL   C194 2486   0.068   6.024   0.795  0.1013 -0.6427 -0.0689
    7MOL   C195 2487   0.065   5.902   0.887 -0.0977  0.0649  0.0417
    7MOL   C196 2488   0.208   5.890   0.948  0.1966  0.3551  0.1621
    7MOL   C197 2489   0.292   5.996   0.874  0.3021  0.2347 -0.3104
    7MOL   C198 2490   0.281   6.269   0.730  0.6953 -0.3552 -1.1196
    7MOL   H199 2491   0.360   6.111   0.626  1.3495  1.3510  1.7226
    7MOL   H200 2492   0.215   5.929   0.675  2.5820 -1.8796  2.7164
    7MOL   H201 2493   7.682   6.006   0.718 -0.0907  1.4342 -0.3841
    7MOL   H202 2494   0.049   6.115   0.852 -0.5349 -0.7759 -0.0582
    7MOL   H203 2495   7.674   5.914   0.959  0.3756  2.9476  0.1144
    7MOL   H204 2496   0.043   5.806   0.841 -2.3436  0.7842 -0.4199
    7MOL   H205 2497   0.243   5.792   0.914 -0.6315  0.6015 -1.4211
    7MOL   H206 2498   0.207   5.887   1.057 -2.1588 -0.1996  0.1665
    7MOL   H207 2499   0.396   5.967   0.863  0.3142  0.9770 -2.5124
    7MOL   H208 2500   0.293   6.089   0.931  0.7550 -0.1567  0.3291
    7MOL   H209 2501   0.212   6.346   0.696  1.7280  1.6461  1.2195
    7MOL   H210 2502   0.261   6.264   0.837 -2.0859  0.0008 -1.5866
    7MOL   C211 2503   0.416   6.332   0.717  0.1392  0.0607 -0.4281
    7MOL   C212 2504   0.415   6.481   0.767 -0.8291  0.4748 -0.5950
    7MOL   C213 2505   0.320   6.587   0.707  0.7530  0.3365  0.0883
    7MOL   C214 2506   0.245   6.645   0.825 -0.1356 -0.4917 -0.0317
    7MOL   C215 2507   0.334   6.625   0.946  0.0207  0.4544  0.1732
    7MOL   C216 2508   0.401   6.492   0.926 -0.2085 -0.2893 -0.1692
    7MOL   C217 2509   0.532   6.249   0.780  0.0230 -0.3739 -0.5360
    7MOL   H218 2510   0.431   6.352   0.611  0.2188  0.5185 -0.3306
    7MOL   H219 2511   0.513   6.527   0.759 -0.9330  1.2663  2.3657
    7MOL   H220 2512   0.370   6.646   0.631  1.6372 -1.7163 -0.9755
    7MOL   H221 2513   0.246   6.537   0.645  1.6088 -1.1598  0.2471
    7MOL   H222 2514   0.228   6.750   0.799 -0.4723 -1.0845 -2.3694
    7MOL   H223 2515   0.149   6.594   0.841 -0.7160 -0.1472 -2.2438
    7MOL   H224 2516   0.281   6.625   1.042  0.3500 -2.1130  0.3716
    7MOL   H225 2517   0.408   6.705   0.949  0.6165 -0.0468 -0.9312
    7MOL   H226 2518   0.497   6.500   0.977  0.7560  2.7496 -2.3880
    7MOL   H227 2519   0.340   6.410   0.966 -1.7844 -0.0342 -1.9732
    7MOL   H228 2520   0.512   6.142   0.785 -1.3857 -0.2251 -2.3775
    7MOL   H229 2521   0.539   6.273   0.886  0.0382  0.2719 -0.6802
    7MOL   C230 2522   0.665   6.274   0.698 -0.8640 -0.0253  0.3961
    7MOL   C231 2523   0.671   6.205   0.560  0.5984 -0.7434  0.3083
    7MOL   C232 2524   0.796   6.235   0.469 -0.1222  0.4727  0.2017
    7MOL   C233 2525   0.855   6.098   0.408  0.1154 -0.2751 -0.0318
    7MOL   C234 2526   0.735   6.000   0.430 -0.6927  0.5105  1.2037
    7MOL   C235 2527   0.682   6.046   0.567 -0.9112 -0.4901 -0.3217
    7MOL   C236 2528   0.799   6.241   0.777 -0.1445 -0.5400 -0.1815
    7MOL   H237 2529   0.668   6.382   0.681 -0.4586 -0.0653  0.2072
    7MOL   H238 2530   0.575   6.229   0.515  0.4168 -0.2046  0.9727
    7MOL   H239 2531   0.761   6.296   0.386 -0.5774 -0.1949 -0.1029
    7MOL   H240 2532   0.866   6.300   0.521 -0.1865  0.4709  0.2918
    7MOL   H241 2533   0.872   6.111   0.301  0.9360  0.1399  0.1443
    7MOL   H242 2534   0.938   6.051   0.462 -2.1853 -1.7155  2.3619
    7MOL   H243 2535   0.773   5.898   0.427 -0.8101  0.4374  1.9594
    7MOL   H244 2536   0.653   6.020   0.361  0.0587  1.3013  0.5204
    7MOL   H245 2537   0.761   6.030   0.641 -0.0897 -1.4381 -1.3794
    7MOL   H246 2538   0.588   6.003   0.602 -1.5825  0.9709 -0.2851
    7MOL   H247 2539   0.884   6.237   0.709 -1.0582 -0.9447 -1.3286
    7MOL   H248 2540   0.795   6.139   0.817  1.4226 -0.4157  0.3112
    7MOL   C249 2541   0.825   6.349   0.888  0.2715  0.6008  0.1258
    7MOL   C250 2542   0.877   6.485   0.831 -0.1488  0.4255 -0.2266
    7MOL   C251 2543   1.009   6.493   0.763  0.6451 -0.4380  0.4212
    7MOL   C252 2544   1.105   6.588   0.838 -0.1442  0.7374 -0.5186
    7MOL   C253 2545   1.017   6.641   0.955 -0.0899  0.1237  0.2441
    7MOL   C254 2546   0.871   6.608   0.924  0.1997  0.3548  0.3924
    7MOL   C255 2547   0.913   6.304   1.010 -0.0970 -0.4306  0.2204
    7MOL   H256 2548   0.725   6.371   0.928  0.4091 -1.1287  1.4727
    7MOL   H257 2549   0.809   6.512   0.750 -1.9507 -2.6281  0.1828
    7MOL   H258 2550   0.993   6.523   0.660 -2.6390  3.9934  2.0504
    7MOL   H259 2551   1.059   6.396   0.759 -0.0865 -0.8092  0.0264
    7MOL   H260 2552   1.139   6.678   0.786  2.4601  0.1358  0.1240
    7MOL   H261 2553   1.203   6.546   0.858 -1.0139 -1.2232 -0.2864
    7MOL   H262 2554   1.031   6.748   0.969  0.0123 -0.1189  2.1273
    7MOL   H263 2555   1.034   6.590   1.050 -1.3801 -1.2368 -0.2448
    7MOL   H264 2556   0.817   6.687   0.872 -0.9302  0.5774  1.8717
    7MOL   H265 2557   0.821   6.595   1.020  0.4995  2.3341  0.8403
    7MOL   H266 2558   1.014   6.301   0.969  0.1648  1.1125  0.7265
    7MOL   H267 2559   0.922   6.382   1.085  0.4412 -2.7901  2.6753
    7MOL   C268 2560   0.890   6.166   1.084 -0.1879  0.3112  0.0697
    7MOL   C269 2561   0.743   6.158   1.132  0.5867 -0.3884  0.0119
    7MOL   C270 2562   0.703   6.256   1.251 -0.2881  0.1816 -0.1568
    7MOL   C271 2563   0.617   6.170   1.350  0.1491 -0.7842 -0.0286
    7MOL   C272 2564   0.570   6.047   1.267  0.4332  0.0993  0.3486
    7MOL   C273 2565   0.684   6.017   1.171  0.2829 -0.3689  0.1219
    7MOL   C274 2566   1.001   6.130   1.184 -0.0253  0.0405  0.4255
    7MOL   H275 2567   0.891   6.082   1.015 -0.3993  0.1615  0.2493
    7MOL   H276 2568   0.686   6.179   1.041 -1.1444  2.0760  1.6042
    7MOL   H277 2569   0.799   6.294   1.284 -0.0030 -0.0959 -0.6624
    7MOL   H278 2570   0.644   6.335   1.203 -0.6779 -0.6254 -1.0201
    7MOL   H279 2571   0.676   6.161   1.441 -1.1627  0.9551  1.0223
    7MOL   H280 2572   0.533   6.233   1.377  0.3763  0.1887 -1.5506
    7MOL   H281 2573   0.482   6.084   1.215  1.6804 -0.0249 -1.8960
    7MOL   H282 2574   0.523   5.967   1.326  0.0836  0.9094  1.1767
    7MOL   H283 2575   0.665   5.970   1.075  2.4506  1.0037 -1.0274
    7MOL   H284 2576   0.755   5.953   1.223 -0.3692  0.1306  1.6578
    7MOL   H285 2577   0.954   6.071   1.263 -0.9080 -0.2186 -0.2929
    7MOL   H286 2578   1.021   6.223   1.238 -0.6147 -0.5051  1.6196
    7MOL   C287 2579   1.135   6.073   1.125  0.1232 -0.4238 -0.1057
    7MOL   C288 2580   1.255   6.153   1.180  0.9913 -0.8937  0.4352
    7MOL   C289 2581   1.274   6.303   1.138 -0.6060 -0.8466 -0.0289
    7MOL   C290 2582   1.369   6.365   1.244 -0.4259  0.2464 -0.2323
    7MOL   C291 2583   1.338   6.290   1.370  1.4309  0.4401 -0.9360
    7MOL   C292 2584   1.276   6.157   1.332  0.5414 -0.6428  0.1711
    7MOL   C293 2585   1.155   5.921   1.139  0.1345  0.4560 -1.5006
    7MOL   H294 2586   1.129   6.105   1.021  0.1653  0.2011  0.0821
    7MOL   H295 2587   1.347   6.110   1.142  1.4557  0.1735  0.3606
    7MOL   H296 2588   1.317   6.311   1.038  0.5576  1.0752  0.5919
    7MOL   H297 2589   1.183   6.361   1.125  0.3499  0.6772 -0.0322
    7MOL   H298 2590   1.473   6.342   1.221 -0.0835  1.6249 -0.1016
    7MOL   H299 2591   1.344   6.471   1.239 -1.7352  0.0844  2.1328
    7MOL   H300 2592   1.255   6.349   1.410  2.4704  0.0428  1.8829
    7MOL   H301 2593   1.411   6.304   1.449 -0.9347  1.8536  1.0768
    7MOL   H302 2594   1.195   6.132   1.400 -0.0241  0.5170 -0.0653
    7MOL   H303 2595   1.329   6.064   1.354 -0.6118 -1.0540  1.3092
    7MOL   H304 2596   1.172   5.925   1.247  0.1518  0.2134 -1.4938
    7MOL   H305 2597   1.250   5.885   1.099  1.3084  0.5277  1.1266
    7MOL   C306 2598   1.044   5.821   1.113  0.2390 -0.2697  0.4667
    7MOL   C307 2599   1.040   5.791   0.958 -0.0929 -0.0483 -0.2421
    7MOL   C308 2600   1.160   5.727   0.888 -0.6425 -0.1269  0.4726
    7MOL   C309 2601   1.101   5.632   0.780 -0.0955 -0.0029  0.5582
    7MOL   C310 2602   0.955   5.668   0.769  0.4323  0.2127  0.4278
    7MOL   C311 2603   0.918   5.720   0.900  0.4057 -0.6511  0.0936
    7MOL   C312 2604   1.067   5.697   1.199  0.1618 -0.0782  0.0604
    7MOL   H313 2605   0.950   5.867   1.142  0.0946  1.0242 -1.9451
    7MOL   H314 2606   1.028   5.890   0.913 -0.4373  0.2311  0.4638
    7MOL   H315 2607   1.228   5.670   0.952 -1.5032 -1.6657  0.0362
    7MOL   H316 2608   1.211   5.804   0.831 -2.5400  0.6961 -0.1483
    7MOL   H317 2609   1.149   5.631   0.682 -0.0193 -0.6600  0.5977
    7MOL   H318 2610   1.101   5.528   0.813 -0.8150 -0.9975 -2.4377
    7MOL   H319 2611   0.906   5.579   0.731 -0.7864  0.8474  0.4702
    7MOL   H320 2612   0.949   5.748   0.694 -1.0073 -0.6043 -0.3544
    7MOL   H321 2613   0.829   5.783   0.902 -0.4812 -1.9009  3.0914
    7MOL   H322 2614   0.892   5.638   0.967 -0.8447  1.0951  1.8207
    7MOL   H323 2615   1.169   5.693   1.236  0.2337 -0.0012 -0.1312
    7MOL   H324 2616   1.044   5.612   1.134  3.1494 -1.3372  0.6005
    7MOL   C325 2617   0.977   5.677   1.320  0.0784 -0.0354  0.1866
    7MOL   C326 2618   0.990   5.793   1.433 -0.5115 -0.0159 -0.4759
    7MOL   C327 2619   1.113   5.796   1.520 -0.4598  0.2508  0.5353
    7MOL   C328 2620   1.060   5.761   1.662 -0.1040  0.0340  0.7071
    7MOL   C329 2621   0.921   5.821   1.667 -0.6033 -0.3022  0.1641
    7MOL   C330 2622   0.867   5.810   1.526 -0.0336 -0.1852 -0.2622
    7MOL   C331 2623   0.986   5.542   1.394 -0.0667  1.0338  0.0367
    7MOL   H332 2624   0.878   5.683   1.276  0.2121  3.1663  0.2094
    7MOL   H333 2625   0.996   5.887   1.378 -2.8077  0.8528  0.6880
    7MOL   H334 2626   1.156   5.893   1.544 -0.9470  0.5286  0.3057
    7MOL   H335 2627   1.191   5.727   1.487 -1.4243 -0.0593 -1.1643
    7MOL   H336 2628   1.124   5.792   1.744  1.5050 -1.3430  0.0074
    7MOL   H337 2629   1.064   5.653   1.651  2.8133  0.0837  0.7024
    7MOL   H338 2630   0.934   5.927   1.687  2.2455 -0.7718  1.0858
    7MOL   H339 2631   0.874   5.768   1.750  1.1284  0.3829  1.6366
    7MOL   H340 2632   0.801   5.891   1.496  0.0132 -0.6456 -1.6462
    7MOL   H341 2633   0.800   5.725   1.524  0.1074 -0.2878 -0.9735
    7MOL   H342 2634   0.908   5.544   1.470 -1.7308  1.3206 -1.6137
    7MOL   H343 2635   1.075   5.536   1.455 -2.0766 -1.4856  2.8812
    7MOL   C344 2636   0.958   5.409   1.313 -0.3517 -0.0101  0.8780
    7MOL   C345 2637   1.086   5.362   1.242 -0.5035 -0.1219  0.3209
    7MOL   C346 2638   1.069   5.270   1.121 -0.6458 -0.1273 -0.4461
    7MOL   C347 2639   1.203   5.192   1.119  0.3098 -0.1916 -0.3509
    7MOL   C348 2640   1.284   5.237   1.244  0.3730 -0.2265 -0.0530
    7MOL   C349 2641   1.169   5.279   1.337  0.3030 -0.3450  0.4241
    7MOL   C350 2642   0.831   5.416   1.219 -0.7280 -0.0342  0.1717
    7MOL   H351 2643   0.943   5.335   1.392  0.4391 -0.3759  0.6946
    7MOL   H352 2644   1.142   5.453   1.222 -0.7769 -0.2998 -1.3536
    7MOL   H353 2645   1.057   5.329   1.031  1.6351  0.5662 -0.3276
    7MOL   H354 2646   0.994   5.191   1.121 -1.2488  0.2922  4.9081
    7MOL   H355 2647   1.180   5.088   1.098 -0.7369  0.0469 -0.4119
    7MOL   H356 2648   1.272   5.212   1.036  1.8462 -0.0341  0.9551
    7MOL   H357 2649   1.345   5.323   1.215  1.0943 -0.6518  0.1794
    7MOL   H358 2650   1.344   5.151   1.274  1.0998 -0.0971 -1.0725
    7MOL   H359 2651   1.117   5.193   1.378  1.4069 -0.5944  1.3133
    7MOL   H360 2652   1.210   5.336   1.421 -1.3506  1.1314  0.2654
    7MOL   H361 2653   0.827   5.326   1.158 -0.2957 -0.3531  0.6129
    7MOL   H362 2654   0.858   5.500   1.155  0.5897 -0.6372 -0.0793
    7MOL   C363 2655   0.695   5.432   1.293  0.8378 -0.0294  0.0960
    7MOL   C364 2656   0.581   5.474   1.194  0.3855 -0.1544  0.1129
    7MOL   C365 2657   0.599   5.617   1.144 -0.5113  0.4001 -0.1169
    7MOL   C366 2658   0.467   5.685   1.117  0.3209 -0.0950  0.1662
    7MOL   C367 2659   0.363   5.606   1.201  0.1116 -0.5337 -0.2480
    7MOL   C368 2660   0.436   5.484   1.259 -0.5595 -0.3770  0.2877
    7MOL   C369 2661   0.664   5.296   1.361  0.0518 -0.2145  0.0282
    7MOL   H370 2662   0.718   5.502   1.374 -1.0186 -2.1502  2.5431
    7MOL   H371 2663   0.573   5.402   1.113  2.4359  0.7179 -0.9193
    7MOL   H372 2664   0.662   5.690   1.196  1.1463 -1.4799  0.5982
    7MOL   H373 2665   0.648   5.614   1.046 -0.1871 -3.6094  0.0705
    7MOL   H374 2666   0.478   5.786   1.157  1.0528 -0.8351  1.8608
    7MOL   H375 2667   0.460   5.691   1.008 -1.8529  0.1908  0.3025
    7MOL   H376 2668   0.317   5.675   1.272 -2.3717  2.0238 -4.1675
    7MOL   H377 2669   0.276   5.579   1.142  0.5229  0.4549 -1.3255
    7MOL   H378 2670   0.376   5.393   1.251 -0.7244 -0.1190 -1.6056
    7MOL   H379 2671   0.445   5.507   1.365  1.4038  0.9190 -0.1469
    7MOL   H380 2672   0.637   5.214   1.294 -3.3744  0.8037  0.0832
    7MOL   H381 2673   0.573   5.312   1.419  1.1146 -2.0650  2.3062
    7MOL   H382 2674   0.740   5.259   1.430 -1.7470 -1.1330  1.5632
    8MOL     C1 2675   0.637   0.436   2.279 -0.5005 -0.0871  0.1439
    8MOL     C2 2676   0.528   0.484   2.377 -0.0846  0.4070  0.3900
    8MOL     C3 2677   0.583   0.552   2.507 -0.3637  0.0073 -0.2712
    8MOL     C4 2678   0.484   0.522   2.618 -0.2815  0.3401  0.3324
    8MOL     C5 2679   0.379   0.427   2.556 -0.4686  0.1209  0.2464
    8MOL     C6 2680   0.445   0.369   2.431 -0.1516 -0.3497  0.2783
    8MOL     C7 2681   0.732   0.552   2.257  0.1737 -0.0829  0.5218
    8MOL     H8 2682   0.696   0.353   2.317  0.4193  0.8409  0.7845
    8MOL     H9 2683   0.465   0.541   2.308 -0.0174  0.0449  0.0290
    8MOL    H10 2684   0.677   0.501   2.527 -0.8205 -1.0807 -0.8445
    8MOL    H11 2685   0.596   0.659   2.490  0.4907 -0.0727 -0.1655
    8MOL    H12 2686   0.532   0.487   2.710 -1.0403  0.2595  0.6983
    8MOL    H13 2687   0.431   0.611   2.650  0.9125  0.6371  1.5624
    8MOL    H14 2688   0.342   0.351   2.625 -0.2754 -1.1972 -1.0601
    8MOL    H15 2689   0.295   0.486   2.519 -2.6933 -1.9150  1.8694
    8MOL    H16 2690   0.376   0.333   2.355 -1.9969  1.4541  1.0468
    8MOL    H17 2691   0.510   0.288   2.464  1.7911  0.9890 -0.1734
    8MOL    H18 2692   0.673   0.644   2.265 -1.3305 -1.0217  0.4259
    8MOL    H19 2693   0.802   0.562   2.340  0.0317 -0.9660  0.7462
    8MOL    H20 2694   0.581   0.399   2.193  1.4827  1.0334 -1.6720
    8MOL    C21 2695   0.804   0.556   2.116 -0.4395  0.0925 -0.6751
    8MOL    C22 2696   0.893   0.683   2.110 -0.0632  0.4455 -0.0685
    8MOL    C23 2697   0.934   0.741   1.976  0.1576  1.4832 -0.2827
    8MOL    C24 2698   1.050   0.832   2.001 -0.4829 -0.1666  0.0755
    8MOL    C25 2699   1.120   0.774   2.127  0.2711  0.4220  0.3836
    8MOL    C26 2700   1.018   0.677   2.196 -0.6224  0.3574 -0.0699
    8MOL    C27 2701   0.885   0.429   2.072 -0.4663  0.1595 -0.6460
    8MOL    H28 2702   0.738   0.582   2.034 -0.9196 -0.2668 -0.4085
    8MOL    H29 2703   0.828   0.766   2.136 -0.6628 -0.0043 -0.0946
    8MOL    H30 2704   0.845   0.779   1.926 -1.9984 -2.4051  0.3864
    8MOL    H31 2705   0.969   0.657   1.915 -1.4212 -0.5536  1.5509
    8MOL    H32 2706   1.113   0.860   1.917 -0.5067  0.9142  0.4084
    8MOL    H33 2707   0.995   0.918   2.040 -1.1585 -1.1040  1.2349
    8MOL    H34 2708   1.154   0.850   2.197  2.3325 -0.7850  0.7133
    8MOL    H35 2709   1.204   0.709   2.102 -0.0687 -0.1387  0.7023
    8MOL    H36 2710   0.995   0.709   2.298 -1.3570  0.8795 -0.3982
    8MOL    H37 2711   1.055   0.575   2.201 -0.2313  0.5254  0.7215
    8MOL    H38 2712   0.973   0.442   2.011  2.3558 -2.4155  2.6449
    8MOL    H39 2713   0.923   0.390   2.167  1.2483 -1.9064 -2.1285
    8MOL    C40 2714   0.815   0.307   2.002  0.8951  0.1245  0.3449
    8MOL    C41 2715   0.773   0.344   1.855  0.2084  0.3671 -0.5951
    8MOL    C42 2716   0.683   0.232   1.796 -0.4029 -0.4251  0.1636
    8MOL    C43 2717   0.716   0.225   1.645  0.4566  0.1893  0.0209
    8MOL    C44 2718   0.865   0.266   1.638  0.6148  0.6547  0.2560
    8MOL    C45 2719   0.896   0.352   1.760  0.2986 -0.4227 -0.7308
    8MOL    C46 2720   0.897   0.174   2.016 -0.2318  0.0817 -0.5347
    8MOL    H47 2721   0.727   0.283   2.062  2.2426 -0.6392  2.0260
    8MOL    H48 2722   0.728   0.444   1.850  3.1363  1.7541 -0.5792
    8MOL    H49 2723   0.579   0.244   1.827 -0.1118  0.1711  0.9335
    8MOL    H50 2724   0.706   0.129   1.826 -1.0446 -1.0679 -1.4649
    8MOL    H51 2725   0.645   0.284   1.588  0.3306  2.7079  2.6708
    8MOL    H52 2726   0.708   0.121   1.612  1.0252  0.8704 -2.3306
    8MOL    H53 2727   0.928   0.177   1.636 -1.6243 -0.9489 -1.7807
    8MOL    H54 2728   0.888   0.320   1.546 -2.0472 -0.5646 -1.1634
    8MOL    H55 2729   0.985   0.318   1.813 -1.3956 -0.4249  2.2022
    8MOL    H56 2730   0.928   0.452   1.730 -1.2383  0.4807  0.6421
    8MOL    H57 2731   0.872   0.103   1.938  2.0769 -1.9051  0.4619
    8MOL    H58 2732   0.998   0.207   1.990  0.7248 -0.9736  1.7032
    8MOL    C59 2733   0.871   0.113   2.154 -0.2632  0.0461 -0.3624
    8MOL    C60 2734   0.748   0.021   2.164  0.4027  0.1385  0.2154
    8MOL    C61 2735   0.703   7.664   2.302 -0.4509 -0.4908 -0.2684
    8MOL    C62 2736   0.635   7.530   2.279 -0.3685  0.0143 -0.0118
    8MOL    C63 2737   0.727   7.469   2.168  0.7789 -0.5954  0.2287
    8MOL    C64 2738   0.763   7.586   2.070  0.2564 -0.4166 -1.0360
    8MOL    C65 2739   0.998   0.049   2.209  0.4355 -0.7525 -0.2898
    8MOL    H66 2740   0.841   0.194   2.221 -1.2078 -1.6520  1.3007
    8MOL    H67 2741   0.665   0.078   2.122  0.8380  0.9861  0.4909
    8MOL    H68 2742   0.632   0.045   2.345 -0.2659  0.3716 -1.3514
    8MOL    H69 2743   0.788   7.653   2.369 -0.9270 -2.0393  0.1069
    8MOL    H70 2744   0.531   7.524   2.247 -0.2379 -0.8173 -0.2937
    8MOL    H71 2745   0.645   7.479   2.375  0.3031 -0.1175 -0.1532
    8MOL    H72 2746   0.671   7.393   2.112  0.4093 -0.5825  0.5770
    8MOL    H73 2747   0.814   7.422   2.214  0.1371  0.5990  2.7701
    8MOL    H74 2748   0.863   7.577   2.026  0.5677  1.2278 -0.7080
    8MOL    H75 2749   0.691   7.579   1.989 -2.7703  0.2393  1.4953
    8MOL    H76 2750   1.047   0.013   2.119 -1.0536 -0.5290 -1.2006
    8MOL    H77 2751   0.982   7.650   2.270  0.0536  1.2688  2.6927
    8MOL    C78 2752   1.093   0.143   2.292 -0.9459 -0.3701 -0.5599
    8MOL    C79 2753   1.038   0.182   2.429  0.0405  0.5426  0.0825
    8MOL    C80 2754   1.050   0.330   2.474 -0.4640  0.1787  0.4177
    8MOL    C81 2755   1.022   0.332   2.619  0.1880  0.4513 -0.3683
    8MOL    C82 2756   1.072   0.205   2.672 -0.2226 -1.0818 -0.1768
    8MOL    C83 2757   1.080   0.101   2.558 -0.1635 -0.1925 -0.1023
    8MOL    C84 2758   1.237   0.102   2.294  0.6387  0.3555 -0.3546
    8MOL    H85 2759   1.083   0.239   2.240  0.8080  1.2311  1.9690
    8MOL    H86 2760   0.931   0.162   2.424  0.1479  0.2261 -1.3311
    8MOL    H87 2761   0.974   0.387   2.419  1.7573  1.9958 -0.8832
    8MOL    H88 2762   1.146   0.377   2.452  0.4801 -2.9141 -2.4515
    8MOL    H89 2763   0.914   0.343   2.627  0.1450 -1.2112  1.8729
    8MOL    H90 2764   1.075   0.417   2.663  1.3834 -0.3330 -0.2722
    8MOL    H91 2765   1.164   0.220   2.729 -0.7345 -2.3860  1.0482
    8MOL    H92 2766   1.005   0.176   2.754 -1.9564  0.5499 -0.9749
    8MOL    H93 2767   1.179   0.057   2.549 -0.0362  0.2481 -0.9717
    8MOL    H94 2768   1.011   0.019   2.576 -0.1407  0.1562  1.6146
    8MOL    H95 2769   1.260   0.068   2.193  1.2056 -0.0108 -0.1005
    8MOL    H96 2770   1.249   0.014   2.357  1.1282  0.7312  0.0784
    8MOL    C97 2771   1.340   0.218   2.330  0.1468 -0.2881 -0.3906
    8MOL    C98 2772   1.336   0.333   2.225  0.0418  0.0738 -0.4852
    8MOL    C99 2773   1.437   0.448   2.241  0.2193  0.3705  0.2468
    8MOL   C100 2774   1.477   0.507   2.103  0.4517  0.2550 -0.0820
    8MOL   C101 2775   1.387   0.431   2.008 -0.4317  0.4378 -0.1843
    8MOL   C102 2776   1.355   0.297   2.075  0.2847  0.2185 -0.4105
    8MOL   C103 2777   1.478   0.158   2.345  0.0505  0.0986 -0.7044
    8MOL   H104 2778   1.310   0.262   2.425  0.9218  1.0494 -0.7400
    8MOL   H105 2779   1.236   0.377   2.238  0.7502  1.3599  0.8287
    8MOL   H106 2780   1.390   0.516   2.312  0.4405 -2.8374  3.6227
    8MOL   H107 2781   1.532   0.427   2.290  1.6191  0.2246 -2.3828
    8MOL   H108 2782   1.583   0.489   2.087  0.7737  1.9090  0.0335
    8MOL   H109 2783   1.457   0.614   2.102  0.4430  0.2528 -0.1865
    8MOL   H110 2784   1.434   0.422   1.910 -1.3471 -0.4883 -0.5383
    8MOL   H111 2785   1.291   0.480   1.990 -0.8592  0.3707  1.8202
    8MOL   H112 2786   1.262   0.250   2.045  0.3456  0.1624 -0.5120
    8MOL   H113 2787   1.431   0.219   2.068 -0.7244 -1.0393  1.9731
    8MOL   H114 2788   1.473   0.061   2.297  1.3466 -1.0681  1.4411
    8MOL   H115 2789   1.552   0.215   2.289 -0.1338  0.1242 -0.9187
    8MOL   C116 2790   1.519   0.136   2.492 -0.4561  0.1865  0.2092
    8MOL   C117 2791   1.617   0.014   2.492 -0.6997  0.1033 -0.0556
    8MOL   C118 2792   1.700   7.685   2.618 -0.3172  0.7745  0.2031
    8MOL   C119 2793   1.747   7.535   2.622  0.2623 -0.7413 -0.4510
    8MOL   C120 2794   1.655   7.459   2.528  0.3630 -0.3728 -0.1854
    8MOL   C121 2795   1.561   7.561   2.461 -0.2472 -0.1186 -0.4093
    8MOL   C122 2796   1.579   0.263   2.547 -0.5444  0.7103  0.0762
    8MOL   H123 2797   1.433   0.101   2.549  2.2294  0.3359  4.5680
    8MOL   H124 2798   1.692   0.030   2.414  1.3094  0.5768  1.8926
    8MOL   H125 2799   1.785   0.063   2.619  0.2732  0.0338  1.2684
    8MOL   H126 2800   1.639   0.004   2.708  0.2062 -2.4260  0.9245
    8MOL   H127 2801   1.748   7.478   2.716  3.2699 -0.8071 -0.4602
    8MOL   H128 2802   1.848   7.535   2.580 -0.0510 -0.0856 -1.2192
    8MOL   H129 2803   1.590   7.402   2.594  1.1119  0.2508  1.1243
    8MOL   H130 2804   1.706   7.384   2.468  0.2456 -1.5147  1.1211
    8MOL   H131 2805   1.548   7.541   2.355  0.8237  0.1410 -0.5924
    8MOL   H132 2806   1.461   7.558   2.504  0.4540 -1.4234  1.1939
    8MOL   H133 2807   1.525   0.349   2.508  0.2303  1.8832  1.5469
    8MOL   H134 2808   1.683   0.281   2.518 -0.4077 -2.3815 -1.5356
    8MOL   C135 2809   1.587   0.290   2.701 -0.6798  0.4122 -0.1843
    8MOL   C136 2810   1.472   0.384   2.744 -0.0163  0.5808 -0.7836
    8MOL   C137 2811   1.502   0.533   2.720  0.0531 -0.1047 -0.1488
    8MOL   C138 2812   1.399   0.592   2.811 -0.2654 -0.5190  0.2682
    8MOL   C139 2813   1.365   0.502   2.928 -0.3139 -0.0848  0.1632
    8MOL   C140 2814   1.411   0.358   2.883  0.1946 -0.1017 -0.0332
    8MOL   C141 2815   1.725   0.337   2.755  0.1187  1.0449 -0.1114
    8MOL   H142 2816   1.572   0.195   2.753 -0.7383  1.3031  1.4675
    8MOL   H143 2817   1.389   0.369   2.674 -0.3378  2.7110 -0.8885
    8MOL   H144 2818   1.598   0.576   2.749  0.2064  0.4363 -1.4041
    8MOL   H145 2819   1.494   0.562   2.615  2.1782  2.3637  0.3111
    8MOL   H146 2820   1.307   0.609   2.756 -1.0135 -2.9381  0.7019
    8MOL   H147 2821   1.437   0.685   2.854  1.5510 -0.4397 -1.4462
    8MOL   H148 2822   1.259   0.487   2.950 -0.0841  0.5224  1.7084
    8MOL   H149 2823   1.418   0.534   3.018 -0.8386  1.2780  0.0032
    8MOL   H150 2824   1.484   0.327   2.958 -0.6557 -0.0128  0.8444
    8MOL   H151 2825   1.333   0.283   2.870  0.9037 -0.9872  0.6714
    8MOL   H152 2826   1.747   0.422   2.691  0.9615 -0.4581 -1.8474
    8MOL   H153 2827   1.800   0.262   2.734  0.9241  1.9180 -0.3661
    8MOL   C154 2828   1.755   0.374   2.899  0.8212 -0.3491  0.4240
    8MOL   C155 2829   1.745   0.261   2.997  0.7742  0.2304  0.3113
    8MOL   C156 2830   1.730   0.313   3.145  0.0387  0.1530 -0.3594
    8MOL   C157 2831   1.778   0.203   3.239 -0.2739  0.0397  0.5789
    8MOL   C158 2832   1.848   0.099   3.151 -0.1964  0.2589 -0.3901
    8MOL   C159 2833   1.846   0.152   3.005  0.2559 -0.1662  0.1124
    8MOL   C160 2834   1.892   0.444   2.909  0.4872  0.2444 -0.3420
    8MOL   H161 2835   1.682   0.447   2.935 -0.9637 -0.7318 -2.2403
    8MOL   H162 2836   1.649   0.211   2.983  0.1998  0.3470  3.5343
    8MOL   H163 2837   1.797   0.397   3.160  1.5927 -0.9143 -1.1223
    8MOL   H164 2838   1.632   0.338   3.185  1.1465  0.2692  2.3317
    8MOL   H165 2839   1.851   0.251   3.305 -0.3036  1.2071 -0.2500
    8MOL   H166 2840   1.691   0.158   3.288  0.1523 -0.3835  0.9592
    8MOL   H167 2841   1.797   0.003   3.145 -1.1157  0.7634 -0.9104
    8MOL   H168 2842   1.949   0.086   3.189 -0.5263  1.3864  0.9255
    8MOL   H169 2843   1.836   0.070   2.934 -0.5667  0.1790 -0.1738
    8MOL   H170 2844   1.951   0.177   2.988  0.0792 -0.0239 -0.8225
    8MOL   H171 2845   1.964   0.369   2.877  0.1290  0.4548 -1.6491
    8MOL   H172 2846   1.927   0.449   3.012  0.4842 -1.2920 -0.2531
    8MOL   C173 2847   1.916   0.570   2.827  0.1890  0.5524  0.0829
    8MOL   C174 2848   2.009   0.539   2.704  0.0109 -0.4734 -0.1484
    8MOL   C175 2849   2.162   0.534   2.727 -0.4447  0.3902  0.2250
    8MOL   C176 2850   2.215   0.526   2.583  0.6942 -0.3303 -1.1888
    8MOL   C177 2851   2.133   0.624   2.500 -0.4906 -0.0647  0.6336
    8MOL   C178 2852   1.997   0.630   2.577  0.0957  0.4628  0.1451
    8MOL   C179 2853   1.964   0.693   2.902  0.2014 -0.0308  1.1912
    8MOL   H180 2854   1.813   0.598   2.804  0.0341 -0.1995 -0.1346
    8MOL   H181 2855   1.978   0.436   2.687 -2.5712 -0.2487  2.8777
    8MOL   H182 2856   2.202   0.447   2.778 -0.2718 -0.2551 -0.9969
    8MOL   H183 2857   2.202   0.625   2.771  0.5307 -0.6434  1.4856
    8MOL   H184 2858   2.320   0.554   2.585  1.5109 -3.2518 -1.1732
    8MOL   H185 2859   2.196   0.421   2.562  0.2699 -0.0676 -2.1419
    8MOL   H186 2860   2.130   0.608   2.393 -1.7257 -0.2941  0.6997
    8MOL   H187 2861   2.174   0.725   2.511  2.1091 -0.5319 -3.8658
    8MOL   H188 2862   1.981   0.735   2.605 -0.3358  0.5075 -0.2600
    8MOL   H189 2863   1.914   0.616   2.508 -0.7678  2.5697  0.7289
    8MOL   H190 2864   2.066   0.674   2.937  0.9934 -1.7603 -1.9289
    8MOL   H191 2865   1.962   0.778   2.833 -0.9242  0.2790  1.5913
    8MOL   C192 2866   1.875   0.732   3.028  0.2827  0.2977  0.9132
    8MOL   C193 2867   1.746   0.818   2.989  0.2509 -0.4403  0.0365
    8MOL   C194 2868   1.766   0.965   2.934  0.4336  0.1664  0.2004
    8MOL   C195 2869   1.655   1.052   2.988 -0.2683 -0.6488 -0.5779
    8MOL   C196 2870   1.556   0.953   3.055  0.3949  0.1119 -0.5369
    8MOL   C197 2871   1.644   0.840   3.101 -0.0762  0.1118 -0.2402
    8MOL   C198 2872   1.969   0.798   3.135  0.2346  0.2886  0.3474
    8MOL   H199 2873   1.838   0.637   3.067  0.7730  0.2543  1.2747
    8MOL   H200 2874   1.697   0.755   2.915 -0.2367 -1.4530  1.1996
    8MOL   H201 2875   1.763   0.971   2.825 -2.1298  0.4481  0.2742
    8MOL   H202 2876   1.863   1.005   2.964  0.8148  0.4254 -1.3254
    8MOL   H203 2877   1.707   1.120   3.055 -2.5627  2.0160 -1.4188
    8MOL   H204 2878   1.607   1.124   2.922 -3.3689  0.5875  2.8769
    8MOL   H205 2879   1.480   0.923   2.982 -2.3825  1.2959  1.7515
    8MOL   H206 2880   1.498   0.995   3.137 -2.4416 -1.4695 -1.6495
    8MOL   H207 2881   1.577   0.757   3.118 -1.0873  0.9791  0.0524
    8MOL   H208 2882   1.700   0.849   3.194  3.6693 -2.5595 -2.1044
    8MOL   H209 2883   2.071   0.807   3.100  0.8827 -1.3357  1.7085
    8MOL   H210 2884   1.930   0.897   3.159 -0.8949  0.2796 -1.3482
    8MOL   C211 2885   1.959   0.721   3.274  0.3662 -0.2318  0.1197
    8MOL   C212 2886   2.037   0.586   3.261  0.3859 -0.1145  0.5678
    8MOL   C213 2887   2.183   0.589   3.232 -0.3371  0.2190  0.1232
    8MOL   C214 2888   2.228   0.446   3.244 -0.8703  0.3494 -0.6526
    8MOL   C215 2889   2.155   0.410   3.378  0.1612  0.3868  0.1981
    8MOL   C216 2890   2.021   0.483   3.385 -0.1922 -0.2165 -0.3077
    8MOL   C217 2891   2.028   0.810   3.382  0.1331 -0.9116  0.2825
    8MOL   H218 2892   1.858   0.689   3.297  0.1616  1.3000  1.4673
    8MOL   H219 2893   1.998   0.529   3.177  0.8777 -0.0757  0.3097
    8MOL   H220 2894   2.199   0.634   3.134  1.4334 -0.3176  0.1560
    8MOL   H221 2895   2.233   0.649   3.308 -0.9602  1.0244 -0.0813
    8MOL   H222 2896   2.188   0.389   3.160 -2.4563 -0.6921  0.7684
    8MOL   H223 2897   2.335   0.428   3.241 -1.3471 -2.9148  0.0412
    8MOL   H224 2898   2.207   0.448   3.465 -2.0917  0.9498  1.3326
    8MOL   H225 2899   2.139   0.302   3.375 -1.2953  0.5803  1.0399
    8MOL   H226 2900   1.935   0.418   3.371  0.2490 -0.8656  0.0094
    8MOL   H227 2901   2.013   0.536   3.480 -0.8440  2.6542 -1.8994
    8MOL   H228 2902   2.097   0.876   3.330  1.9983 -0.8272  2.7371
    8MOL   H229 2903   2.098   0.751   3.441 -0.7437 -1.2349  1.0221
    8MOL   C230 2904   1.936   0.902   3.468 -0.2820  0.5423  0.0244
    8MOL   C231 2905   1.998   1.028   3.533  0.3282 -0.4245  0.2905
    8MOL   C232 2906   2.114   1.004   3.631 -0.0584  0.4561  0.5237
    8MOL   C233 2907   2.172   1.151   3.644 -0.4514  0.3573  0.6299
    8MOL   C234 2908   2.175   1.202   3.502 -0.5232  0.3071 -0.2789
    8MOL   C235 2909   2.046   1.139   3.438  0.3431  0.2255  0.3821
    8MOL   C236 2910   1.868   0.813   3.582 -0.8013 -0.8627 -0.8045
    8MOL   H237 2911   1.870   0.952   3.398  1.1916 -0.9789 -2.5117
    8MOL   H238 2912   1.928   1.078   3.599  0.3068 -1.9030  1.3949
    8MOL   H239 2913   2.078   0.973   3.729  0.8857 -0.5640  0.5598
    8MOL   H240 2914   2.180   0.928   3.590  0.6372  1.5143 -0.3614
    8MOL   H241 2915   2.108   1.215   3.705  0.3226  2.2577 -0.5300
    8MOL   H242 2916   2.273   1.156   3.684  0.2106 -0.3500 -0.9148
    8MOL   H243 2917   2.270   1.165   3.464  0.7588  1.0832  2.0254
    8MOL   H244 2918   2.179   1.311   3.495 -0.4314  0.2997 -0.3450
    8MOL   H245 2919   2.085   1.087   3.351  1.3739  0.9722  0.3829
    8MOL   H246 2920   1.963   1.207   3.418  1.0966  0.7351 -1.0634
    8MOL   H247 2921   1.936   0.792   3.665 -2.4930 -0.4506  0.6906
    8MOL   H248 2922   1.846   0.715   3.541 -2.0038 -1.3835  1.0351
    8MOL   C249 2923   1.732   0.869   3.637 -0.3121 -0.2436 -0.3310
    8MOL   C250 2924   1.691   0.810   3.777  0.3863 -0.1433 -0.1732
    8MOL   C251 2925   1.750   0.899   3.889 -0.1100  0.6761 -0.4525
    8MOL   C252 2926   1.746   0.806   4.005 -0.0999  0.2219 -0.3107
    8MOL   C253 2927   1.803   0.675   3.944 -0.0214  0.5899  0.5133
    8MOL   C254 2928   1.736   0.661   3.801 -0.5704  0.2146 -0.1196
    8MOL   C255 2929   1.619   0.839   3.535  0.4915  0.0795 -0.0980
    8MOL   H256 2930   1.737   0.978   3.637 -1.4613 -0.1816 -0.1465
    8MOL   H257 2931   1.584   0.829   3.779  0.3311 -0.5165  1.8043
    8MOL   H258 2932   1.691   0.990   3.901 -0.0461  0.5561  0.8217
    8MOL   H259 2933   1.853   0.934   3.879  0.1008  0.4383  0.8693
    8MOL   H260 2934   1.643   0.789   4.038  0.2113  2.9104  2.2770
    8MOL   H261 2935   1.795   0.856   4.088 -0.6383  1.1856 -0.5765
    8MOL   H262 2936   1.806   0.595   4.017  0.4422  0.7527  0.6712
    8MOL   H263 2937   1.906   0.697   3.915 -0.7476  0.6980 -2.0989
    8MOL   H264 2938   1.651   0.595   3.815  1.3212 -1.3437  4.9864
    8MOL   H265 2939   1.795   0.607   3.728 -0.0566 -0.6681  0.9353
    8MOL   H266 2940   1.660   0.807   3.439 -0.5184  1.1759 -0.9022
    8MOL   H267 2941   1.574   0.742   3.558 -0.4199  0.1301 -1.6598
    8MOL   C268 2942   1.518   0.951   3.520 -0.6461 -0.1089 -0.7388
    8MOL   C269 2943   1.378   0.907   3.474 -0.0051  0.1255  0.6336
    8MOL   C270 2944   1.303   0.813   3.567 -0.8325  0.1415 -0.3734
    8MOL   C271 2945   1.197   0.747   3.478  0.1531  0.1907 -0.3172
    8MOL   C272 2946   1.254   0.746   3.342  0.5912 -0.3585 -0.0663
    8MOL   C273 2947   1.373   0.838   3.334  0.0234 -0.4554  0.0353
    8MOL   C274 2948   1.569   1.065   3.425  0.0544 -0.5010  0.2927
    8MOL   H275 2949   1.494   0.989   3.619  3.9922 -1.9704  1.2403
    8MOL   H276 2950   1.317   0.998   3.471  0.9233  0.7635  0.7742
    8MOL   H277 2951   1.369   0.749   3.627 -2.2608 -0.0938  0.9778
    8MOL   H278 2952   1.247   0.870   3.641 -0.7455 -1.2308  0.7783
    8MOL   H279 2953   1.166   0.651   3.517 -1.2683  1.4449  1.7305
    8MOL   H280 2954   1.116   0.820   3.484 -1.7067 -2.0197  2.2608
    8MOL   H281 2955   1.173   0.776   3.276  0.4182 -2.0414 -0.6405
    8MOL   H282 2956   1.280   0.645   3.311  0.1334 -0.0630 -1.4180
    8MOL   H283 2957   1.345   0.909   3.256  0.0719  0.2738  0.6884
    8MOL   H284 2958   1.462   0.779   3.309  0.6200  0.1844  0.6450
    8MOL   H285 2959   1.577   1.019   3.327 -0.3496 -1.0617  0.5203
    8MOL   H286 2960   1.676   1.083   3.438  0.8261 -4.3477 -0.0175
    8MOL   C287 2961   1.503   1.201   3.434 -0.2087 -0.2084  0.4769
    8MOL   C288 2962   1.553   1.275   3.565 -0.3265 -0.4032  0.0772
    8MOL   C289 2963   1.707   1.318   3.569  0.2805 -0.3244  0.5426
    8MOL   C290 2964   1.711   1.450   3.644 -0.5230 -0.5183 -0.6231
    8MOL   C291 2965   1.578   1.478   3.697 -0.0389  0.2759 -0.2845
    8MOL   C292 2966   1.482   1.403   3.595  0.6374 -0.4761 -0.1048
    8MOL   C293 2967   1.525   1.273   3.302 -0.4801  0.2103 -0.3800
    8MOL   H294 2968   1.396   1.192   3.448 -0.3074 -0.7401 -0.6209
    8MOL   H295 2969   1.532   1.216   3.654 -0.5835 -0.4415 -0.0068
    8MOL   H296 2970   1.771   1.239   3.610  1.9881 -0.6089 -2.4955
    8MOL   H297 2971   1.744   1.345   3.470  1.5610 -0.7583  0.8927
    8MOL   H298 2972   1.784   1.443   3.724 -0.6177  1.7719 -0.3019
    8MOL   H299 2973   1.737   1.535   3.581 -3.6275  2.2153  1.5731
    8MOL   H300 2974   1.558   1.585   3.697 -0.2017  0.2457 -0.1842
    8MOL   H301 2975   1.564   1.439   3.798  0.4664  0.8624  0.0132
    8MOL   H302 2976   1.483   1.467   3.507  2.9928 -0.5151 -0.1234
    8MOL   H303 2977   1.380   1.389   3.632  0.7852 -2.8866 -0.5087
    8MOL   H304 2978   1.571   1.212   3.225  0.5722 -1.0711  1.2349
    8MOL   H305 2979   1.584   1.360   3.332  0.3264 -0.8103  1.0570
    8MOL   C306 2980   1.385   1.316   3.244 -0.1971 -0.0340  0.0504
    8MOL   C307 2981   1.396   1.434   3.143 -0.5379 -0.0077  0.8537
    8MOL   C308 2982   1.425   1.574   3.199 -0.4185  0.1072  0.6291
    8MOL   C309 2983   1.466   1.659   3.075  0.4778  0.2264 -0.1414
    8MOL   C310 2984   1.546   1.559   2.988 -0.3106  0.4554 -0.3732
    8MOL   C311 2985   1.507   1.418   3.036  0.3122  0.0010 -0.1980
    8MOL   C312 2986   1.308   1.203   3.176 -0.8728  0.1850 -0.4754
    8MOL   H313 2987   1.309   1.347   3.315  0.7421 -0.6270  1.3354
    8MOL   H314 2988   1.303   1.450   3.088 -0.6823 -1.4130  0.6714
    8MOL   H315 2989   1.513   1.569   3.264 -1.8694 -2.1025  2.5195
    8MOL   H316 2990   1.344   1.623   3.253 -0.9670  0.6643 -0.6866
    8MOL   H317 2991   1.376   1.696   3.026  0.4020  0.9787  0.5604
    8MOL   H318 2992   1.528   1.743   3.105  1.4851  0.3602 -2.4423
    8MOL   H319 2993   1.647   1.559   3.027 -0.2582 -0.6209 -0.4910
    8MOL   H320 2994   1.558   1.591   2.884  0.1783  0.3291 -0.3542
    8MOL   H321 2995   1.471   1.363   2.949  1.8987  1.2171 -1.6563
    8MOL   H322 2996   1.594   1.366   3.076 -1.3814 -0.0887  3.6644
    8MOL   H323 2997   1.318   1.120   3.246  1.0627  1.6021  0.9734
    8MOL   H324 2998   1.357   1.170   3.085  2.9082  0.4474  1.3742
    8MOL   C325 2999   1.162   1.225   3.137  0.0287  0.0657 -0.2691
    8MOL   C326 3000   1.065   1.167   3.241 -0.7709 -0.7147 -0.6806
    8MOL   C327 3001   0.915   1.198   3.218  0.1052 -0.5906  0.2154
    8MOL   C328 3002   0.849   1.211   3.357 -0.4158 -0.5095  0.1928
    8MOL   C329 3003   0.951   1.182   3.453 -0.0425  0.1610 -0.7550
    8MOL   C330 3004   1.086   1.212   3.391 -1.0295  0.5452  0.8673
    8MOL   C331 3005   1.132   1.164   2.996  0.5090 -0.4552 -0.0104
    8MOL   H332 3006   1.138   1.331   3.125 -2.7586 -0.4313  0.3922
    8MOL   H333 3007   1.071   1.058   3.249 -1.3386 -0.7987 -1.3934
    8MOL   H334 3008   0.872   1.103   3.187 -1.3253 -1.1091  3.5255
    8MOL   H335 3009   0.891   1.267   3.138 -0.7578 -1.2764 -0.1225
    8MOL   H336 3010   0.769   1.140   3.380 -1.5006  0.9918  1.1431
    8MOL   H337 3011   0.815   1.314   3.369  1.8771  0.4518 -1.3260
    8MOL   H338 3012   0.954   1.073   3.459  0.4445  0.2233  0.2968
    8MOL   H339 3013   0.939   1.230   3.550  1.2293  1.0054 -0.9977
    8MOL   H340 3014   1.173   1.169   3.440 -2.4138 -2.6446  0.6438
    8MOL   H341 3015   1.106   1.319   3.396  1.0350  0.3011 -1.1858
    8MOL   H342 3016   1.024   1.146   2.987  0.1763  1.2037  0.4186
    8MOL   H343 3017   1.185   1.069   2.988 -1.6047 -1.5886 -1.1828
    8MOL   C344 3018   1.173   1.259   2.872 -0.1734  1.1256 -0.1254
    8MOL   C345 3019   1.090   1.391   2.867  0.0859  0.1307 -0.4493
    8MOL   C346 3020   0.947   1.369   2.821 -0.3644  0.5729  0.1376
    8MOL   C347 3021   0.903   1.518   2.794 -1.2778 -0.4620  0.4990
    8MOL   C348 3022   1.035   1.612   2.782 -0.0845  0.0116  0.3085
    8MOL   C349 3023   1.150   1.504   2.777 -0.1573 -0.1218 -0.2167
    8MOL   C350 3024   1.178   1.181   2.731 -0.1201  0.1077  0.5261
    8MOL   H351 3025   1.273   1.297   2.893 -0.0473  0.9342 -0.3728
    8MOL   H352 3026   1.077   1.440   2.964  0.8193  1.0242 -0.8013
    8MOL   H353 3027   0.882   1.320   2.894 -3.1345  0.6309 -2.1639
    8MOL   H354 3028   0.939   1.305   2.733 -0.4387  0.1393  0.4542
    8MOL   H355 3029   0.854   1.536   2.698 -0.9899  1.6937  0.7421
    8MOL   H356 3030   0.829   1.544   2.870  1.8877  0.0176  3.5308
    8MOL   H357 3031   1.054   1.683   2.862 -0.4204 -1.8034  2.0223
    8MOL   H358 3032   1.032   1.675   2.693 -0.5516  1.7507  1.5202
    8MOL   H359 3033   1.179   1.465   2.679 -1.4206 -0.9704 -0.2583
    8MOL   H360 3034   1.242   1.548   2.815  0.8501 -1.8804 -0.5678
    8MOL   H361 3035   1.186   1.248   2.646 -0.1203 -3.2793 -2.2324
    8MOL   H362 3036   1.081   1.131   2.724 -0.2239  0.2618  0.8223
    8MOL   C363 3037   1.291   1.071   2.731 -0.4047  0.2793  0.5159
    8MOL   C364 3038   1.242   0.940   2.660  0.3109  0.6477 -0.5301
    8MOL   C365 3039   1.187   0.956   2.515 -0.3581  0.0153  0.5209
    8MOL   C366 3040   1.033   0.932   2.527 -1.1107 -0.1527  0.4281
    8MOL   C367 3041   1.031   0.814   2.629  0.6991  0.7659 -0.1268
    8MOL   C368 3042   1.131   0.862   2.731  0.2179 -0.4315  0.1137
    8MOL   C369 3043   1.429   1.126   2.681 -0.0963 -0.0266  0.1861
    8MOL   H370 3044   1.308   1.025   2.829  1.4670 -1.9158 -0.7728
    8MOL   H371 3045   1.328   0.873   2.656 -0.7890 -0.8184  0.1126
    8MOL   H372 3046   1.194   1.062   2.487 -3.1396  0.1846  0.3267
    8MOL   H373 3047   1.236   0.897   2.438  1.1683  1.5452  0.2851
    8MOL   H374 3048   0.984   1.025   2.554 -0.3173  0.1331  0.8929
    8MOL   H375 3049   0.996   0.902   2.429  1.1293 -0.3044 -0.3996
    8MOL   H376 3050   0.934   0.803   2.679  0.0671 -2.1921 -1.9115
    8MOL   H377 3051   1.070   0.725   2.581 -1.9842 -0.6235  0.1999
    8MOL   H378 3052   1.172   0.785   2.796 -2.0484 -0.8386  1.1191
    8MOL   H379 3053   1.078   0.925   2.802  3.3153  2.1702  0.2516
    8MOL   H380 3054   1.510   1.055   2.694  0.1327  0.3290  0.7340
    8MOL   H381 3055   1.463   1.214   2.736  0.6289 -0.4091  0.3519
    8MOL   H382 3056   1.417   1.161   2.578  1.4604 -1.2532 -0.4263
    9MOL     C1 3057   3.896   5.089   3.639 -0.1712 -0.4236  0.0378
    9MOL     C2 3058   3.985   5.015   3.740  0.2966 -0.0478 -0.3186
    9MOL     C3 3059   4.022   4.867   3.714  0.5884 -0.1415  0.3053
    9MOL     C4 3060   4.054   4.809   3.850  0.1329 -0.7698  0.4594
    9MOL     C5 3061   3.976   4.894   3.948  0.2967 -0.4921 -0.3826
    9MOL     C6 3062   3.931   5.022   3.882  0.2102 -0.4982 -0.6458
    9MOL     C7 3063   3.933   5.080   3.496  0.3725 -0.2090 -0.2030
    9MOL     H8 3064   3.794   5.060   3.665 -0.1266 -0.1782  0.4860
    9MOL     H9 3065   4.082   5.064   3.732  1.6824 -2.4990  0.7139
    9MOL    H10 3066   3.934   4.816   3.676  1.4559  0.2281 -2.2987
    9MOL    H11 3067   4.103   4.843   3.645 -0.3810 -1.7837 -0.2684
    9MOL    H12 3068   4.024   4.705   3.861 -0.2186 -0.5669  1.5198
    9MOL    H13 3069   4.163   4.807   3.860  0.2637  1.3486 -0.1938
    9MOL    H14 3070   3.890   4.840   3.987  0.5094 -1.6336 -1.4613
    9MOL    H15 3071   4.040   4.918   4.033 -0.9923 -0.7651  0.6789
    9MOL    H16 3072   3.980   5.104   3.936 -2.5208  1.2635 -0.7284
    9MOL    H17 3073   3.823   5.034   3.888 -0.1215 -3.1228 -0.9225
    9MOL    H18 3074   4.036   5.114   3.484 -0.0278  1.0540 -0.1654
    9MOL    H19 3075   3.936   4.982   3.450  0.5684 -0.7997  1.0538
    9MOL    H20 3076   3.901   5.194   3.669 -1.1392 -0.5209  0.5641
    9MOL    C21 3077   3.825   5.164   3.422  0.2256 -0.4244  0.2903
    9MOL    C22 3078   3.880   5.212   3.285  0.4215 -0.1591 -0.3042
    9MOL    C23 3079   3.808   5.317   3.205 -0.2600 -0.5970  0.0433
    9MOL    C24 3080   3.877   5.321   3.072  0.4822 -0.4291  0.2408
    9MOL    C25 3081   3.924   5.177   3.054  0.3309  0.2351 -0.4417
    9MOL    C26 3082   3.910   5.098   3.189 -0.2325 -1.0167 -0.5471
    9MOL    C27 3083   3.685   5.096   3.415  0.8515  0.1039  0.8724
    9MOL    H28 3084   3.814   5.259   3.473  0.4863 -0.8582  1.1582
    9MOL    H29 3085   3.973   5.253   3.325 -0.1186 -1.3914  2.3200
    9MOL    H30 3086   3.807   5.412   3.259  0.1864 -1.4035  1.4847
    9MOL    H31 3087   3.703   5.294   3.190 -1.1618  3.2006 -0.1072
    9MOL    H32 3088   3.821   5.362   2.987  0.7665 -2.1907 -0.8262
    9MOL    H33 3089   3.969   5.377   3.088 -1.2113  2.3196  0.7125
    9MOL    H34 3090   4.023   5.180   3.007 -0.3085  2.3631 -1.7231
    9MOL    H35 3091   3.869   5.125   2.976  0.3759  0.7821 -0.8399
    9MOL    H36 3092   3.999   5.039   3.212 -0.0667 -1.7126 -2.7974
    9MOL    H37 3093   3.837   5.018   3.190  1.5166 -2.6595 -0.9620
    9MOL    H38 3094   3.664   5.086   3.308  1.5768 -2.9175  0.9663
    9MOL    H39 3095   3.680   4.994   3.454 -3.4445 -0.3061 -0.4648
    9MOL    C40 3096   3.573   5.191   3.459  0.1498 -0.0328 -0.1410
    9MOL    C41 3097   3.434   5.160   3.407  0.8466  0.5716 -0.1684
    9MOL    C42 3098   3.373   5.034   3.454  0.3560 -0.1702 -0.5417
    9MOL    C43 3099   3.284   4.986   3.340  0.3172 -0.4477 -0.2589
    9MOL    C44 3100   3.332   5.056   3.214 -0.2206  0.5835  0.3073
    9MOL    C45 3101   3.397   5.183   3.259  0.0574 -0.6644  0.0611
    9MOL    C46 3102   3.583   5.219   3.621 -0.6589 -0.2121 -0.6567
    9MOL    H47 3103   3.585   5.293   3.422  1.6804 -0.7202 -1.5882
    9MOL    H48 3104   3.362   5.228   3.453 -0.1619 -0.2362 -0.5294
    9MOL    H49 3105   3.306   5.047   3.539  1.1801 -3.1715  0.6347
    9MOL    H50 3106   3.448   4.961   3.483  1.3737  2.1286  3.0281
    9MOL    H51 3107   3.180   5.014   3.359 -0.0890 -1.6495 -0.6818
    9MOL    H52 3108   3.287   4.879   3.319  3.0392 -0.4593 -0.0419
    9MOL    H53 3109   3.398   4.994   3.154  0.2804 -0.7358  2.1468
    9MOL    H54 3110   3.242   5.075   3.156  1.3735  2.7792 -1.5199
    9MOL    H55 3111   3.480   5.205   3.191  0.8413  0.1919  1.2814
    9MOL    H56 3112   3.343   5.278   3.253  0.9388 -0.2266 -1.1594
    9MOL    H57 3113   3.541   5.136   3.677 -0.3912 -1.7358 -2.6482
    9MOL    H58 3114   3.686   5.245   3.648 -0.9986 -0.3273  0.7846
    9MOL    C59 3115   3.513   5.341   3.677  0.1879  0.2002  0.3408
    9MOL    C60 3116   3.488   5.321   3.831 -0.6618 -0.4976 -0.6445
    9MOL    C61 3117   3.597   5.248   3.913  0.1223  0.2338 -0.2806
    9MOL    C62 3118   3.522   5.197   4.038 -0.4828  0.0564  0.0706
    9MOL    C63 3119   3.371   5.190   3.995  0.5358  0.1393 -0.6464
    9MOL    C64 3120   3.360   5.236   3.853 -0.1633  0.0046  0.0278
    9MOL    C65 3121   3.592   5.474   3.645  0.3167 -1.4048 -0.0058
    9MOL    H66 3122   3.422   5.349   3.617  0.0107  1.9890  0.8333
    9MOL    H67 3123   3.463   5.418   3.874 -0.1815 -0.0262 -1.4221
    9MOL    H68 3124   3.667   5.326   3.946  0.6156  0.0376 -0.8597
    9MOL    H69 3125   3.635   5.158   3.867  2.5901  1.8903 -1.6247
    9MOL    H70 3126   3.538   5.270   4.118  1.3132  1.2941 -1.3745
    9MOL    H71 3127   3.568   5.102   4.065 -0.3539  0.2145  0.4093
    9MOL    H72 3128   3.321   5.257   4.065 -0.4051  0.5198 -1.6516
    9MOL    H73 3129   3.329   5.089   3.995  1.3120 -0.1933  0.5096
    9MOL    H74 3130   3.352   5.147   3.791  0.2931  1.1672 -1.7417
    9MOL    H75 3131   3.270   5.296   3.839  0.6714  1.0083 -1.0895
    9MOL    H76 3132   3.627   5.465   3.543  1.1240 -2.2582  0.3423
    9MOL    H77 3133   3.687   5.478   3.699  0.3993 -1.9408 -0.1079
    9MOL    C78 3134   3.514   5.614   3.657 -0.2128  0.4442  0.3969
    9MOL    C79 3135   3.611   5.738   3.640  0.1550  0.1718  1.3132
    9MOL    C80 3136   3.699   5.750   3.517 -0.1557  0.6605 -0.3190
    9MOL    C81 3137   3.801   5.854   3.550 -0.4416 -0.4439  0.0159
    9MOL    C82 3138   3.825   5.827   3.694 -0.1095  0.3610  0.1581
    9MOL    C83 3139   3.699   5.769   3.760 -0.1867  0.1072  0.0975
    9MOL    C84 3140   3.391   5.622   3.562  0.2163  0.2587  0.5801
    9MOL    H85 3141   3.476   5.621   3.758  1.0074 -3.3671  1.2283
    9MOL    H86 3142   3.538   5.819   3.647  1.9997  2.0803 -1.0304
    9MOL    H87 3143   3.633   5.779   3.435 -1.6617 -1.1433  0.2166
    9MOL    H88 3144   3.751   5.657   3.496 -2.3172 -0.6802  0.0361
    9MOL    H89 3145   3.757   5.952   3.530 -1.8340 -1.0275  0.1398
    9MOL    H90 3146   3.887   5.847   3.483 -0.8418  2.0160 -0.8225
    9MOL    H91 3147   3.906   5.753   3.700  0.1929  0.7582  1.1635
    9MOL    H92 3148   3.860   5.921   3.737  2.2806 -0.4738  0.1140
    9MOL    H93 3149   3.708   5.678   3.819  1.6290  1.2457  1.6328
    9MOL    H94 3150   3.666   5.851   3.824 -0.5062  1.1360 -1.3756
    9MOL    H95 3151   3.413   5.553   3.480 -0.2784  3.5218 -2.4608
    9MOL    H96 3152   3.382   5.720   3.516 -2.3580 -1.1485 -2.0696
    9MOL    C97 3153   3.258   5.589   3.632  0.1746  0.4786  0.4839
    9MOL    C98 3154   3.147   5.572   3.525 -0.3736  0.1354  0.5725
    9MOL    C99 3155   3.135   5.674   3.422 -0.2562 -0.4262  0.2098
    9MOL   C100 3156   3.053   5.613   3.308 -0.4186  0.4253 -0.4894
    9MOL   C101 3157   3.083   5.467   3.316 -0.1206 -0.5261  0.3879
    9MOL   C102 3158   3.159   5.438   3.452 -0.3542 -0.2724 -0.1422
    9MOL   C103 3159   3.218   5.709   3.720  0.2821  0.2216  0.9753
    9MOL   H104 3160   3.265   5.493   3.683  0.0427  0.0932 -0.2292
    9MOL   H105 3161   3.050   5.562   3.573 -0.9613 -0.6682 -0.7396
    9MOL   H106 3162   3.081   5.757   3.468  1.4458  0.9292 -0.1914
    9MOL   H107 3163   3.229   5.709   3.378 -0.8532  0.4300 -0.4150
    9MOL   H108 3164   3.089   5.640   3.209  1.4553  1.1113  0.3502
    9MOL   H109 3165   2.948   5.638   3.323 -0.3151 -0.2163  1.4755
    9MOL   H110 3166   3.154   5.438   3.239  1.5145  2.0379  0.8801
    9MOL   H111 3167   2.988   5.415   3.303  0.2797 -1.1159 -0.2171
    9MOL   H112 3168   3.118   5.351   3.505 -2.4446  1.1281  0.6130
    9MOL   H113 3169   3.259   5.406   3.423  0.4017  1.9045  0.0261
    9MOL   H114 3170   3.292   5.716   3.799 -0.4839  1.5904  1.5817
    9MOL   H115 3171   3.223   5.806   3.671 -1.1568  1.3881  3.0627
    9MOL   C116 3172   3.100   5.699   3.814 -0.6047  0.3112 -0.0425
    9MOL   C117 3173   3.118   5.579   3.906  0.0944  0.0327  0.2225
    9MOL   C118 3174   3.233   5.576   4.010  0.0703  0.1731 -0.3792
    9MOL   C119 3175   3.178   5.506   4.134 -0.4919  0.2756  0.1893
    9MOL   C120 3176   3.052   5.435   4.093  0.2073  0.1711 -0.2846
    9MOL   C121 3177   2.993   5.517   3.975 -0.2490 -0.0145  0.5894
    9MOL   C122 3178   3.073   5.827   3.900 -0.7914  0.8463 -1.2063
    9MOL   H123 3179   3.011   5.680   3.754 -0.6729 -0.5116  0.3129
    9MOL   H124 3180   3.143   5.492   3.844  1.1704  0.6406 -0.1979
    9MOL   H125 3181   3.317   5.518   3.971 -0.8206 -2.2805  1.1560
    9MOL   H126 3182   3.271   5.677   4.025 -0.6972  0.3457  0.4209
    9MOL   H127 3183   3.153   5.577   4.213  1.1222  1.0987 -0.0269
    9MOL   H128 3184   3.250   5.441   4.183 -2.0686 -0.6919  1.2798
    9MOL   H129 3185   2.977   5.431   4.172 -0.0894 -0.2957 -0.5878
    9MOL   H130 3186   3.057   5.332   4.056  1.1106 -0.1037  0.5823
    9MOL   H131 3187   2.933   5.455   3.909  0.3877 -1.5458  1.4163
    9MOL   H132 3188   2.926   5.595   4.011  0.3718  0.3130  1.0483
    9MOL   H133 3189   3.158   5.834   3.967 -1.1726 -0.5876 -0.5565
    9MOL   H134 3190   2.985   5.800   3.959 -0.0547 -1.1129 -0.9641
    9MOL   C135 3191   3.043   5.955   3.826 -0.2247 -0.5341  0.6425
    9MOL   C136 3192   3.102   6.072   3.915  0.3416  0.6491  0.2910
    9MOL   C137 3193   3.257   6.085   3.911 -0.0526 -0.4358 -0.0949
    9MOL   C138 3194   3.295   6.149   4.048  0.0462 -0.3108  0.0410
    9MOL   C139 3195   3.201   6.077   4.143 -0.3197 -0.3079 -0.3628
    9MOL   C140 3196   3.073   6.072   4.069  0.9036  0.6038 -0.1397
    9MOL   C141 3197   2.894   5.985   3.807  1.2451  0.5883  0.3324
    9MOL   H142 3198   3.093   5.960   3.730 -0.7129 -2.9796  0.2426
    9MOL   H143 3199   3.068   6.169   3.878  0.9288  1.3657  1.6143
    9MOL   H144 3200   3.301   5.987   3.894 -2.0872 -0.6382 -5.1087
    9MOL   H145 3201   3.294   6.143   3.826  2.7048 -0.3428  1.1127
    9MOL   H146 3202   3.269   6.253   4.027  0.6766 -0.2843 -0.6134
    9MOL   H147 3203   3.401   6.127   4.063 -0.1631 -0.9980  0.5517
    9MOL   H148 3204   3.175   6.130   4.235 -0.7212  0.4440 -0.9159
    9MOL   H149 3205   3.257   5.985   4.161 -0.8204 -0.5637 -0.1107
    9MOL   H150 3206   3.003   6.000   4.111  1.6857 -2.0093 -3.1102
    9MOL   H151 3207   3.024   6.168   4.085  1.9602  0.8899  1.3710
    9MOL   H152 3208   2.858   6.087   3.819  1.1970  0.8151 -1.6172
    9MOL   H153 3209   2.845   5.937   3.892  1.5800  1.4133  0.9954
    9MOL   C154 3210   2.824   5.933   3.676  0.7933  0.5124 -0.4138
    9MOL   C155 3211   2.697   5.846   3.710  1.0929  0.5908 -0.4841
    9MOL   C156 3212   2.709   5.717   3.799  0.0053  0.4207  0.0304
    9MOL   C157 3213   2.600   5.621   3.769 -0.2852  0.2020  1.0367
    9MOL   C158 3214   2.518   5.689   3.656  0.7529  0.1048  0.3507
    9MOL   C159 3215   2.630   5.782   3.590  0.0769 -0.1809 -0.4572
    9MOL   C160 3216   2.787   6.053   3.579  0.0515 -0.7545 -0.5683
    9MOL   H161 3217   2.888   5.872   3.612  1.4503 -0.0287  0.7464
    9MOL   H162 3218   2.631   5.921   3.752 -0.4984 -1.2816  0.4448
    9MOL   H163 3219   2.801   5.669   3.768 -0.3523 -0.6000  0.5164
    9MOL   H164 3220   2.727   5.743   3.904  2.6746  1.7446 -0.7228
    9MOL   H165 3221   2.640   5.529   3.726  0.9707  1.0709  0.2815
    9MOL   H166 3222   2.544   5.602   3.860 -0.2026  1.8860  1.4577
    9MOL   H167 3223   2.449   5.761   3.698 -0.2748  0.0236 -1.1533
    9MOL   H168 3224   2.462   5.625   3.588  1.5160  0.1623 -0.3425
    9MOL   H169 3225   2.578   5.864   3.541 -2.0310 -1.3074 -0.1705
    9MOL   H170 3226   2.691   5.733   3.514 -0.6976  1.2694 -2.0522
    9MOL   H171 3227   2.722   6.127   3.627  1.8254  0.4265  0.0657
    9MOL   H172 3228   2.724   6.019   3.497 -1.2794  0.4319 -0.0682
    9MOL   C173 3229   2.901   6.125   3.504  0.5792  0.8202  0.8907
    9MOL   C174 3230   2.896   6.277   3.508  0.0849  0.6540  0.5611
    9MOL   C175 3231   2.903   6.350   3.642 -0.0815 -0.3701  0.0814
    9MOL   C176 3232   2.850   6.494   3.615  0.2404 -0.0796  0.2623
    9MOL   C177 3233   2.765   6.489   3.486 -0.1553  0.0255  0.0442
    9MOL   C178 3234   2.773   6.339   3.444  0.1189  0.3609 -0.4151
    9MOL   C179 3235   2.911   6.063   3.365 -0.9995  0.1343  0.0881
    9MOL   H180 3236   2.990   6.106   3.565  0.0576 -0.3751  1.2920
    9MOL   H181 3237   2.980   6.318   3.452  0.0378 -1.2326 -0.9519
    9MOL   H182 3238   3.003   6.357   3.686  0.4432  2.0341 -1.3884
    9MOL   H183 3239   2.848   6.293   3.716 -0.0313  1.3926  1.5090
    9MOL   H184 3240   2.782   6.528   3.692  2.2446 -0.0744  2.0797
    9MOL   H185 3241   2.938   6.557   3.606 -1.1265  2.1444  2.1542
    9MOL   H186 3242   2.802   6.550   3.404 -0.5692 -0.1269 -0.2557
    9MOL   H187 3243   2.663   6.524   3.496  0.5614  1.6901  1.9458
    9MOL   H188 3244   2.677   6.294   3.470 -0.9463  1.5176 -2.2728
    9MOL   H189 3245   2.789   6.340   3.336  0.6364  0.5230 -0.3410
    9MOL   H190 3246   2.921   5.956   3.381  0.7749  0.4026  0.8786
    9MOL   H191 3247   2.822   6.090   3.308 -2.0296 -2.6151  0.3072
    9MOL   C192 3248   3.044   6.096   3.281  0.0153 -0.2553  0.1820
    9MOL   C193 3249   3.029   6.078   3.121  0.2940 -0.0415  0.0264
    9MOL   C194 3250   2.936   6.181   3.046 -0.2956 -0.7928  0.3935
    9MOL   C195 3251   2.902   6.120   2.907 -0.4651 -0.4384 -0.9721
    9MOL   C196 3252   2.927   5.965   2.919  0.6473  0.3993 -0.2420
    9MOL   C197 3253   2.987   5.943   3.063 -0.2114  0.2400 -0.9895
    9MOL   C198 3254   3.162   6.009   3.339 -0.1264  0.3688 -0.4417
    9MOL   H199 3255   3.069   6.202   3.288  1.5302 -0.5033 -1.0266
    9MOL   H200 3256   3.131   6.086   3.083  0.3578 -1.2997 -0.0880
    9MOL   H201 3257   2.972   6.283   3.036 -1.1045 -0.5480 -0.0108
    9MOL   H202 3258   2.841   6.196   3.097 -0.0923  4.2097 -0.4416
    9MOL   H203 3259   2.815   6.166   2.860 -1.1667 -0.0632  0.6817
    9MOL   H204 3260   2.983   6.144   2.838  0.7916 -2.8035 -0.3579
    9MOL   H205 3261   2.999   5.944   2.840 -0.6598 -1.3361 -0.9900
    9MOL   H206 3262   2.839   5.902   2.910  0.4558  1.0901 -3.7256
    9MOL   H207 3263   3.076   5.880   3.071 -1.6067 -1.6492  0.1800
    9MOL   H208 3264   2.900   5.902   3.115  0.6434 -0.8367 -0.3901
    9MOL   H209 3265   3.158   5.995   3.447  0.4603  0.1797 -0.4430
    9MOL   H210 3266   3.149   5.913   3.289  0.6270 -0.0016  0.0544
    9MOL   C211 3267   3.295   6.068   3.301  0.1301 -0.3017 -0.3803
    9MOL   C212 3268   3.338   6.166   3.416  0.1368  0.1317 -0.6466
    9MOL   C213 3269   3.379   6.102   3.552 -0.4341 -0.0948  0.4744
    9MOL   C214 3270   3.496   6.175   3.607  0.7992  0.4902  0.9218
    9MOL   C215 3271   3.505   6.299   3.514 -0.4706  0.1167  0.3817
    9MOL   C216 3272   3.440   6.264   3.380  0.5310 -0.9558 -0.1214
    9MOL   C217 3273   3.401   5.950   3.267  0.1303 -0.1848 -0.0727
    9MOL   H218 3274   3.276   6.138   3.220 -0.0053 -0.8148 -0.7935
    9MOL   H219 3275   3.254   6.228   3.447  2.1063  1.2268  2.8182
    9MOL   H220 3276   3.298   6.102   3.625 -0.2590  2.0479  0.6983
    9MOL   H221 3277   3.410   5.998   3.538 -2.4518 -0.4159 -1.8669
    9MOL   H222 3278   3.487   6.219   3.706 -3.9748  1.0517  0.3503
    9MOL   H223 3279   3.589   6.119   3.594 -0.7773 -2.1099  0.3877
    9MOL   H224 3280   3.609   6.330   3.503 -0.8931  1.0227 -1.2547
    9MOL   H225 3281   3.455   6.392   3.540  1.4437  1.1130  0.6165
    9MOL   H226 3282   3.408   6.356   3.330 -1.3316 -1.4839  0.0751
    9MOL   H227 3283   3.518   6.225   3.315  1.1020 -1.8212  1.0685
    9MOL   H228 3284   3.399   5.869   3.340  0.4765 -1.0455 -1.0091
    9MOL   H229 3285   3.502   5.983   3.290 -0.9372  4.2195 -1.1938
    9MOL   C230 3286   3.403   5.909   3.120 -0.9893 -0.4528  0.0554
    9MOL   C231 3287   3.476   5.779   3.092 -0.0813  0.3939  0.2880
    9MOL   C232 3288   3.627   5.785   3.119 -0.0853  0.5847  0.2864
    9MOL   C233 3289   3.658   5.644   3.165 -0.4776 -0.0115  0.7286
    9MOL   C234 3290   3.538   5.555   3.147 -0.0888  0.2818  0.2371
    9MOL   C235 3291   3.426   5.647   3.170 -0.1149  0.0016 -0.0515
    9MOL   C236 3292   3.452   6.030   3.028  0.0582  0.6915 -0.4332
    9MOL   H237 3293   3.300   5.891   3.091 -1.3771  0.2273  1.0031
    9MOL   H238 3294   3.467   5.751   2.987  2.1386 -2.9254  0.8981
    9MOL   H239 3295   3.689   5.816   3.035  1.2962 -0.9713  0.7164
    9MOL   H240 3296   3.646   5.861   3.195 -3.0829  0.4837  1.2061
    9MOL   H241 3297   3.743   5.600   3.112 -1.0428  0.3388 -0.4725
    9MOL   H242 3298   3.688   5.650   3.270 -0.7075 -1.0602  0.8664
    9MOL   H243 3299   3.540   5.476   3.221  0.6218  1.3715  1.3992
    9MOL   H244 3300   3.530   5.513   3.047  1.7084  0.7905 -0.1420
    9MOL   H245 3301   3.432   5.669   3.277  1.8693  2.7759 -0.6757
    9MOL   H246 3302   3.322   5.618   3.158 -0.2626  0.3242  0.4415
    9MOL   H247 3303   3.558   6.011   3.015  0.0075 -0.4933  0.8725
    9MOL   H248 3304   3.439   6.120   3.089  0.9942 -1.0952  2.4789
    9MOL   C249 3305   3.378   6.058   2.901 -0.1345 -0.2263 -0.3231
    9MOL   C250 3306   3.373   5.931   2.816 -0.2098  0.1554  0.1765
    9MOL   C251 3307   3.507   5.885   2.754 -0.0895  0.3014  0.1604
    9MOL   C252 3308   3.474   5.791   2.642 -0.4797  0.1600  0.2450
    9MOL   C253 3309   3.354   5.861   2.583 -0.0875 -0.6830 -0.7337
    9MOL   C254 3310   3.279   5.933   2.698 -0.2138 -0.4344  0.5786
    9MOL   C255 3311   3.439   6.182   2.830  0.1339  0.1074  0.1338
    9MOL   H256 3312   3.273   6.077   2.924  0.1883 -1.2680  2.1712
    9MOL   H257 3313   3.325   5.850   2.872 -0.9191  0.6274  0.2508
    9MOL   H258 3314   3.572   5.837   2.826  0.9420 -0.9862 -1.5729
    9MOL   H259 3315   3.561   5.973   2.721 -0.0655  0.1877 -0.1141
    9MOL   H260 3316   3.449   5.690   2.676  0.0608  0.7313  2.4405
    9MOL   H261 3317   3.564   5.778   2.583 -0.4513 -1.4543  0.6093
    9MOL   H262 3318   3.290   5.796   2.523 -1.9881 -0.6367  1.1902
    9MOL   H263 3319   3.388   5.946   2.522  0.7543 -0.5815 -0.1319
    9MOL   H264 3320   3.190   5.871   2.706  1.7334 -3.4025  0.2668
    9MOL   H265 3321   3.242   6.030   2.665 -0.2200 -1.2093 -1.7738
    9MOL   H266 3322   3.547   6.170   2.838  0.2605  1.2120  0.1173
    9MOL   H267 3323   3.418   6.169   2.724  0.2198 -1.5113  0.2967
    9MOL   C268 3324   3.394   6.322   2.882 -0.1459  0.4667  0.5370
    9MOL   C269 3325   3.247   6.357   2.868  0.1168  0.4561 -0.1363
    9MOL   C270 3326   3.208   6.400   2.733  0.3674  0.6091  0.2232
    9MOL   C271 3327   3.076   6.476   2.759 -0.1664  0.0595 -0.3304
    9MOL   C272 3328   3.080   6.527   2.905  0.1029 -0.8819  0.7941
    9MOL   C273 3329   3.198   6.454   2.973  0.2120  0.0028  0.1587
    9MOL   C274 3330   3.492   6.418   2.828 -0.2120  0.2672  0.3556
    9MOL   H275 3331   3.414   6.311   2.989 -0.4592 -1.3298  0.4327
    9MOL   H276 3332   3.191   6.265   2.889  0.1256  0.3358 -0.6531
    9MOL   H277 3333   3.276   6.471   2.685  0.4554  0.3122 -0.0927
    9MOL   H278 3334   3.199   6.323   2.656 -0.4425  1.9352 -1.0230
    9MOL   H279 3335   3.061   6.558   2.689 -0.2112  0.7089  0.4292
    9MOL   H280 3336   3.000   6.399   2.746  1.3753 -1.7087  0.8608
    9MOL   H281 3337   2.987   6.500   2.954  0.1378 -1.8216  0.3547
    9MOL   H282 3338   3.094   6.634   2.915  0.1069 -0.6292 -1.4934
    9MOL   H283 3339   3.164   6.392   3.056 -1.6205  1.6130  0.6396
    9MOL   H284 3340   3.270   6.525   3.014  1.5068 -1.0211 -0.3039
    9MOL   H285 3341   3.456   6.520   2.831 -1.5695 -0.1818 -0.0678
    9MOL   H286 3342   3.502   6.400   2.721 -3.2935  1.0729 -0.1052
    9MOL   C287 3343   3.638   6.428   2.898  0.0547  0.1466  0.3431
    9MOL   C288 3344   3.747   6.472   2.801 -0.3464 -0.6057 -0.1140
    9MOL   C289 3345   3.771   6.375   2.676 -0.1510  0.6060 -0.9911
    9MOL   C290 3346   3.812   6.467   2.569  0.3578  0.1178  0.0020
    9MOL   C291 3347   3.720   6.581   2.590  0.1212  0.8556  0.2991
    9MOL   C292 3348   3.719   6.611   2.743  0.8900  0.2071  0.2389
    9MOL   C293 3349   3.624   6.508   3.028 -0.0461 -0.4013  0.2945
    9MOL   H294 3350   3.674   6.330   2.931  0.6377  0.7816  1.6421
    9MOL   H295 3351   3.846   6.480   2.846 -0.1176 -0.1001 -0.6955
    9MOL   H296 3352   3.848   6.300   2.694 -0.5312  0.7133  1.3393
    9MOL   H297 3353   3.679   6.324   2.646 -2.1485  1.5775  3.0988
    9MOL   H298 3354   3.914   6.504   2.556  0.0363  0.9730 -0.1128
    9MOL   H299 3355   3.799   6.419   2.472  1.7698  1.1832 -0.7560
    9MOL   H300 3356   3.623   6.543   2.556  0.4168  0.0359  0.3646
    9MOL   H301 3357   3.746   6.661   2.520  0.3967 -0.8170 -1.5675
    9MOL   H302 3358   3.626   6.662   2.769  1.3992  1.7905 -0.9562
    9MOL   H303 3359   3.795   6.685   2.765  1.0343  0.0500  0.2675
    9MOL   H304 3360   3.539   6.469   3.083 -1.7702  3.5887  0.5935
    9MOL   H305 3361   3.593   6.611   3.012 -2.2523 -1.1664 -0.4950
    9MOL   C306 3362   3.752   6.507   3.116  0.0644  0.8418  0.3485
    9MOL   C307 3363   3.769   6.630   3.211 -0.0433 -0.4378 -0.0231
    9MOL   C308 3364   3.782   6.766   3.146  0.1760 -0.6172 -0.2116
    9MOL   C309 3365   3.696   6.869   3.216  0.4120  0.2524  0.1176
    9MOL   C310 3366   3.613   6.791   3.315 -0.2972  0.4239  0.4060
    9MOL   C311 3367   3.652   6.644   3.308 -0.6457  0.4702  0.2012
    9MOL   C312 3368   3.767   6.371   3.192  0.2048  0.2173 -0.4862
    9MOL   H313 3369   3.830   6.504   3.041 -1.0395 -2.4316 -0.7402
    9MOL   H314 3370   3.852   6.606   3.278  0.0210 -1.5064 -0.4862
    9MOL   H315 3371   3.748   6.763   3.043  0.3199  2.7085 -0.4235
    9MOL   H316 3372   3.882   6.811   3.140 -0.3935  0.8229  0.7175
    9MOL   H317 3373   3.753   6.941   3.275 -1.1443  0.3616  1.5231
    9MOL   H318 3374   3.646   6.922   3.135 -0.9414 -2.1805 -0.7087
    9MOL   H319 3375   3.506   6.803   3.298 -0.7701  0.7325  3.2531
    9MOL   H320 3376   3.640   6.823   3.416  1.9177 -0.1936  0.0374
    9MOL   H321 3377   3.682   6.611   3.408  1.6335  1.1488 -0.2184
    9MOL   H322 3378   3.563   6.585   3.287 -1.0926  1.2568 -0.1394
    9MOL   H323 3379   3.745   6.280   3.135 -0.6119 -1.2787  2.1601
    9MOL   H324 3380   3.695   6.347   3.270 -1.3672 -0.8065 -2.1968
    9MOL   C325 3381   3.918   6.350   3.246  0.8646  0.5490  0.0067
    9MOL   C326 3382   3.968   6.220   3.181 -0.5168  0.1175  0.4757
    9MOL   C327 3383   3.993   6.218   3.032  0.0552  0.3339 -0.2671
    9MOL   C328 3384   3.992   6.070   3.002 -0.4152  0.0172 -0.0960
    9MOL   C329 3385   3.885   6.014   3.090 -0.7183 -0.3914  0.0631
    9MOL   C330 3386   3.899   6.085   3.221  0.3791  0.5932 -0.4189
    9MOL   C331 3387   3.932   6.351   3.402  0.3420  0.6595 -0.8898
    9MOL   H332 3388   3.979   6.430   3.205  3.3855 -1.2682  0.1162
    9MOL   H333 3389   4.070   6.199   3.211 -0.4179 -0.1522 -0.0305
    9MOL   H334 3390   4.086   6.267   3.005  0.1748  0.9729  1.2631
    9MOL   H335 3391   3.920   6.273   2.973  0.3391 -0.5463 -1.4715
    9MOL   H336 3392   4.084   6.023   3.036  0.2365 -0.2145 -2.0987
    9MOL   H337 3393   3.984   6.039   2.898 -1.1189 -1.5687  0.4152
    9MOL   H338 3394   3.888   5.906   3.099 -0.4056 -0.4319 -0.5148
    9MOL   H339 3395   3.790   6.044   3.044 -0.0229 -0.1777 -1.2470
    9MOL   H340 3396   3.970   6.034   3.286 -0.5422  0.2201  0.3118
    9MOL   H341 3397   3.803   6.089   3.272  2.0316  0.6915  2.8400
    9MOL   H342 3398   3.944   6.253   3.448  2.2760 -0.7704 -4.2733
    9MOL   H343 3399   3.837   6.390   3.439  0.3996  0.6956 -0.7764
    9MOL   C344 3400   4.050   6.448   3.450 -0.4104 -0.2175  0.0662
    9MOL   C345 3401   4.193   6.414   3.388 -0.7558 -0.4701  0.4946
    9MOL   C346 3402   4.251   6.278   3.423 -0.6439 -0.6425 -0.1772
    9MOL   C347 3403   4.401   6.290   3.385  0.0281 -0.3589 -0.0329
    9MOL   C348 3404   4.444   6.432   3.397 -0.1898  0.2537  0.6995
    9MOL   C349 3405   4.312   6.507   3.420 -0.3148 -0.8888  0.5610
    9MOL   C350 3406   4.048   6.447   3.607  0.1269 -0.0144  0.2825
    9MOL   H351 3407   4.036   6.552   3.422  1.0973  0.5149  1.8901
    9MOL   H352 3408   4.182   6.412   3.279  0.0924 -3.4890  0.4125
    9MOL   H353 3409   4.223   6.189   3.366  2.0241 -0.8405 -1.2264
    9MOL   H354 3410   4.231   6.256   3.528  0.8752  0.1011  0.2842
    9MOL   H355 3411   4.445   6.217   3.454 -1.2866 -1.7476 -0.6360
    9MOL   H356 3412   4.432   6.258   3.286  1.8272  0.3594  0.2870
    9MOL   H357 3413   4.502   6.463   3.309  0.4937  0.1712  1.1173
    9MOL   H358 3414   4.499   6.445   3.490  0.9626  1.2048 -0.0894
    9MOL   H359 3415   4.306   6.558   3.515 -1.4643 -1.2631  0.6935
    9MOL   H360 3416   4.320   6.590   3.350 -4.7048 -0.3657  0.5790
    9MOL   H361 3417   4.143   6.481   3.647 -0.9316  0.6729  2.3079
    9MOL   H362 3418   4.059   6.344   3.643 -1.9413 -0.5456 -0.5280
    9MOL   C363 3419   3.930   6.529   3.678 -0.4785  0.1634 -0.3766
    9MOL   C364 3420   3.979   6.579   3.817 -0.4400 -0.1146  0.2316
    9MOL   C365 3421   3.999   6.467   3.920 -0.0858  0.2332 -0.7331
    9MOL   C366 3422   4.005   6.538   4.056 -0.8793  0.3411  0.2646
    9MOL   C367 3423   3.941   6.677   4.041 -0.2468 -0.8853 -0.6080
    9MOL   C368 3424   3.891   6.673   3.895 -0.6286  0.1389  0.0778
    9MOL   C369 3425   3.881   6.655   3.604  0.1980 -0.0523  0.5075
    9MOL   H370 3426   3.845   6.461   3.681 -0.3827  0.0606  0.0538
    9MOL   H371 3427   4.076   6.628   3.813 -0.1029 -0.7993 -0.0999
    9MOL   H372 3428   3.922   6.389   3.929  1.2262 -0.9196  0.7641
    9MOL   H373 3429   4.089   6.409   3.901 -0.6707 -0.1642 -2.4203
    9MOL   H374 3430   3.953   6.468   4.121  2.0835 -0.9163  1.3451
    9MOL   H375 3431   4.112   6.546   4.072 -0.4583 -3.5359 -0.0852
    9MOL   H376 3432   3.865   6.685   4.118 -1.3670  0.9346 -1.8597
    9MOL   H377 3433   4.012   6.759   4.057 -1.9319  0.7697 -1.3801
    9MOL   H378 3434   3.887   6.772   3.850 -0.2411  0.8187  1.4886
    9MOL   H379 3435   3.787   6.641   3.894 -0.6483  0.1774  0.6407
    9MOL   H380 3436   3.864   6.637   3.498  2.1933  1.8536 -0.1783
    9MOL   H381 3437   3.961   6.729   3.602 -0.1623  0.3330  0.0626
    9MOL   H382 3438   3.788   6.701   3.637 -0.8242 -0.0283 -2.2966
   10MOL     C1 3439   5.117   1.990   5.023  0.3032  0.0331  0.2520
   10MOL     C2 3440   5.012   2.069   4.942  0.0565 -0.2109  0.4133
   10MOL     C3 3441   4.865   2.047   4.984  0.7178  0.4741  0.5683
   10MOL     C4 3442   4.778   2.116   4.876 -0.2390  0.2398 -0.5055
   10MOL     C5 3443   4.863   2.098   4.750 -0.3231  0.5523 -0.0636
   10MOL     C6 3444   5.001   2.053   4.791  0.6956  0.2059 -0.1505
   10MOL     C7 3445   5.111   2.016   5.178 -0.2593 -0.3741  0.1974
   10MOL     H8 3446   5.097   1.887   4.994  0.4190  0.5600 -1.8268
   10MOL     H9 3447   5.032   2.176   4.945 -2.4347  0.2697  0.4278
   10MOL    H10 3448   4.856   1.939   4.994 -2.1448  0.7920  2.0942
   10MOL    H11 3449   4.841   2.089   5.082 -0.9971  2.8288 -0.7801
   10MOL    H12 3450   4.677   2.078   4.868  0.1009 -0.5649 -1.0078
   10MOL    H13 3451   4.775   2.223   4.897  0.2737 -0.3408  2.7042
   10MOL    H14 3452   4.828   2.019   4.684  1.7603 -1.6224  1.3542
   10MOL    H15 3453   4.861   2.191   4.692 -0.5006 -1.0593 -2.7040
   10MOL    H16 3454   5.087   2.085   4.731 -0.9365  1.6738 -1.7623
   10MOL    H17 3455   5.004   1.944   4.784  0.0968  0.2407 -0.9201
   10MOL    H18 3456   5.144   2.118   5.198  0.9578 -0.7568  0.1429
   10MOL    H19 3457   5.005   2.011   5.206 -0.2639 -3.1195 -0.1868
   10MOL    H20 3458   5.209   2.015   4.969  0.8290  0.2045  1.2127
   10MOL    C21 3459   5.177   1.917   5.277 -0.4561  0.1398 -0.1743
   10MOL    C22 3460   5.335   1.926   5.283  0.2646 -0.1649 -0.0489
   10MOL    C23 3461   5.407   2.058   5.299  0.6395 -0.8166  0.3291
   10MOL    C24 3462   5.550   2.041   5.251 -0.0664  0.0660 -0.0281
   10MOL    C25 3463   5.543   1.894   5.205 -0.3147 -0.8402 -0.1466
   10MOL    C26 3464   5.403   1.857   5.164 -0.4129 -0.4450  0.5178
   10MOL    C27 3465   5.122   1.935   5.417 -0.1113  0.3392  0.0612
   10MOL    H28 3466   5.151   1.815   5.246 -4.0221  1.2578 -1.0863
   10MOL    H29 3467   5.369   1.864   5.366  1.7312  1.7651  0.8376
   10MOL    H30 3468   5.399   2.079   5.406 -1.4838  0.3897 -0.0505
   10MOL    H31 3469   5.367   2.143   5.243  1.8513 -0.6040 -0.2292
   10MOL    H32 3470   5.577   2.103   5.166  1.0620 -0.6186 -0.1811
   10MOL    H33 3471   5.615   2.044   5.339 -1.6184 -0.0120  1.1280
   10MOL    H34 3472   5.581   1.822   5.278 -1.3187  0.6412  1.8730
   10MOL    H35 3473   5.600   1.877   5.113  0.0826  0.0356 -0.0599
   10MOL    H36 3474   5.390   1.748   5.160 -1.5846 -0.2928 -0.3467
   10MOL    H37 3475   5.374   1.900   5.068  0.2620 -0.0560  0.4856
   10MOL    H38 3476   5.193   1.887   5.484  2.0768  0.5785 -2.0413
   10MOL    H39 3477   5.134   2.042   5.436  2.7579 -0.0714  0.8181
   10MOL    C40 3478   4.980   1.882   5.440 -0.0624 -1.0368  0.0338
   10MOL    C41 3479   4.977   1.747   5.510  0.2947  0.4857  0.5225
   10MOL    C42 3480   5.061   1.632   5.440 -0.4251 -0.5765 -0.7625
   10MOL    C43 3481   5.015   1.504   5.504 -0.1767 -0.0944 -0.2290
   10MOL    C44 3482   4.868   1.535   5.533  0.2609  0.3905  0.5004
   10MOL    C45 3483   4.834   1.688   5.518  0.3899 -0.9228 -0.2288
   10MOL    C46 3484   4.897   1.986   5.527  0.4211  0.6377  0.0625
   10MOL    H47 3485   4.919   1.874   5.350 -0.9746 -0.0195  0.5410
   10MOL    H48 3486   5.012   1.779   5.608 -0.5110  2.8838  0.0742
   10MOL    H49 3487   5.167   1.650   5.459 -0.6129  0.6356 -0.7765
   10MOL    H50 3488   5.041   1.631   5.332 -2.1660 -1.3807 -0.4465
   10MOL    H51 3489   5.071   1.473   5.593 -2.3220 -1.3418  0.7210
   10MOL    H52 3490   5.036   1.419   5.439  1.9081 -1.6213  2.3134
   10MOL    H53 3491   4.798   1.476   5.475  1.3745  0.5567 -1.0382
   10MOL    H54 3492   4.850   1.515   5.639  0.3501 -1.8208  0.1092
   10MOL    H55 3493   4.770   1.693   5.429  0.5251  0.3301 -0.2620
   10MOL    H56 3494   4.768   1.717   5.600 -0.9080  0.7343 -1.8096
   10MOL    H57 3495   4.813   1.934   5.573  1.5404  0.0525  1.4827
   10MOL    H58 3496   4.946   2.019   5.618 -1.2366  1.4578  0.6782
   10MOL    C59 3497   4.863   2.121   5.450  0.8493  0.0033  0.2023
   10MOL    C60 3498   4.729   2.113   5.369 -0.3644 -0.3540  0.2759
   10MOL    C61 3499   4.688   2.231   5.285 -0.3395 -0.0769 -0.2594
   10MOL    C62 3500   4.566   2.290   5.358 -0.7674  0.0743 -0.0745
   10MOL    C63 3501   4.485   2.172   5.395  0.1889 -0.0251 -0.4016
   10MOL    C64 3502   4.596   2.080   5.447  0.2787  0.2929  0.5005
   10MOL    C65 3503   4.861   2.234   5.555 -0.1253 -0.2284 -0.6178
   10MOL    H66 3504   4.940   2.158   5.382  3.9339 -1.2048  2.9154
   10MOL    H67 3505   4.736   2.035   5.293  0.5678 -1.1472  1.1561
   10MOL    H68 3506   4.669   2.210   5.180 -0.4639  3.3676 -0.9962
   10MOL    H69 3507   4.761   2.312   5.288 -1.7727  1.2367 -0.1380
   10MOL    H70 3508   4.507   2.349   5.288  1.5763  3.5885  0.7618
   10MOL    H71 3509   4.584   2.345   5.451  2.9110 -0.9508 -0.0763
   10MOL    H72 3510   4.445   2.122   5.307 -0.1961 -2.6831  1.2327
   10MOL    H73 3511   4.409   2.173   5.473 -1.4242 -1.3169 -1.9294
   10MOL    H74 3512   4.603   2.098   5.554  3.2902  1.0852  0.2163
   10MOL    H75 3513   4.568   1.975   5.438  0.6891  0.1753  0.5716
   10MOL    H76 3514   4.806   2.192   5.639 -0.2473 -2.0430 -1.5663
   10MOL    H77 3515   4.802   2.308   5.501 -2.0783 -0.2475  1.4236
   10MOL    C78 3516   5.003   2.292   5.584  0.4996 -0.8506  0.5011
   10MOL    C79 3517   5.018   2.435   5.540  0.3425 -0.6026  0.3385
   10MOL    C80 3518   4.915   2.536   5.600  0.0156 -1.3141 -0.3927
   10MOL    C81 3519   4.914   2.652   5.499 -0.0050 -0.3175  0.2967
   10MOL    C82 3520   4.917   2.576   5.364 -0.7509  0.4071 -0.8503
   10MOL    C83 3521   5.022   2.469   5.390  0.2511 -0.0631 -0.7127
   10MOL    C84 3522   5.047   2.272   5.734 -0.2536  0.5868 -0.5446
   10MOL    H85 3523   5.079   2.243   5.524 -1.1941 -0.5147 -2.0082
   10MOL    H86 3524   5.114   2.477   5.569  0.2328 -0.1136  0.0051
   10MOL    H87 3525   4.933   2.571   5.702 -0.1758 -2.6726  0.1091
   10MOL    H88 3526   4.817   2.489   5.605  0.3662 -2.0519 -0.4745
   10MOL    H89 3527   4.992   2.728   5.510 -2.0637  1.7511  1.0466
   10MOL    H90 3528   4.825   2.713   5.517 -1.0324 -1.7570  0.1454
   10MOL    H91 3529   4.827   2.521   5.338 -0.5526 -0.5433  0.4220
   10MOL    H92 3530   4.948   2.641   5.282  2.2068  0.8321  0.5285
   10MOL    H93 3531   5.001   2.375   5.338 -1.5093  0.4444 -0.9405
   10MOL    H94 3532   5.119   2.506   5.356  0.0483 -0.4670 -1.7634
   10MOL    H95 3533   5.010   2.176   5.771 -1.8089  1.5908  0.5293
   10MOL    H96 3534   4.991   2.345   5.791  2.6679  2.3041  0.2281
   10MOL    C97 3535   5.198   2.273   5.765 -0.0656 -0.3399 -0.2384
   10MOL    C98 3536   5.248   2.123   5.760  0.0854  0.1390  0.5436
   10MOL    C99 3537   5.401   2.121   5.745 -0.7466 -0.4445 -0.1351
   10MOL   C100 3538   5.453   2.002   5.816  0.9174 -0.7457  0.0938
   10MOL   C101 3539   5.334   1.920   5.849  0.1880  0.3607 -0.1596
   10MOL   C102 3540   5.219   2.012   5.869  0.8585 -0.4650 -0.4476
   10MOL   C103 3541   5.220   2.347   5.906 -1.0270 -0.2012 -0.4638
   10MOL   H104 3542   5.255   2.322   5.686  1.3025 -0.9284  0.3691
   10MOL   H105 3543   5.199   2.082   5.672 -0.9591  2.7618 -0.1574
   10MOL   H106 3544   5.423   2.098   5.640  0.9104 -2.2612  0.5887
   10MOL   H107 3545   5.446   2.217   5.772  0.7930 -1.8439  2.3395
   10MOL   H108 3546   5.514   2.028   5.903  1.7854 -0.2694 -0.6553
   10MOL   H109 3547   5.518   1.945   5.750 -0.6641 -1.5818 -0.7592
   10MOL   H110 3548   5.347   1.860   5.939 -2.0769 -2.4057 -1.6113
   10MOL   H111 3549   5.307   1.841   5.779  1.0085 -0.5207  0.5013
   10MOL   H112 3550   5.124   1.958   5.871 -0.0197  0.8866 -2.9744
   10MOL   H113 3551   5.233   2.061   5.965 -1.3878  2.6574 -1.6294
   10MOL   H114 3552   5.154   2.303   5.981 -0.1453  0.5172  0.7299
   10MOL   H115 3553   5.317   2.315   5.944 -1.4637 -1.8058 -0.6576
   10MOL   C116 3554   5.219   2.503   5.912 -0.2781  0.5376  0.3135
   10MOL   C117 3555   5.161   2.552   6.047 -0.0170 -0.1254 -0.7474
   10MOL   C118 3556   5.009   2.524   6.068 -0.1017  0.7554  0.0122
   10MOL   C119 3557   4.993   2.453   6.203 -0.5350 -0.0098  0.2779
   10MOL   C120 3558   5.114   2.491   6.289  0.4786  0.3200  0.3386
   10MOL   C121 3559   5.228   2.497   6.181  0.4937  0.4958 -0.2091
   10MOL   C122 3560   5.359   2.566   5.889  0.0009 -0.9571 -0.7636
   10MOL   H123 3561   5.149   2.530   5.834 -0.5870  1.0678  0.7687
   10MOL   H124 3562   5.178   2.660   6.044  1.1670 -0.2460  0.7741
   10MOL   H125 3563   4.960   2.619   6.085  0.4372  0.8401  1.1332
   10MOL   H126 3564   4.972   2.466   5.983  1.5461  0.6100 -0.6243
   10MOL   H127 3565   4.987   2.347   6.180 -0.9086 -0.1448  0.9579
   10MOL   H128 3566   4.894   2.461   6.250 -1.0436 -1.4272 -0.5433
   10MOL   H129 3567   5.120   2.421   6.372 -1.6431 -0.9278 -0.5282
   10MOL   H130 3568   5.096   2.589   6.333 -1.7028  0.2175 -0.3015
   10MOL   H131 3569   5.315   2.556   6.209  0.6199 -0.3675  1.2814
   10MOL   H132 3570   5.265   2.396   6.163 -0.9638 -0.6454  2.7537
   10MOL   H133 3571   5.409   2.505   5.814  0.4818 -1.9015  0.3150
   10MOL   H134 3572   5.429   2.548   5.971  0.6931 -0.4989 -1.2458
   10MOL   C135 3573   5.355   2.711   5.823  0.0013  0.2932 -0.2417
   10MOL   C136 3574   5.430   2.730   5.689 -0.4562  0.1641 -0.4862
   10MOL   C137 3575   5.376   2.647   5.578 -0.4328 -0.1428  0.0851
   10MOL   C138 3576   5.489   2.566   5.531 -0.3810 -0.9254  0.5571
   10MOL   C139 3577   5.607   2.658   5.548 -0.3063  0.7946 -0.3207
   10MOL   C140 3578   5.581   2.720   5.682  0.0774 -0.0888 -0.4093
   10MOL   C141 3579   5.390   2.822   5.926  0.3291  0.2656  1.3668
   10MOL   H142 3580   5.250   2.732   5.802  0.0473  1.3673  0.5747
   10MOL   H143 3581   5.421   2.836   5.664  0.0414  0.5447  0.8413
   10MOL   H144 3582   5.295   2.588   5.620 -1.1179  1.4119  0.9902
   10MOL   H145 3583   5.339   2.708   5.496 -0.3198  0.5239  0.5236
   10MOL   H146 3584   5.484   2.535   5.427 -0.4245 -1.4591  0.7151
   10MOL   H147 3585   5.498   2.480   5.597 -2.1505 -2.3652 -1.0375
   10MOL   H148 3586   5.608   2.733   5.469 -2.4527  1.7285  0.4954
   10MOL   H149 3587   5.706   2.614   5.549 -0.0757  1.2652 -1.8343
   10MOL   H150 3588   5.615   2.657   5.764 -1.8278 -1.1054 -0.3552
   10MOL   H151 3589   5.619   2.821   5.694 -1.5002  0.1827  2.7404
   10MOL   H152 3590   5.473   2.877   5.882  0.1559 -0.7678 -0.3387
   10MOL   H153 3591   5.425   2.777   6.019 -2.3636  0.5867  2.5887
   10MOL   C154 3592   5.292   2.933   5.960  0.3336  0.1751  0.9792
   10MOL   C155 3593   5.332   3.010   6.088 -0.3249  0.0343 -0.0471
   10MOL   C156 3594   5.476   3.071   6.087  0.1739  0.1331 -0.9648
   10MOL   C157 3595   5.497   3.107   6.238  0.1837 -0.0453  0.7459
   10MOL   C158 3596   5.425   2.992   6.315  0.3083 -0.1301 -0.2104
   10MOL   C159 3597   5.319   2.937   6.220  0.8509 -0.1732 -0.0267
   10MOL   C160 3598   5.264   3.031   5.834  0.2652  0.6106 -0.0380
   10MOL   H161 3599   5.201   2.878   5.983 -0.6156  1.3616  0.1244
   10MOL   H162 3600   5.271   3.101   6.092 -0.1250  0.1463  0.4191
   10MOL   H163 3601   5.553   3.001   6.055  0.3314 -0.7554  1.2664
   10MOL   H164 3602   5.504   3.153   6.021  2.1055 -0.7026 -1.2046
   10MOL   H165 3603   5.599   3.132   6.266  1.4893 -1.7860 -2.2196
   10MOL   H166 3604   5.436   3.196   6.254 -0.9802 -0.6124 -0.3881
   10MOL   H167 3605   5.384   3.028   6.410 -0.2559 -2.1127  0.3351
   10MOL   H168 3606   5.498   2.915   6.338 -1.0459 -0.6247  2.7495
   10MOL   H169 3607   5.216   2.930   6.253  0.0094 -1.1161 -2.7561
   10MOL   H170 3608   5.339   2.833   6.193  0.1199 -0.8587  1.9824
   10MOL   H171 3609   5.249   2.971   5.744 -0.5899  1.4655 -0.4675
   10MOL   H172 3610   5.356   3.088   5.821 -0.8157  2.4373  0.2097
   10MOL   C173 3611   5.146   3.123   5.844  0.4711 -0.0800  0.2957
   10MOL   C174 3612   5.014   3.047   5.868 -0.1139  0.4800  0.2790
   10MOL   C175 3613   4.964   2.970   5.739 -0.3368  0.4837  0.1298
   10MOL   C176 3614   4.819   2.933   5.769 -0.6174 -0.4017  0.4141
   10MOL   C177 3615   4.773   3.023   5.883  0.4248 -0.2154  0.0672
   10MOL   C178 3616   4.888   3.125   5.901  0.2893  0.3482  0.3181
   10MOL   C179 3617   5.132   3.229   5.732 -0.5089 -0.1997 -0.1294
   10MOL   H180 3618   5.160   3.182   5.934 -0.3916 -0.3569  0.6125
   10MOL   H181 3619   5.036   2.985   5.955  1.0165  0.9356  0.3156
   10MOL   H182 3620   5.035   2.893   5.707 -0.4640  0.8694 -1.1267
   10MOL   H183 3621   4.959   3.042   5.656  0.7998  1.0777  0.5594
   10MOL   H184 3622   4.749   2.934   5.685 -1.3627  0.3595  1.0332
   10MOL   H185 3623   4.808   2.832   5.807 -0.8207 -0.0497  1.3237
   10MOL   H186 3624   4.757   2.967   5.975  0.2142 -0.9081 -0.3769
   10MOL   H187 3625   4.686   3.083   5.854 -1.1336 -1.5221  1.9116
   10MOL   H188 3626   4.877   3.202   5.825  2.2668  0.4677  0.1209
   10MOL   H189 3627   4.892   3.183   5.993 -2.5532  2.0188 -0.5838
   10MOL   H190 3628   5.121   3.184   5.633 -2.8764 -3.4818  1.5287
   10MOL   H191 3629   5.042   3.291   5.732  0.7923  1.7034  0.5721
   10MOL   C192 3630   5.248   3.335   5.719  0.0419  0.6734 -0.0389
   10MOL   C193 3631   5.277   3.398   5.862 -0.3865  0.1799 -0.4064
   10MOL   C194 3632   5.170   3.487   5.929  0.2281 -0.7660 -0.7510
   10MOL   C195 3633   5.244   3.573   6.038  0.2460 -0.4823 -0.6558
   10MOL   C196 3634   5.395   3.582   5.989 -0.2740  0.3646 -0.6335
   10MOL   C197 3635   5.407   3.492   5.861  0.1154 -0.1756 -0.2969
   10MOL   C198 3636   5.216   3.440   5.609  0.1290  0.5618  0.0585
   10MOL   H199 3637   5.334   3.275   5.690  0.0266  1.5701 -2.0366
   10MOL   H200 3638   5.306   3.318   5.930 -0.7976  1.4895  1.3459
   10MOL   H201 3639   5.087   3.429   5.971 -1.6828  1.4220 -1.3860
   10MOL   H202 3640   5.130   3.562   5.860  1.2496  0.8350  0.3927
   10MOL   H203 3641   5.187   3.666   6.048  1.1006  0.0681 -0.8309
   10MOL   H204 3642   5.230   3.515   6.130  0.1532 -0.3575 -0.5898
   10MOL   H205 3643   5.467   3.549   6.064  0.8859  0.1303 -1.8432
   10MOL   H206 3644   5.406   3.687   5.963  2.1666  0.5299  0.9057
   10MOL   H207 3645   5.498   3.436   5.839  0.2816  0.4818 -1.3082
   10MOL   H208 3646   5.406   3.570   5.785  2.5715 -0.5330 -0.7265
   10MOL   H209 3647   5.116   3.479   5.625 -1.8253 -3.6349 -1.0980
   10MOL   H210 3648   5.279   3.529   5.618 -0.8193  1.2216  0.1685
   10MOL   C211 3649   5.229   3.379   5.464  0.4081 -0.2633  0.0837
   10MOL   C212 3650   5.103   3.428   5.385 -0.8584  0.5023 -0.0384
   10MOL   C213 3651   4.969   3.353   5.407 -0.4418 -0.1576 -0.4697
   10MOL   C214 3652   4.857   3.455   5.362 -0.1236  0.3772  0.0869
   10MOL   C215 3653   4.924   3.585   5.322  0.3102  0.3644 -0.3525
   10MOL   C216 3654   5.074   3.576   5.371 -0.0465  0.2263 -0.3083
   10MOL   C217 3655   5.369   3.418   5.414 -0.4311  0.4367 -0.3741
   10MOL   H218 3656   5.228   3.271   5.480 -1.0574 -0.1105  1.1783
   10MOL   H219 3657   5.134   3.402   5.283  1.3518  0.0887  0.7072
   10MOL   H220 3658   4.962   3.254   5.362  2.7207 -0.3350 -0.7428
   10MOL   H221 3659   4.955   3.335   5.514  2.0266  0.9506  0.0713
   10MOL   H222 3660   4.792   3.417   5.283 -0.2393 -0.4815  0.5896
   10MOL   H223 3661   4.792   3.478   5.447 -3.0397  0.4219 -2.0881
   10MOL   H224 3662   4.863   3.674   5.342 -1.2196 -0.4408 -1.2997
   10MOL   H225 3663   4.940   3.597   5.215  0.2905 -0.4829 -0.4489
   10MOL   H226 3664   5.146   3.635   5.313 -0.6281  0.4438 -0.8222
   10MOL   H227 3665   5.084   3.633   5.463 -0.5434  0.3672 -0.3378
   10MOL   H228 3666   5.433   3.387   5.496 -0.8955  1.3034  0.3312
   10MOL   H229 3667   5.371   3.527   5.407 -0.7365  0.4404 -0.4102
   10MOL   C230 3668   5.423   3.354   5.280 -0.3034  0.1513 -0.2966
   10MOL   C231 3669   5.490   3.218   5.300  0.2947 -0.6428  0.4733
   10MOL   C232 3670   5.406   3.106   5.364 -0.8151 -0.8095 -0.4540
   10MOL   C233 3671   5.467   2.973   5.318  0.5506 -0.1454  0.2296
   10MOL   C234 3672   5.536   2.998   5.184  0.1298 -0.7933 -0.6325
   10MOL   C235 3673   5.521   3.153   5.168  0.5011  0.1915 -0.8516
   10MOL   C236 3674   5.516   3.454   5.207  0.2932 -0.7842 -0.9647
   10MOL   H237 3675   5.339   3.343   5.212 -1.9554  1.1187  1.5235
   10MOL   H238 3676   5.583   3.236   5.353  1.9247  0.0050 -2.5137
   10MOL   H239 3677   5.406   3.104   5.473  2.1660  1.0378 -0.3572
   10MOL   H240 3678   5.302   3.112   5.330 -1.2273 -2.3338  0.5264
   10MOL   H241 3679   5.541   2.942   5.392 -0.4113 -5.0322 -0.6985
   10MOL   H242 3680   5.391   2.897   5.303  0.7436  0.1158 -2.2054
   10MOL   H243 3681   5.484   2.949   5.101 -1.3397  0.8775 -0.7297
   10MOL   H244 3682   5.642   2.974   5.176 -0.1758 -1.3457 -3.6256
   10MOL   H245 3683   5.431   3.171   5.109 -0.8326 -2.5045  0.2760
   10MOL   H246 3684   5.610   3.189   5.116  0.0373  2.6890  0.0166
   10MOL   H247 3685   5.565   3.406   5.122 -1.8715  1.9291 -3.8974
   10MOL   H248 3686   5.598   3.492   5.267 -2.2903  3.2146  0.2412
   10MOL   C249 3687   5.428   3.575   5.150  0.0816 -0.0124  0.6040
   10MOL   C250 3688   5.413   3.555   4.999  0.2757 -0.2593 -0.3433
   10MOL   C251 3689   5.326   3.666   4.930 -0.8062  0.2878 -0.0766
   10MOL   C252 3690   5.264   3.597   4.807 -0.0410 -0.7158 -0.2241
   10MOL   C253 3691   5.275   3.448   4.824  0.3179  0.1709 -0.5070
   10MOL   C254 3692   5.369   3.418   4.944 -0.0864 -0.4509  0.4109
   10MOL   C255 3693   5.495   3.714   5.173  0.2490  0.0289  0.1793
   10MOL   H256 3694   5.326   3.582   5.188  0.9691  1.4035  2.8458
   10MOL   H257 3695   5.511   3.565   4.953 -0.7649  2.0782 -2.1823
   10MOL   H258 3696   5.398   3.742   4.899 -0.4712 -0.0432 -0.0986
   10MOL   H259 3697   5.258   3.705   5.006  0.0653  0.1248  0.7805
   10MOL   H260 3698   5.326   3.616   4.719 -0.6649 -1.2524 -0.7825
   10MOL   H261 3699   5.166   3.639   4.784  0.0827 -0.4059 -0.1866
   10MOL   H262 3700   5.328   3.419   4.733  0.7391  0.5303 -0.3793
   10MOL   H263 3701   5.178   3.399   4.828 -0.0026  0.9121  1.2822
   10MOL   H264 3702   5.450   3.348   4.920  1.6889  1.3181  1.1279
   10MOL   H265 3703   5.312   3.366   5.021 -0.2571 -1.2214 -0.2318
   10MOL   H266 3704   5.594   3.690   5.135  2.3538  2.6417  3.6493
   10MOL   H267 3705   5.445   3.787   5.109  0.5046 -0.4561 -0.5811
   10MOL   C268 3706   5.501   3.776   5.318  0.0669 -0.0998  0.1306
   10MOL   C269 3707   5.372   3.805   5.391 -0.0780 -0.1659  0.1273
   10MOL   C270 3708   5.294   3.919   5.328  0.3268 -0.2085 -0.1086
   10MOL   C271 3709   5.180   3.936   5.429 -0.0787  0.1471 -0.1105
   10MOL   C272 3710   5.227   3.872   5.563 -0.5252  0.7341 -0.0304
   10MOL   C273 3711   5.373   3.832   5.542  0.5825  0.1707 -0.8512
   10MOL   C274 3712   5.605   3.896   5.318 -0.1166  0.2565  0.1730
   10MOL   H275 3713   5.549   3.696   5.375 -0.2433 -1.7136 -1.8312
   10MOL   H276 3714   5.312   3.716   5.377  1.3018 -1.2255  0.8572
   10MOL   H277 3715   5.347   4.014   5.319 -0.7498  0.3813 -0.3468
   10MOL   H278 3716   5.251   3.881   5.236  0.1531 -2.5925  0.9316
   10MOL   H279 3717   5.145   4.038   5.443  0.2643 -0.0037  1.8909
   10MOL   H280 3718   5.094   3.882   5.391  0.9837 -1.6570 -0.0077
   10MOL   H281 3719   5.159   3.795   5.600  0.2427 -0.5693 -1.2929
   10MOL   H282 3720   5.229   3.955   5.634 -1.9967  1.0330 -0.3099
   10MOL   H283 3721   5.410   3.749   5.601  0.4662  1.1281  0.5922
   10MOL   H284 3722   5.438   3.918   5.558  1.2232 -0.2474 -1.1662
   10MOL   H285 3723   5.586   3.972   5.394 -0.4512 -0.3359  0.6854
   10MOL   H286 3724   5.581   3.958   5.231 -0.7436  0.1950  0.2946
   10MOL   C287 3725   5.752   3.850   5.313  0.0462 -0.0304  0.1224
   10MOL   C288 3726   5.817   3.917   5.183 -0.1727  0.7996 -0.5014
   10MOL   C289 3727   5.826   4.075   5.181 -0.0391  0.3564 -0.2600
   10MOL   C290 3728   5.921   4.089   5.061 -0.1265 -0.7228  0.7903
   10MOL   C291 3729   6.032   3.982   5.084  0.5047 -0.1198 -0.2218
   10MOL   C292 3730   5.952   3.868   5.148  0.0286 -0.8548  0.0012
   10MOL   C293 3731   5.826   3.877   5.445  0.3916  0.1635  0.3783
   10MOL   H294 3732   5.771   3.747   5.282  1.0326  0.0258  0.5095
   10MOL   H295 3733   5.759   3.877   5.100  1.7503  0.4381 -1.6785
   10MOL   H296 3734   5.732   4.127   5.161  0.0785  1.2669  1.5037
   10MOL   H297 3735   5.868   4.106   5.276  1.9322  0.1208 -1.0373
   10MOL   H298 3736   5.873   4.082   4.963  0.5403 -1.5957  0.5241
   10MOL   H299 3737   5.973   4.185   5.062  3.2358 -2.4503 -1.0507
   10MOL   H300 3738   6.109   4.017   5.153  1.5770  0.5873 -1.7457
   10MOL   H301 3739   6.078   3.949   4.991  2.2398 -0.3437  0.6921
   10MOL   H302 3740   5.999   3.831   5.240  0.3951 -3.2622 -1.1104
   10MOL   H303 3741   5.963   3.778   5.087 -1.5581 -0.0339 -1.5313
   10MOL   H304 3742   5.830   3.986   5.452  0.9664  0.2069 -0.5379
   10MOL   H305 3743   5.929   3.844   5.433  0.3668  0.5532 -1.0882
   10MOL   C306 3744   5.763   3.816   5.577 -0.0358  0.2698  0.2580
   10MOL   C307 3745   5.772   3.657   5.569  0.0956  0.4935  0.4102
   10MOL   C308 3746   5.907   3.595   5.604 -0.3194  0.1627 -0.4429
   10MOL   C309 3747   5.870   3.444   5.643 -0.6326 -0.3262  0.6558
   10MOL   C310 3748   5.736   3.461   5.706  0.2232  1.0811 -0.7789
   10MOL   C311 3749   5.669   3.582   5.662  0.4254  0.5323  0.8503
   10MOL   C312 3750   5.821   3.876   5.704  0.2562  0.4126 -0.5185
   10MOL   H313 3751   5.657   3.838   5.578 -0.7293 -2.8503  0.5056
   10MOL   H314 3752   5.747   3.623   5.468  1.8905  0.2856  0.0183
   10MOL   H315 3753   5.947   3.649   5.690  1.5431 -1.0139 -0.5589
   10MOL   H316 3754   5.976   3.596   5.520 -0.7163 -0.8585 -0.7863
   10MOL   H317 3755   5.864   3.392   5.548  2.3547  1.0733 -0.3387
   10MOL   H318 3756   5.943   3.378   5.690  0.3701  0.5524  0.3542
   10MOL   H319 3757   5.757   3.455   5.813 -0.0794 -2.4421 -0.8425
   10MOL   H320 3758   5.679   3.369   5.690 -1.8340  2.6224 -2.7408
   10MOL   H321 3759   5.589   3.555   5.592  0.0301 -0.1877  1.5670
   10MOL   H322 3760   5.630   3.630   5.751 -0.4579 -0.2393  0.8934
   10MOL   H323 3761   5.930   3.876   5.697  0.4225  2.8306  1.3532
   10MOL   H324 3762   5.788   3.827   5.796 -1.6220  2.1175 -0.2644
   10MOL   C325 3763   5.785   4.030   5.729 -0.2299 -0.1458 -0.2525
   10MOL   C326 3764   5.909   4.118   5.758  0.7784 -0.5251 -0.0392
   10MOL   C327 3765   6.025   4.108   5.649 -0.5655  0.0888 -0.0359
   10MOL   C328 3766   6.149   4.079   5.727  0.3024  0.0843 -0.0953
   10MOL   C329 3767   6.123   4.129   5.873  0.4608  0.4001  0.3361
   10MOL   C330 3768   5.982   4.083   5.893 -1.2828  0.1664 -0.2393
   10MOL   C331 3769   5.665   4.041   5.822  0.1459  0.0466 -0.2950
   10MOL   H332 3770   5.753   4.065   5.631  1.7519  2.4364 -0.0265
   10MOL   H333 3771   5.881   4.224   5.760 -2.6929 -1.3792 -0.9882
   10MOL   H334 3772   6.039   4.204   5.601  0.2752  1.2154  2.3588
   10MOL   H335 3773   5.999   4.038   5.570  1.7960 -0.5340 -0.2963
   10MOL   H336 3774   6.227   4.132   5.672 -2.0739  0.2013 -3.5046
   10MOL   H337 3775   6.167   3.972   5.733 -1.1106 -0.0649  2.0346
   10MOL   H338 3776   6.136   4.236   5.857 -0.6485  0.4862 -0.0220
   10MOL   H339 3777   6.200   4.097   5.943 -0.3571 -0.1225  0.9899
   10MOL   H340 3778   5.934   4.126   5.980 -1.4527 -0.0369 -0.2341
   10MOL   H341 3779   5.980   3.974   5.898 -0.1910  0.0759 -1.3408
   10MOL   H342 3780   5.694   4.016   5.924 -1.9957  0.0112  0.3428
   10MOL   H343 3781   5.594   3.966   5.788  0.0561  0.5022 -1.1221
   10MOL   C344 3782   5.585   4.169   5.825  0.3032  0.3243 -0.2082
   10MOL   C345 3783   5.495   4.174   5.951  0.5001 -0.6898  0.2337
   10MOL   C346 3784   5.564   4.201   6.088 -0.0389  0.4106  0.3363
   10MOL   C347 3785   5.468   4.160   6.198  0.4267  0.0519 -0.2615
   10MOL   C348 3786   5.367   4.065   6.135 -0.3938  0.6176 -0.0929
   10MOL   C349 3787   5.408   4.056   5.986  0.0569 -0.3704 -0.3493
   10MOL   C350 3788   5.498   4.186   5.695 -0.1785 -0.3157 -0.1362
   10MOL   H351 3789   5.660   4.248   5.835  1.0508 -0.4098  0.0680
   10MOL   H352 3790   5.447   4.271   5.946  0.1660 -0.8643  0.0414
   10MOL   H353 3791   5.592   4.306   6.096  4.1763 -0.6440  0.5097
   10MOL   H354 3792   5.651   4.136   6.094 -1.0644 -0.9854  0.3303
   10MOL   H355 3793   5.510   4.112   6.286 -1.1449  2.1821  1.7213
   10MOL   H356 3794   5.412   4.249   6.230 -2.0953 -1.6314  0.1419
   10MOL   H357 3795   5.266   4.108   6.141 -1.2207 -1.2671 -0.1329
   10MOL   H358 3796   5.361   3.963   6.174  2.4094  1.4575  2.7154
   10MOL   H359 3797   5.469   3.967   5.965 -0.1043  0.1909 -3.4341
   10MOL   H360 3798   5.316   4.047   5.928 -1.5388 -1.1035  2.2197
   10MOL   H361 3799   5.406   4.127   5.701 -1.9361  2.2439 -1.2283
   10MOL   H362 3800   5.550   4.146   5.607 -0.7086 -0.5852 -0.3276
   10MOL   C363 3801   5.449   4.328   5.673 -0.1028  0.4606  0.6538
   10MOL   C364 3802   5.522   4.396   5.552  0.3788  0.6739  0.5657
   10MOL   C365 3803   5.493   4.343   5.410  0.4729 -0.2567 -0.4028
   10MOL   C366 3804   5.591   4.414   5.328  0.0762 -0.4214 -0.1405
   10MOL   C367 3805   5.719   4.436   5.413  0.4974 -0.7608 -0.0318
   10MOL   C368 3806   5.672   4.406   5.554  1.3914  0.2045 -0.1943
   10MOL   C369 3807   5.292   4.342   5.663 -0.4845 -0.1929  0.5671
   10MOL   H370 3808   5.477   4.390   5.758  0.8741 -2.7743  2.8033
   10MOL   H371 3809   5.478   4.495   5.544 -0.1556  0.4252  0.3725
   10MOL   H372 3810   5.506   4.234   5.406 -1.7820 -0.8699  4.3061
   10MOL   H373 3811   5.391   4.363   5.377 -0.4665 -2.2667  1.1319
   10MOL   H374 3812   5.624   4.357   5.241  2.1643  1.5762 -0.7036
   10MOL   H375 3813   5.559   4.512   5.294 -0.0579 -0.2010  0.6052
   10MOL   H376 3814   5.801   4.368   5.389  0.7944  0.0715 -1.4148
   10MOL   H377 3815   5.761   4.536   5.416  0.8579 -0.9170  0.2189
   10MOL   H378 3816   5.699   4.485   5.623 -0.1182  0.9690 -0.4571
   10MOL   H379 3817   5.726   4.315   5.580  1.2144  0.6219  1.7446
   10MOL   H380 3818   5.265   4.448   5.666 -3.5554 -0.8065 -2.0902
   10MOL   H381 3819   5.252   4.288   5.749  0.3114 -0.1248  0.9788
   10MOL   H382 3820   5.257   4.310   5.564  0.7843  1.7759 -0.5529
   11MOL     C1 3821   0.206   3.011   7.083  0.1547 -0.1364  0.3480
   11MOL     C2 3822   0.271   3.009   6.945  0.9797  0.0939 -0.6544
   11MOL     C3 3823   0.421   2.999   6.949  0.2766 -0.0846  0.1476
   11MOL     C4 3824   0.482   3.137   6.980  0.3442 -0.1238 -0.1765
   11MOL     C5 3825   0.386   3.226   6.907  0.3649 -0.4661  0.7620
   11MOL     C6 3826   0.260   3.145   6.873 -0.6597  0.6287  0.3868
   11MOL     C7 3827   0.242   2.887   7.167 -0.0733  0.3511  0.3327
   11MOL     H8 3828   0.223   3.104   7.137 -0.6689  0.0512  0.2950
   11MOL     H9 3829   0.224   2.940   6.876  0.9938  0.0727 -0.6425
   11MOL    H10 3830   0.445   2.915   7.013  2.5556 -0.2830 -0.9240
   11MOL    H11 3831   0.447   2.969   6.848 -3.0039  1.0900 -1.1124
   11MOL    H12 3832   0.475   3.151   7.088  2.9946 -1.0621  0.1709
   11MOL    H13 3833   0.586   3.153   6.952  1.5174 -1.6574  2.9373
   11MOL    H14 3834   0.360   3.315   6.963  0.4014  0.9910 -1.4958
   11MOL    H15 3835   0.427   3.251   6.809  1.4362 -1.4388  0.9518
   11MOL    H16 3836   0.250   3.130   6.765  1.2010 -0.4993  0.3455
   11MOL    H17 3837   0.169   3.185   6.917 -0.5968  0.7289  0.4244
   11MOL    H18 3838   0.254   2.798   7.105 -1.7247 -0.2225  0.8166
   11MOL    H19 3839   0.336   2.929   7.202 -0.9809  0.4055  2.7859
   11MOL    H20 3840   0.099   3.018   7.065  0.2103  1.4014  0.5642
   11MOL    C21 3841   0.151   2.855   7.295 -0.0635  0.1507 -0.3881
   11MOL    C22 3842   0.027   2.761   7.261 -0.1170  0.1135  0.5193
   11MOL    C23 3843   7.637   2.790   7.141 -0.2826 -0.4206 -0.3187
   11MOL    C24 3844   7.498   2.732   7.158 -1.2352  0.0499  0.0406
   11MOL    C25 3845   7.477   2.741   7.308 -0.3436 -0.0569 -0.2719
   11MOL    C26 3846   7.618   2.739   7.378 -0.0436  0.4552  0.1252
   11MOL    C27 3847   0.246   2.800   7.402  0.4119 -0.3583 -0.2163
   11MOL    H28 3848   0.111   2.950   7.331 -0.2268  0.9859 -2.6608
   11MOL    H29 3849   0.063   2.662   7.231  0.1226  0.2684  0.2950
   11MOL    H30 3850   0.004   2.758   7.054 -1.2873 -0.1673 -1.0751
   11MOL    H31 3851   7.626   2.898   7.136 -1.2550 -0.5115 -0.3568
   11MOL    H32 3852   7.419   2.769   7.092 -0.1183  0.2415 -1.1979
   11MOL    H33 3853   7.497   2.625   7.140  1.4512  0.0062  0.0150
   11MOL    H34 3854   7.418   2.660   7.351  0.1639  0.3029  1.1097
   11MOL    H35 3855   7.424   2.835   7.327 -2.1343 -0.7242 -1.7723
   11MOL    H36 3856   7.647   2.639   7.407 -2.6671 -0.5705 -0.6920
   11MOL    H37 3857   7.620   2.795   7.471 -1.8390 -0.5509  0.7715
   11MOL    H38 3858   0.201   2.711   7.447 -1.9802  1.1167  0.3896
   11MOL    H39 3859   0.337   2.761   7.356  1.6558  1.9391  0.2544
   11MOL    C40 3860   0.284   2.895   7.513  0.5814  0.7089 -0.0359
   11MOL    C41 3861   0.287   2.817   7.655 -0.1392 -0.7781 -0.3432
   11MOL    C42 3862   0.382   2.687   7.667 -0.2452  0.2592  0.1540
   11MOL    C43 3863   0.306   2.597   0.075 -0.1236  0.3688  0.7735
   11MOL    C44 3864   0.159   2.639   0.041 -0.2660 -0.4400 -0.0693
   11MOL    C45 3865   0.144   2.785   0.001 -0.1470 -0.1419  0.1021
   11MOL    C46 3866   0.407   2.994   7.475  0.2429 -0.8421 -0.1989
   11MOL    H47 3867   0.198   2.962   7.513  0.5874  0.7180 -0.8378
   11MOL    H48 3868   0.304   2.894   0.040 -0.3149 -0.4401 -0.6525
   11MOL    H49 3869   0.482   2.709   0.014 -0.0857  0.1700 -0.2171
   11MOL    H50 3870   0.398   2.637   7.572 -3.2318 -0.9473  0.2149
   11MOL    H51 3871   0.346   2.629   0.172  1.4003 -1.4144  0.7791
   11MOL    H52 3872   0.311   2.488   0.078 -2.0268  0.2715  0.7204
   11MOL    H53 3873   0.138   2.577   7.643  1.5119 -0.0115 -0.8236
   11MOL    H54 3874   0.092   2.608   0.121 -3.1961 -1.6397 -2.8640
   11MOL    H55 3875   0.075   2.804   7.609  0.4640  4.4520  0.5262
   11MOL    H56 3876   0.098   2.834   0.087 -0.6348 -0.9536  0.3093
   11MOL    H57 3877   0.495   2.938   7.507  0.6027  0.7611  1.7019
   11MOL    H58 3878   0.411   3.007   7.367 -0.8140 -1.9289 -0.3757
   11MOL    C59 3879   0.420   3.128   7.559 -0.2737 -0.7410 -0.2400
   11MOL    C60 3880   0.297   3.222   7.559 -0.8610  0.0685  0.3203
   11MOL    C61 3881   0.225   3.253   7.428 -0.3749  0.4165 -0.2259
   11MOL    C62 3882   0.125   3.365   7.459 -1.1904 -0.4936  0.1091
   11MOL    C63 3883   0.204   3.454   7.554  0.1948  0.6164  0.1156
   11MOL    C64 3884   0.307   3.359   7.622  0.2712 -0.6913 -0.9677
   11MOL    C65 3885   0.473   3.100   0.017  0.1323  0.4902  0.2038
   11MOL    H66 3886   0.492   3.176   7.494  0.9873 -0.8812  1.0347
   11MOL    H67 3887   0.209   3.170   7.599 -0.0635 -2.7442 -1.4275
   11MOL    H68 3888   0.178   3.159   7.399  0.0579  1.0992 -3.3080
   11MOL    H69 3889   0.290   3.292   7.350 -0.7259 -0.6029 -1.0265
   11MOL    H70 3890   0.030   3.326   7.496 -2.4283  0.9960 -1.4373
   11MOL    H71 3891   0.109   3.422   7.367  0.7504 -3.1605 -1.9943
   11MOL    H72 3892   0.136   3.498   7.628  0.3115  2.9744 -1.1244
   11MOL    H73 3893   0.246   3.544   7.508  1.3584  1.4576  2.6788
   11MOL    H74 3894   0.407   3.396   7.599  0.2639 -0.6722 -0.9683
   11MOL    H75 3895   0.290   3.366   0.040 -0.2227  3.3885 -1.2550
   11MOL    H76 3896   0.514   2.999   0.019 -0.7828  0.1094  0.1029
   11MOL    H77 3897   0.381   3.088   0.074 -0.9581  0.4141 -1.5524
   11MOL    C78 3898   0.574   3.205   0.084 -0.1078 -0.7705 -0.0016
   11MOL    C79 3899   0.591   3.181   0.238 -0.1377  0.6509 -0.5111
   11MOL    C80 3900   0.459   3.205   0.318 -0.4096 -0.9581  0.4647
   11MOL    C81 3901   0.508   3.216   0.458 -0.1801 -0.3008 -0.1840
   11MOL    C82 3902   0.660   3.240   0.461  0.9495 -0.2190 -0.6983
   11MOL    C83 3903   0.703   3.257   0.313 -1.2579  0.3101 -0.0320
   11MOL    C84 3904   0.704   3.238   0.001 -0.5870 -0.1187 -0.0370
   11MOL    H85 3905   0.521   3.300   0.089  0.6894 -0.2900 -0.4562
   11MOL    H86 3906   0.600   3.073   0.237 -1.6637  0.5142 -1.3911
   11MOL    H87 3907   0.378   3.132   0.317 -1.2199 -0.0806 -2.7397
   11MOL    H88 3908   0.413   3.293   0.275  2.7443  0.0252 -1.0389
   11MOL    H89 3909   0.483   3.130   0.519 -1.5698 -0.4904 -1.0076
   11MOL    H90 3910   0.458   3.297   0.512  0.9130 -0.3352  0.8829
   11MOL    H91 3911   0.703   3.307   0.534  1.0458  0.0343 -0.9867
   11MOL    H92 3912   0.694   3.139   0.486  1.2205 -0.1219 -0.6815
   11MOL    H93 3913   0.699   3.363   0.286  1.7306  1.2636  2.8941
   11MOL    H94 3914   0.800   3.214   0.290 -1.0239  1.1780 -0.6760
   11MOL    H95 3915   0.742   3.324   0.056  0.0741  0.7766 -1.8456
   11MOL    H96 3916   0.684   3.278   7.591  0.1785  1.1999  0.3321
   11MOL    C97 3917   0.821   3.136   7.678 -0.1351  0.1945 -0.1270
   11MOL    C98 3918   0.952   3.214   7.656  0.1505 -0.3922 -0.4026
   11MOL    C99 3919   0.960   3.315   7.543  0.2443 -0.4288 -0.1842
   11MOL   C100 3920   1.074   3.416   7.571 -0.7188  0.0033 -0.0594
   11MOL   C101 3921   1.115   3.379   0.029  0.0023  1.0157  0.6614
   11MOL   C102 3922   1.010   3.295   0.093  1.0194  0.2161  0.5359
   11MOL   C103 3923   0.812   3.026   7.563  0.3209  0.1803 -0.5176
   11MOL   H104 3924   0.822   3.087   0.086  2.5249  2.4765  1.0803
   11MOL   H105 3925   1.025   3.136   7.637  0.1230 -0.0897 -1.8101
   11MOL   H106 3926   0.992   3.270   7.449 -0.9819 -2.2632  0.2579
   11MOL   H107 3927   0.870   3.375   7.532 -0.2308 -1.0399  0.3512
   11MOL   H108 3928   1.040   3.513   7.537  1.2532  0.9523  0.5913
   11MOL   H109 3929   1.159   3.388   7.508  1.1402  3.2501  0.8858
   11MOL   H110 3930   1.144   3.467   0.088  0.2780  1.6017 -0.3323
   11MOL   H111 3931   1.208   3.322   0.031  0.0430  1.1244  2.0703
   11MOL   H112 3932   1.045   3.220   0.164  0.0132  1.0135  1.9097
   11MOL   H113 3933   0.938   3.349   0.155 -0.2253  0.9306 -1.4772
   11MOL   H114 3934   0.711   2.988   7.579 -0.9114  3.1343 -0.8596
   11MOL   H115 3935   0.818   3.085   7.472  1.4561  1.3457  0.2907
   11MOL   C116 3936   0.920   2.910   7.560  0.0646 -0.1241 -0.3391
   11MOL   C117 3937   0.933   2.840   0.002  0.2598 -0.4535  0.6812
   11MOL   C118 3938   0.816   2.754   0.036  0.1339 -0.5415  0.6453
   11MOL   C119 3939   0.868   2.680   0.150 -0.5286 -0.2162  0.2911
   11MOL   C120 3940   1.005   2.641   0.108 -0.6603 -0.0090 -0.1052
   11MOL   C121 3941   1.054   2.753   0.023 -0.5434 -0.4280 -0.2330
   11MOL   C122 3942   0.901   2.819   7.441  0.2544  0.3518 -0.0096
   11MOL   H123 3943   1.013   2.961   7.535  1.0028 -0.9991  1.3253
   11MOL   H124 3944   0.935   2.911   0.084 -1.5345 -1.9001  2.0370
   11MOL   H125 3945   0.726   2.810   0.064 -0.1235 -0.5481 -0.1559
   11MOL   H126 3946   0.793   2.690   7.641 -0.2246  2.0535 -1.2655
   11MOL   H127 3947   0.803   2.595   0.171  1.6418 -2.3874 -1.4039
   11MOL   H128 3948   0.860   2.742   0.239  0.7112  1.7335 -0.9227
   11MOL   H129 3949   1.011   2.546   0.055  0.9335  0.4096 -0.7139
   11MOL   H130 3950   1.067   2.624   0.196 -2.1966  0.7573  1.1621
   11MOL   H131 3951   1.126   2.812   0.079 -3.4529  0.6964  2.4931
   11MOL   H132 3952   1.096   2.722   7.617 -0.0923  0.0421 -0.1884
   11MOL   H133 3953   0.792   2.806   7.435 -0.1610  2.5573  2.0342
   11MOL   H134 3954   0.947   2.721   7.451 -1.0084 -0.4198 -1.4464
   11MOL   C135 3955   0.948   2.890   7.305  0.9980  0.1187  0.3589
   11MOL   C136 3956   0.868   2.844   7.180  0.6710  0.2848  0.1305
   11MOL   C137 3957   0.720   2.883   7.183  0.1789 -0.1735  0.0350
   11MOL   C138 3958   0.646   2.763   7.131 -0.4598 -0.2158  0.0605
   11MOL   C139 3959   0.737   2.646   7.170  0.9166 -0.4372  0.2643
   11MOL   C140 3960   0.881   2.694   7.147 -0.1825 -0.6200  0.0471
   11MOL   C141 3961   1.104   2.876   7.287 -0.2637 -0.2778 -0.5079
   11MOL   H142 3962   0.920   2.995   7.300  0.3104 -0.0020  1.4595
   11MOL   H143 3963   0.916   2.891   7.094 -0.4531  1.0407 -0.0944
   11MOL   H144 3964   0.680   2.903   7.282  0.2399 -1.7488  0.3888
   11MOL   H145 3965   0.706   2.961   7.109 -0.5553  1.3744  1.7645
   11MOL   H146 3966   0.635   2.764   7.023 -0.1884 -0.4463  0.0295
   11MOL   H147 3967   0.543   2.770   7.167 -0.8844  0.3358 -1.2252
   11MOL   H148 3968   0.721   2.550   7.119  1.1879 -0.7015  0.6743
   11MOL   H149 3969   0.720   2.619   7.274  0.2418 -2.1715 -0.2655
   11MOL   H150 3970   0.949   2.633   7.207  1.8167 -0.1720 -1.6872
   11MOL   H151 3971   0.906   2.678   7.042  0.0695 -0.9901  0.1593
   11MOL   H152 3972   1.129   2.789   7.227 -0.1765 -0.8720  0.3749
   11MOL   H153 3973   1.139   2.842   7.385  1.0729  0.4723 -0.7163
   11MOL   C154 3974   1.183   3.004   7.262  0.7874 -0.2155 -0.1637
   11MOL   C155 3975   1.333   3.000   7.307  0.1131 -0.1675  0.0808
   11MOL   C156 3976   1.414   2.884   7.241 -0.7273 -0.4644  0.2404
   11MOL   C157 3977   1.502   2.842   7.367  0.0615  0.0942 -0.0760
   11MOL   C158 3978   1.415   2.870   7.489 -0.1977 -0.1588 -0.2490
   11MOL   C159 3979   1.341   2.999   7.461  0.8396  0.7292  0.4455
   11MOL   C160 3980   1.168   3.049   7.115  0.4062 -0.2540  0.2065
   11MOL   H161 3981   1.139   3.078   7.329 -0.8561 -1.1521 -0.1745
   11MOL   H162 3982   1.382   3.090   7.269 -0.0318 -0.2516 -0.3197
   11MOL   H163 3983   1.348   2.806   7.204  0.3933 -1.7232  0.8590
   11MOL   H164 3984   1.476   2.914   7.157 -1.8525  3.5350  0.7145
   11MOL   H165 3985   1.529   2.736   7.365 -0.5862 -0.0601 -0.9986
   11MOL   H166 3986   1.595   2.898   7.358 -1.1823  2.2241 -0.0069
   11MOL   H167 3987   1.471   2.876   7.583  2.0200 -1.8522 -1.4190
   11MOL   H168 3988   1.344   2.788   7.499 -0.1813 -0.1816 -0.3283
   11MOL   H169 3989   1.390   3.092   7.492  0.5507  1.0591 -0.0770
   11MOL   H170 3990   1.252   3.000   7.523 -1.4646 -1.6743 -2.6939
   11MOL   H171 3991   1.069   3.013   7.085  0.6905 -0.2965 -0.7139
   11MOL   H172 3992   1.237   2.993   7.052 -0.3229 -1.0683  0.1181
   11MOL   C173 3993   1.195   3.200   7.075  0.2011 -0.1904  0.5338
   11MOL   C174 3994   1.072   3.284   7.026  0.6409 -0.6102  0.3930
   11MOL   C175 3995   0.966   3.299   7.137  0.0345 -0.1558  0.4099
   11MOL   C176 3996   0.827   3.318   7.066 -0.0581  0.4993  0.6012
   11MOL   C177 3997   0.861   3.305   6.915  0.1817 -0.5527 -0.2404
   11MOL   C178 3998   0.997   3.227   6.909 -0.1681 -0.3920 -0.0259
   11MOL   C179 3999   1.325   3.224   6.985 -0.1357  0.9914 -0.5082
   11MOL   H180 4000   1.225   3.251   7.167  1.1299  0.8715 -0.3304
   11MOL   H181 4001   1.106   3.382   6.993 -2.0681  0.2424  0.0357
   11MOL   H182 4002   0.990   3.380   7.206  1.3691  0.9112 -1.2625
   11MOL   H183 4003   0.957   3.217   7.208 -0.7930  0.8546  1.5050
   11MOL   H184 4004   0.772   3.229   7.096  3.7702 -2.1344  0.0925
   11MOL   H185 4005   0.776   3.404   7.111 -0.9951 -0.2144  0.9230
   11MOL   H186 4006   0.885   3.406   6.882  1.6832 -0.9705 -0.4744
   11MOL   H187 4007   0.777   3.263   6.858  0.4641 -0.4686 -0.7243
   11MOL   H188 4008   0.971   3.122   6.919 -0.0838 -0.4547 -0.4784
   11MOL   H189 4009   1.051   3.236   6.815  0.2364 -0.6294  0.1836
   11MOL   H190 4010   1.399   3.144   6.994  0.0939  0.8746 -3.0860
   11MOL   H191 4011   1.292   3.191   6.886 -1.2213 -1.8181  0.7280
   11MOL   C192 4012   1.393   3.358   6.986 -0.5591 -0.7254 -0.9275
   11MOL   C193 4013   1.441   3.401   6.845 -0.2591  0.8501  0.1701
   11MOL   C194 4014   1.339   3.429   6.735 -0.0003  0.3447  0.1416
   11MOL   C195 4015   1.409   3.408   6.603 -0.2763  0.1924  0.4365
   11MOL   C196 4016   1.544   3.343   6.626 -0.0790 -0.4492  0.4910
   11MOL   C197 4017   1.535   3.298   6.770 -1.1758  1.2012 -0.0249
   11MOL   C198 4018   1.501   3.357   7.106  0.1715  0.3732 -0.1585
   11MOL   H199 4019   1.314   3.429   7.011 -1.1090 -1.8170  0.4692
   11MOL   H200 4020   1.498   3.490   6.871  0.0073  1.1198 -1.2961
   11MOL   H201 4021   1.284   3.523   6.742  1.7060  1.8101 -4.1208
   11MOL   H202 4022   1.269   3.346   6.732 -0.0325  0.3161  1.3651
   11MOL   H203 4023   1.346   3.358   6.530 -1.1548  1.8658  0.0193
   11MOL   H204 4024   1.424   3.506   6.557  0.3643  0.0687  0.3717
   11MOL   H205 4025   1.622   3.419   6.630 -1.5005  0.9891  2.5703
   11MOL   H206 4026   1.565   3.275   6.544 -0.0716 -0.5306  0.5603
   11MOL   H207 4027   1.635   3.299   6.813 -1.5176  0.8979  0.7886
   11MOL   H208 4028   1.496   3.198   6.786  0.0034  0.8756  0.9147
   11MOL   H209 4029   1.458   3.292   7.181  0.1262 -0.7008 -1.1118
   11MOL   H210 4030   1.579   3.286   7.077 -0.2386 -0.9949  2.0161
   11MOL   C211 4031   1.562   3.487   7.162 -0.3949 -0.1666 -0.3121
   11MOL   C212 4032   1.461   3.585   7.210 -0.5639 -0.2785 -1.1190
   11MOL   C213 4033   1.384   3.544   7.336 -0.2673 -0.2930  0.3982
   11MOL   C214 4034   1.365   3.660   7.427 -0.1985 -0.2076  0.0314
   11MOL   C215 4035   1.398   3.776   7.338 -0.2985  0.3454 -0.0172
   11MOL   C216 4036   1.510   3.728   7.247  0.3897  0.0837  0.1286
   11MOL   C217 4037   1.672   3.446   7.265 -0.5116  0.2687 -0.0292
   11MOL   H218 4038   1.608   3.539   7.078 -2.3926  1.9877 -0.1467
   11MOL   H219 4039   1.384   3.606   7.135 -0.4805  3.7327 -0.1934
   11MOL   H220 4040   1.288   3.502   7.309 -0.3823  0.2959 -0.1263
   11MOL   H221 4041   1.431   3.464   7.393 -0.1716 -1.5280 -1.3653
   11MOL   H222 4042   1.274   3.645   7.486  0.9938 -0.6145  1.7987
   11MOL   H223 4043   1.445   3.660   7.501  1.0510  2.7967 -1.2730
   11MOL   H224 4044   1.449   3.852   7.397  0.4813 -0.0510 -0.1654
   11MOL   H225 4045   1.316   3.823   7.285  0.3165  0.6571 -0.7035
   11MOL   H226 4046   1.541   3.789   7.162  0.7455  0.6365  0.6443
   11MOL   H227 4047   1.598   3.710   7.309 -0.1006 -2.2982  0.1688
   11MOL   H228 4048   1.627   3.384   7.342  1.2190  1.1086  1.6968
   11MOL   H229 4049   1.713   3.526   7.327 -0.5244 -0.5152  0.9944
   11MOL   C230 4050   1.805   3.381   7.219 -0.0449  0.0144 -0.1148
   11MOL   C231 4051   1.851   3.275   7.321 -0.0076  0.1192 -1.0553
   11MOL   C232 4052   1.779   3.141   7.313  0.2131 -0.1246 -0.0374
   11MOL   C233 4053   1.867   3.045   7.396 -1.4623 -0.0933  0.5493
   11MOL   C234 4054   2.007   3.111   7.401 -0.3344  0.1415 -0.9113
   11MOL   C235 4055   1.996   3.233   7.309 -0.9923  0.3864 -0.6118
   11MOL   C236 4056   1.921   3.478   7.183  0.4275 -0.6846 -0.0513
   11MOL   H237 4057   1.784   3.325   7.128  2.0684 -1.4724  0.2882
   11MOL   H238 4058   1.849   3.317   7.421  0.2060  0.1232 -1.0522
   11MOL   H239 4059   1.681   3.152   7.360  0.3018  2.3901 -0.3975
   11MOL   H240 4060   1.783   3.090   7.217  1.5834  0.9114 -0.5398
   11MOL   H241 4061   1.827   3.037   7.497 -1.9835 -1.7626  0.2196
   11MOL   H242 4062   1.863   2.948   7.347 -1.6116  0.1087  0.1608
   11MOL   H243 4063   2.088   3.042   7.376 -0.1325 -0.9193  2.4712
   11MOL   H244 4064   2.029   3.154   7.498  0.9919 -3.1885  0.3494
   11MOL   H245 4065   2.035   3.216   7.208  3.4578 -1.1755  1.2325
   11MOL   H246 4066   2.064   3.310   7.346  2.4533 -3.0180  0.4287
   11MOL   H247 4067   1.996   3.427   7.123  2.9692  0.9586  1.6030
   11MOL   H248 4068   1.975   3.498   7.275 -1.1006  0.8807  0.5422
   11MOL   C249 4069   1.886   3.611   7.097 -0.2398 -0.5096 -0.0792
   11MOL   C250 4070   1.850   3.576   6.947  0.8644 -0.2200 -0.3713
   11MOL   C251 4071   1.966   3.513   6.866  0.3733 -0.1550 -0.1475
   11MOL   C252 4072   1.935   3.555   6.725 -0.0709  1.4263 -0.1856
   11MOL   C253 4073   1.859   3.687   6.730  0.0346  0.6480 -0.1898
   11MOL   C254 4074   1.794   3.689   6.870  0.0963 -0.1402  0.8919
   11MOL   C255 4075   2.012   3.699   7.116  0.1279 -0.1709 -0.3723
   11MOL   H256 4076   1.800   3.661   7.143  0.2331  1.2273 -1.0321
   11MOL   H257 4077   1.763   3.511   6.948  2.6027 -2.6279  1.7692
   11MOL   H258 4078   1.957   3.405   6.875 -4.4055  0.0286 -1.4105
   11MOL   H259 4079   2.069   3.547   6.877  1.1015 -1.5618 -2.3614
   11MOL   H260 4080   1.883   3.469   6.684  0.1488  1.2177 -0.0326
   11MOL   H261 4081   2.033   3.569   6.679  0.2794  2.0584  0.7188
   11MOL   H262 4082   1.781   3.689   6.654 -0.1958 -1.9502 -0.0606
   11MOL   H263 4083   1.931   3.764   6.704 -0.1381  0.3482 -1.6173
   11MOL   H264 4084   1.685   3.687   6.865  0.0484  1.7702  0.7249
   11MOL   H265 4085   1.811   3.792   6.901 -1.6097  1.2835 -2.5728
   11MOL   H266 4086   2.104   3.642   7.101  0.7459  1.2850 -2.4065
   11MOL   H267 4087   2.020   3.763   7.028  0.3539 -1.0950 -1.0336
   11MOL   C268 4088   2.022   3.772   7.252  1.2686 -0.0778  0.1253
   11MOL   C269 4089   2.015   3.926   7.237 -0.3372  0.2986 -0.2678
   11MOL   C270 4090   1.902   3.971   7.155 -0.0632 -0.6282 -0.2842
   11MOL   C271 4091   1.959   4.038   7.026 -0.4594  0.1728 -0.6193
   11MOL   C272 4092   2.097   4.084   7.072 -0.6560  0.5124 -0.0989
   11MOL   C273 4093   2.144   3.995   7.186  0.0539  0.1679  0.6497
   11MOL   C274 4094   2.151   3.724   7.331 -0.5057  0.8683 -0.2106
   11MOL   H275 4095   1.934   3.741   7.308  0.4445 -1.3569 -1.8262
   11MOL   H276 4096   2.009   3.963   7.339 -0.9226 -3.4199  1.1518
   11MOL   H277 4097   1.834   3.889   7.130  1.0365 -1.2329 -1.3921
   11MOL   H278 4098   1.841   4.033   7.219  0.4499 -1.0559  0.6308
   11MOL   H279 4099   1.970   3.964   6.947 -0.9410  0.7872 -1.2665
   11MOL   H280 4100   1.905   4.126   6.990  2.1077  1.4895 -1.3962
   11MOL   H281 4101   2.093   4.179   7.127 -1.1301  1.3936 -1.6290
   11MOL   H282 4102   2.169   4.097   6.991 -0.1190  0.1538  0.3244
   11MOL   H283 4103   2.191   4.058   7.262 -1.2269  0.8092  0.9223
   11MOL   H284 4104   2.218   3.919   7.163 -1.3888 -1.5213  1.4241
   11MOL   H285 4105   2.242   3.735   7.272 -0.0836 -1.7813 -0.1172
   11MOL   H286 4106   2.137   3.616   7.338 -0.1692  0.7799 -0.8805
   11MOL   C287 4107   2.169   3.778   7.472  0.4199  0.2920  0.1920
   11MOL   C288 4108   2.041   3.760   7.560 -0.3156  0.2562 -0.0697
   11MOL   C289 4109   1.995   3.623   7.599 -0.1496  0.0219 -0.8788
   11MOL   C290 4110   1.896   3.638   0.027  0.2347 -0.7815 -0.6841
   11MOL   C291 4111   1.946   3.758   0.101  0.1281  0.1731 -0.1947
   11MOL   C292 4112   2.040   3.831   0.007 -0.4222  0.1911  0.2230
   11MOL   C293 4113   2.291   3.713   7.538 -1.0462  0.4214  0.2212
   11MOL   H294 4114   2.175   3.887   7.473  0.8340  0.2766 -0.4024
   11MOL   H295 4115   1.954   3.798   7.506 -0.6295  0.9684  0.9175
   11MOL   H296 4116   1.955   3.559   7.521 -1.9802  0.9756 -0.7414
   11MOL   H297 4117   2.082   3.568   7.637  0.6573  1.5639 -0.4355
   11MOL   H298 4118   1.797   3.656   7.673  0.8504  0.6887 -1.5069
   11MOL   H299 4119   1.894   3.549   0.090  2.2241  0.7193  1.5750
   11MOL   H300 4120   1.988   3.724   0.196 -0.4533  0.3679  0.1349
   11MOL   H301 4121   1.856   3.816   0.122  0.7426  0.4152  1.9219
   11MOL   H302 4122   2.139   3.843   0.051 -1.3317 -1.9879  3.0079
   11MOL   H303 4123   1.985   3.925   0.000  0.8536  0.8395 -1.5462
   11MOL   H304 4124   2.299   3.610   7.505  0.7424  1.0397 -1.4330
   11MOL   H305 4125   2.281   3.710   7.647 -1.2820 -1.5297  0.1537
   11MOL   C306 4126   2.430   3.782   7.502  1.1341  0.4236 -1.0001
   11MOL   C307 4127   2.454   3.907   7.594 -0.6028  0.5095  1.0325
   11MOL   C308 4128   2.597   3.963   7.592  0.2335  0.9010 -0.2936
   11MOL   C309 4129   2.593   4.094   7.661 -0.5613 -0.4024  0.2053
   11MOL   C310 4130   2.456   4.154   7.638 -0.3786 -0.4829  0.5809
   11MOL   C311 4131   2.372   4.038   7.576  0.1108  0.1986  0.3184
   11MOL   C312 4132   2.555   3.688   7.495 -0.7230 -0.2720 -0.0078
   11MOL   H313 4133   2.420   3.830   7.405  0.0800  3.1346  0.4074
   11MOL   H314 4134   2.439   3.866   0.004  0.0301  2.3769  1.9291
   11MOL   H315 4135   2.631   3.972   7.489  1.2412 -1.7015 -0.2062
   11MOL   H316 4136   2.675   3.909   7.645  0.1539 -0.1202 -1.2073
   11MOL   H317 4137   2.609   4.091   0.079  1.6982 -1.9623 -0.1368
   11MOL   H318 4138   2.674   4.159   7.627 -0.8278  0.1397  0.6036
   11MOL   H319 4139   2.447   4.245   7.579 -1.8299 -0.6022  0.5805
   11MOL   H320 4140   2.408   4.184   0.042 -0.3124 -1.8634  1.0662
   11MOL   H321 4141   2.282   4.020   7.635  0.0322  0.6858  0.3477
   11MOL   H322 4142   2.364   4.061   7.470  0.8416 -0.0932  0.1955
   11MOL   H323 4143   2.574   3.650   7.595  0.6436  2.1242  0.6977
   11MOL   H324 4144   2.640   3.750   7.467  0.6756 -1.0137  2.4506
   11MOL   C325 4145   2.554   3.556   7.404  0.1234 -0.0366  0.2827
   11MOL   C326 4146   2.522   3.432   7.494  0.0362 -0.1028 -1.1515
   11MOL   C327 4147   2.640   3.350   7.541 -0.3402 -0.0026  0.1403
   11MOL   C328 4148   2.582   3.214   7.570 -0.0916  0.7196  0.4066
   11MOL   C329 4149   2.469   3.195   7.471 -0.1170 -0.4565  0.4876
   11MOL   C330 4150   2.437   3.328   7.414  0.6898  0.1083  0.3550
   11MOL   C331 4151   2.661   3.549   7.292  0.1143  0.2341  0.3452
   11MOL   H332 4152   2.464   3.565   7.343  0.2365  1.5166  0.3121
   11MOL   H333 4153   2.462   3.454   7.582  0.9959 -2.3611  0.0844
   11MOL   H334 4154   2.685   3.381   7.635  3.1548 -1.3170 -1.0456
   11MOL   H335 4155   2.725   3.361   7.474 -0.1420 -1.1962  0.1882
   11MOL   H336 4156   2.541   3.204   7.671  1.4828  1.9150  1.1819
   11MOL   H337 4157   2.653   3.132   7.566 -1.2806 -0.3458  0.8315
   11MOL   H338 4158   2.388   3.139   7.518  0.7104 -1.2538  0.9743
   11MOL   H339 4159   2.503   3.131   7.389  2.3334  0.1051  1.0461
   11MOL   H340 4160   2.331   3.343   7.432  0.5464 -2.4043  1.7788
   11MOL   H341 4161   2.470   3.335   7.310  1.4885 -1.7938  0.4627
   11MOL   H342 4162   2.682   3.443   7.275 -1.6014 -0.2648  1.1980
   11MOL   H343 4163   2.753   3.587   7.337  0.4602  1.0732 -1.0440
   11MOL   C344 4164   2.641   3.616   7.151  0.3521  0.5789 -0.3041
   11MOL   C345 4165   2.618   3.772   7.169  0.5218  0.3375  0.0778
   11MOL   C346 4166   2.573   3.840   7.034  0.4547 -0.8134  0.1998
   11MOL   C347 4167   2.591   3.990   7.059 -0.2596  0.6363  0.1624
   11MOL   C348 4168   2.717   4.000   7.151  0.2000  0.4179  0.7524
   11MOL   C349 4169   2.737   3.858   7.206  0.3038  0.0636  0.4838
   11MOL   C350 4170   2.547   3.544   7.051  0.4219 -0.6134  0.8691
   11MOL   H351 4171   2.737   3.604   7.101 -0.8805 -0.9516 -2.3671
   11MOL   H352 4172   2.551   3.794   7.252 -0.5252 -1.8206 -0.1644
   11MOL   H353 4173   2.467   3.814   7.025 -0.3403  2.2033  0.0650
   11MOL   H354 4174   2.625   3.811   6.942 -1.7668  1.7481 -1.9646
   11MOL   H355 4175   2.608   4.047   6.967 -0.4137  0.0521 -0.2341
   11MOL   H356 4176   2.496   4.027   7.097 -0.8887  0.0179 -0.7745
   11MOL   H357 4177   2.710   4.068   7.236 -3.7840  0.1824  0.7135
   11MOL   H358 4178   2.810   4.037   7.108 -0.5665  0.4051 -0.9325
   11MOL   H359 4179   2.822   3.828   7.145 -0.5311  0.5090 -0.9259
   11MOL   H360 4180   2.762   3.857   7.312  1.3757  0.4286  0.2373
   11MOL   H361 4181   2.545   3.595   6.955  0.6529 -2.3334 -0.0683
   11MOL   H362 4182   2.448   3.559   7.094  1.0277  0.7993  1.8029
   11MOL   C363 4183   2.572   3.391   7.023 -0.0646  0.3461 -0.1867
   11MOL   C364 4184   2.460   3.333   6.939  0.3522 -0.2937  0.1815
   11MOL   C365 4185   2.326   3.343   7.005 -0.2373  0.1458  0.0718
   11MOL   C366 4186   2.250   3.207   6.982 -0.4709  0.2863  0.4254
   11MOL   C367 4187   2.330   3.137   6.879  0.0418  0.1136  0.6020
   11MOL   C368 4188   2.470   3.179   6.904 -0.0804 -0.3286 -0.3770
   11MOL   C369 4189   2.710   3.369   6.940 -0.2806 -0.3534 -0.3912
   11MOL   H370 4190   2.578   3.333   7.115 -2.2816  0.5798  0.1248
   11MOL   H371 4191   2.455   3.384   6.843  2.4566 -0.1292  0.1260
   11MOL   H372 4192   2.324   3.370   7.111 -2.3774 -2.5406  0.7581
   11MOL   H373 4193   2.272   3.428   6.963  1.3434  1.1942  0.0999
   11MOL   H374 4194   2.236   3.145   7.071  0.0497 -0.9326 -0.3320
   11MOL   H375 4195   2.152   3.233   6.944 -1.1030  1.0299  2.4872
   11MOL   H376 4196   2.312   3.031   6.893 -0.0274  0.2324  1.4349
   11MOL   H377 4197   2.299   3.173   6.780  2.3193 -1.2283 -0.6323
   11MOL   H378 4198   2.547   3.156   6.830  0.0037  0.5247 -0.5574
   11MOL   H379 4199   2.497   3.121   6.992 -3.2052 -1.0070  0.2097
   11MOL   H380 4200   2.793   3.415   6.995 -1.2775  0.8400  0.1493
   11MOL   H381 4201   2.708   3.419   6.843 -0.0570  1.1406  0.3571
   11MOL   H382 4202   2.727   3.263   6.926  0.3979 -0.3670  0.4939
   12MOL     C1 4203   2.239   0.962   4.101 -0.0663  0.4178 -0.6678
   12MOL     C2 4204   2.365   1.051   4.109 -0.3504  0.1823  0.0619
   12MOL     C3 4205   2.354   1.164   4.217  0.7245  0.1337  0.0406
   12MOL     C4 4206   2.472   1.256   4.180 -0.0017  0.6597  1.1090
   12MOL     C5 4207   2.487   1.243   4.023  0.0101  0.0818  0.4962
   12MOL     C6 4208   2.404   1.119   3.979  0.0800  0.0574  0.0010
   12MOL     C7 4209   2.225   0.849   4.210  0.2824 -0.3249  0.5149
   12MOL     H8 4210   2.145   1.017   4.097 -1.9843 -2.7786 -0.9697
   12MOL     H9 4211   2.451   0.988   4.132 -0.1733 -0.0940 -1.3666
   12MOL    H10 4212   2.263   1.222   4.203  0.3825  0.0178  1.6526
   12MOL    H11 4213   2.378   1.133   4.319  0.4307 -0.8058 -0.1697
   12MOL    H12 4214   2.452   1.360   4.204 -0.8139  0.6908  0.3282
   12MOL    H13 4215   2.556   1.214   4.236  0.3435 -1.1431 -0.7012
   12MOL    H14 4216   2.445   1.325   3.964 -0.3522  1.1705  2.2459
   12MOL    H15 4217   2.594   1.235   4.002 -0.3203 -2.6875 -0.3076
   12MOL    H16 4218   2.452   1.050   3.911 -0.0530  1.0541 -1.1214
   12MOL    H17 4219   2.313   1.147   3.926 -0.0524 -0.2154  0.0815
   12MOL    H18 4220   2.252   0.898   4.303  1.6731 -1.4695  0.7360
   12MOL    H19 4221   2.119   0.825   4.221 -0.1132  0.3674 -1.5695
   12MOL    H20 4222   2.256   0.915   4.005  1.5859 -1.3686  0.4651
   12MOL    C21 4223   2.294   0.716   4.169 -0.3437  0.2289 -0.3081
   12MOL    C22 4224   2.303   0.625   4.304  0.2657 -0.6569 -0.4255
   12MOL    C23 4225   2.379   0.689   4.419 -0.2232  0.0699 -0.7625
   12MOL    C24 4226   2.408   0.568   4.516  0.4432 -0.0414 -0.7962
   12MOL    C25 4227   2.417   0.442   4.432 -0.2469 -0.4270 -0.3868
   12MOL    C26 4228   2.387   0.495   4.284  0.4151  0.3997  0.5447
   12MOL    C27 4229   2.217   0.637   4.054 -0.3330 -0.6755 -0.0572
   12MOL    H28 4230   2.396   0.731   4.134  0.1413  1.7072  1.6776
   12MOL    H29 4231   2.206   0.587   4.336  0.1759  0.7359  1.0196
   12MOL    H30 4232   2.312   0.752   4.477 -1.1626 -2.1112  0.6181
   12MOL    H31 4233   2.471   0.742   4.396  1.1366 -1.7779  0.2343
   12MOL    H32 4234   2.507   0.581   4.559 -0.0706 -0.8377  0.6619
   12MOL    H33 4235   2.334   0.572   4.596  0.3905 -1.3193 -0.7756
   12MOL    H34 4236   2.327   0.386   4.454  0.2351 -1.3376 -0.7203
   12MOL    H35 4237   2.506   0.382   4.449  0.0752  0.0143 -0.5023
   12MOL    H36 4238   2.348   0.417   4.218 -1.1933  1.6661 -0.0362
   12MOL    H37 4239   2.483   0.529   4.247  0.1945 -1.5058 -1.9327
   12MOL    H38 4240   2.144   0.568   4.096  0.9573 -0.6472  2.2798
   12MOL    H39 4241   2.153   0.710   4.005 -0.6396  0.2824  1.7468
   12MOL    C40 4242   2.315   0.576   3.956 -0.4312 -0.3987 -0.3006
   12MOL    C41 4243   2.251   0.463   3.866  0.0478 -0.0733 -0.2130
   12MOL    C42 4244   2.124   0.509   3.782  0.0551 -0.8151 -0.9235
   12MOL    C43 4245   2.064   0.377   3.737 -0.1216 -0.0316 -0.0556
   12MOL    C44 4246   2.067   0.291   3.865  0.0954 -0.0921 -0.7041
   12MOL    C45 4247   2.202   0.335   3.937 -0.4549  1.0556  0.2268
   12MOL    C46 4248   2.385   0.681   3.864 -0.0734  0.0478  0.1430
   12MOL    H47 4249   2.400   0.528   4.003 -0.1874  0.1665 -0.1616
   12MOL    H48 4250   2.316   0.422   3.789  0.6206 -0.2059  0.3385
   12MOL    H49 4251   2.150   0.560   3.689  0.3468  0.1545 -0.3225
   12MOL    H50 4252   2.055   0.562   3.848 -0.8551 -0.2084 -2.3580
   12MOL    H51 4253   2.132   0.325   3.670  0.1926 -1.0755  1.0620
   12MOL    H52 4254   1.966   0.389   3.690 -1.1150 -0.3701  1.8542
   12MOL    H53 4255   1.982   0.311   3.930  0.5651  1.7341 -0.6125
   12MOL    H54 4256   2.058   0.189   3.827  0.5067 -0.7474  0.9040
   12MOL    H55 4257   2.194   0.364   4.042 -0.3385  1.5018  0.1150
   12MOL    H56 4258   2.272   0.252   3.938 -1.6735  0.0211  1.0725
   12MOL    H57 4259   2.340   0.671   3.765 -1.7659 -1.6658  1.0681
   12MOL    H58 4260   2.360   0.783   3.892  2.3814  1.2237 -1.7007
   12MOL    C59 4261   2.541   0.678   3.833  0.1717 -0.6544  0.0857
   12MOL    C60 4262   2.575   0.715   3.687 -0.1388 -1.0237 -0.2740
   12MOL    C61 4263   2.536   0.862   3.649 -0.5534  0.5517 -0.3254
   12MOL    C62 4264   2.508   0.867   3.503  0.3478  0.2385  0.1394
   12MOL    C63 4265   2.445   0.729   3.477 -0.1346 -0.4442  0.2442
   12MOL    C64 4266   2.509   0.631   3.576  0.6632 -0.8999 -0.0153
   12MOL    C65 4267   2.620   0.761   3.937  0.0644 -0.3928  0.5552
   12MOL    H66 4268   2.566   0.572   3.844 -0.5934 -1.0095 -1.4225
   12MOL    H67 4269   2.683   0.712   3.673 -0.1209  1.0499 -0.7076
   12MOL    H68 4270   2.620   0.920   3.687 -0.7456  0.1428  0.7503
   12MOL    H69 4271   2.455   0.899   3.712  0.4827  1.6710  0.3789
   12MOL    H70 4272   2.601   0.883   3.448 -1.3327 -0.2958 -2.9431
   12MOL    H71 4273   2.454   0.960   3.487 -1.7636 -1.1249 -0.8108
   12MOL    H72 4274   2.457   0.705   3.371 -1.7069 -1.1281  0.1959
   12MOL    H73 4275   2.336   0.727   3.490  0.1144 -1.2209  2.3452
   12MOL    H74 4276   2.439   0.564   3.626  1.5110 -1.3431  0.5890
   12MOL    H75 4277   2.588   0.566   3.537  2.2846  0.2814  1.2086
   12MOL    H76 4278   2.569   0.752   4.033 -1.1096 -1.0669 -0.1214
   12MOL    H77 4279   2.620   0.868   3.914  0.4519 -0.8338 -1.6158
   12MOL    C78 4280   2.767   0.725   3.959  0.1509 -0.4017 -0.0789
   12MOL    C79 4281   2.860   0.851   3.952 -0.0428  0.5234 -0.1230
   12MOL    C80 4282   2.832   0.974   4.052 -0.4031 -0.0164  0.1457
   12MOL    C81 4283   2.886   1.096   3.990  0.0569 -0.0122  0.1741
   12MOL    C82 4284   2.881   1.062   3.841 -0.4348  0.0448 -0.1675
   12MOL    C83 4285   2.889   0.917   3.819 -0.0761 -0.5942 -0.5573
   12MOL    C84 4286   2.798   0.632   4.082  0.2346  0.3759  0.2123
   12MOL    H85 4287   2.789   0.664   3.872  0.8894  0.7084 -0.6842
   12MOL    H86 4288   2.958   0.822   3.991 -0.7540 -0.2473  1.1538
   12MOL    H87 4289   2.885   0.958   4.146  2.6114  0.8673 -1.3312
   12MOL    H88 4290   2.729   0.988   4.082 -0.6262  0.2321 -0.7234
   12MOL    H89 4291   2.987   1.116   4.026 -0.5991  0.9128  1.5024
   12MOL    H90 4292   2.827   1.181   4.023  1.0577  0.4257  0.8596
   12MOL    H91 4293   2.792   1.101   3.792  0.8945  2.1906 -0.9564
   12MOL    H92 4294   2.960   1.116   3.789 -1.7069 -0.0080 -2.2267
   12MOL    H93 4295   2.827   0.880   3.738 -2.0358  0.5750  0.3748
   12MOL    H94 4296   2.994   0.899   3.797  0.6817  1.1317  1.4528
   12MOL    H95 4297   2.712   0.634   4.150  0.0346 -3.1851  0.1531
   12MOL    H96 4298   2.879   0.669   4.145 -1.0440  0.1912  2.0218
   12MOL    C97 4299   2.818   0.483   4.046 -0.4823 -0.3863  0.1979
   12MOL    C98 4300   2.731   0.395   4.139 -0.5021  0.3355  0.9735
   12MOL    C99 4301   2.745   0.246   4.113  0.4870 -0.1077  0.4885
   12MOL   C100 4302   2.692   0.183   4.245 -0.5418  0.0564 -0.0266
   12MOL   C101 4303   2.751   0.268   4.360  0.1053 -0.2316 -0.2095
   12MOL   C102 4304   2.765   0.405   4.292 -0.2111 -0.0081 -0.3866
   12MOL   C103 4305   2.972   0.446   4.051 -0.5635  0.0933  0.2681
   12MOL   H104 4306   2.767   0.460   3.953  1.3108 -1.2137 -0.6125
   12MOL   H105 4307   2.627   0.419   4.121 -0.5011  0.8349  1.5851
   12MOL   H106 4308   2.689   0.215   4.025  3.9980 -1.4896 -1.3156
   12MOL   H107 4309   2.845   0.204   4.113  0.4324 -0.3321  2.9485
   12MOL   H108 4310   2.722   0.079   4.248  1.8355  0.7270  0.5111
   12MOL   H109 4311   2.583   0.183   4.246 -0.5353 -0.2841  0.8772
   12MOL   H110 4312   2.853   0.246   4.393  0.3865  2.3154  0.7182
   12MOL   H111 4313   2.689   0.266   4.449 -1.0872  0.8988 -0.9959
   12MOL   H112 4314   2.691   0.469   4.340  1.2194  0.8902  0.6517
   12MOL   H113 4315   2.861   0.444   4.323  0.5275 -0.2041 -2.3150
   12MOL   H114 4316   3.014   0.474   4.148 -0.4393  0.5845  0.0746
   12MOL   H115 4317   2.986   0.339   4.038  0.3059  0.3245 -0.7371
   12MOL   C116 4318   3.062   0.503   3.938 -0.5487 -0.7414  0.3524
   12MOL   C117 4319   3.212   0.502   3.973  0.0939  0.0483  1.0386
   12MOL   C118 4320   3.260   0.579   4.098  0.2074 -0.4656 -0.2737
   12MOL   C119 4321   3.389   0.518   4.144 -0.2479  0.4198  0.7662
   12MOL   C120 4322   3.411   0.403   4.041  0.0394  0.7358  0.6163
   12MOL   C121 4323   3.275   0.364   3.986  0.0014 -0.1597  0.0838
   12MOL   C122 4324   3.035   0.433   3.803 -0.9044 -0.8123 -0.5611
   12MOL   H123 4325   3.038   0.608   3.918  0.0178 -0.6995 -0.1188
   12MOL   H124 4326   3.267   0.566   3.904 -1.2962 -0.6505 -0.7483
   12MOL   H125 4327   3.264   0.685   4.074 -0.3866 -0.6553 -1.2284
   12MOL   H126 4328   3.186   0.575   4.179  0.6296 -0.1322  0.1367
   12MOL   H127 4329   3.375   0.476   4.244 -1.3189 -0.5610  0.2211
   12MOL   H128 4330   3.474   0.585   4.142 -0.3175  0.4966 -1.2975
   12MOL   H129 4331   3.456   0.316   4.088  0.1818  0.2273 -0.4640
   12MOL   H130 4332   3.478   0.432   3.960  0.8667 -1.0424  0.6418
   12MOL   H131 4333   3.284   0.320   3.886 -3.0496 -0.8307  0.0622
   12MOL   H132 4334   3.227   0.296   4.056  0.1179  3.6754  4.0334
   12MOL   H133 4335   2.929   0.415   3.784 -1.4733  2.0798 -0.2992
   12MOL   H134 4336   3.058   0.326   3.808 -0.8296 -0.9613 -3.2592
   12MOL   C135 4337   3.092   0.508   3.686  1.0007  0.2078 -0.6481
   12MOL   C136 4338   2.998   0.598   3.608  0.4642 -0.1426 -0.0214
   12MOL   C137 4339   2.937   0.531   3.474  0.2753 -0.3099  0.1918
   12MOL   C138 4340   2.885   0.654   3.397  0.3967  0.3051  0.2315
   12MOL   C139 4341   3.008   0.747   3.408 -0.2661  1.1002 -0.5331
   12MOL   C140 4342   3.060   0.726   3.552  0.3969 -0.3525 -0.4342
   12MOL   C141 4343   3.183   0.402   3.598 -0.3765 -0.6685 -0.7943
   12MOL   H142 4344   3.158   0.583   3.731  2.8115 -1.0972 -1.0819
   12MOL   H143 4345   2.917   0.615   3.678 -0.6356  0.8319 -1.4969
   12MOL   H144 4346   3.010   0.482   3.410  0.7683  0.9920 -0.2617
   12MOL   H145 4347   2.869   0.455   3.511 -0.5198  0.9398  1.3628
   12MOL   H146 4348   2.792   0.684   3.445  1.1209 -1.2953  2.6837
   12MOL   H147 4349   2.854   0.621   3.298  1.4422 -0.5905  0.1951
   12MOL   H148 4350   2.983   0.852   3.396  1.1746  1.5410  0.2861
   12MOL   H149 4351   3.078   0.710   3.334  0.6026  2.8664 -0.6131
   12MOL   H150 4352   3.168   0.742   3.549 -0.0898  3.9211  0.9441
   12MOL   H151 4353   3.012   0.805   3.610  0.7235 -0.2355 -0.3211
   12MOL   H152 4354   3.114   0.335   3.547 -1.0123  0.1366 -0.9906
   12MOL   H153 4355   3.244   0.347   3.669 -1.1325 -0.5445 -0.0479
   12MOL   C154 4356   3.284   0.459   3.496  0.1252  0.1193 -0.3896
   12MOL   C155 4357   3.405   0.535   3.566  0.0456 -0.2606 -0.3421
   12MOL   C156 4358   3.482   0.634   3.481  0.4379  1.2013  0.4739
   12MOL   C157 4359   3.623   0.642   3.543  0.3380  0.0498 -0.4181
   12MOL   C158 4360   3.628   0.541   3.655  0.1772  0.9769 -0.0212
   12MOL   C159 4361   3.512   0.445   3.628 -0.8139 -0.2084 -0.3850
   12MOL   C160 4362   3.344   0.345   3.403 -0.0575  0.5302 -0.0044
   12MOL   H161 4363   3.240   0.533   3.429 -0.5014 -0.0539 -0.1715
   12MOL   H162 4364   3.359   0.597   3.643  1.0776  1.0138 -0.7343
   12MOL   H163 4365   3.479   0.605   3.376 -0.1431  1.7297  0.3426
   12MOL   H164 4366   3.444   0.734   3.501 -1.5015  1.0239 -2.0878
   12MOL   H165 4367   3.706   0.632   3.472 -1.2539 -1.7848 -2.0815
   12MOL   H166 4368   3.636   0.747   3.569 -0.5431  0.9146 -3.2847
   12MOL   H167 4369   3.622   0.580   3.757  0.4293  0.3717  0.2302
   12MOL   H168 4370   3.721   0.485   3.649 -1.6460 -2.2776  0.4624
   12MOL   H169 4371   3.484   0.394   3.720 -0.4413  0.1102 -0.0907
   12MOL   H170 4372   3.551   0.363   3.567 -1.7084 -1.7012  1.0149
   12MOL   H171 4373   3.364   0.255   3.461 -2.6292 -0.4566 -0.6036
   12MOL   H172 4374   3.441   0.380   3.367 -0.5794  2.5092  0.4339
   12MOL   C173 4375   3.266   0.304   3.277  0.9782  0.3474  0.2936
   12MOL   C174 4376   3.231   0.414   3.170 -0.3613  0.2334  0.8164
   12MOL   C175 4377   3.190   0.358   3.030 -0.2355  0.0275  0.2612
   12MOL   C176 4378   3.257   0.441   2.920  0.0079 -0.5520 -0.5159
   12MOL   C177 4379   3.310   0.564   2.997  0.2434 -0.2020 -0.0074
   12MOL   C178 4380   3.337   0.524   3.142 -1.3570  0.3681 -0.0607
   12MOL   C179 4381   3.137   0.221   3.309 -0.0251  0.4534 -0.4180
   12MOL   H180 4382   3.340   0.242   3.225 -0.9260  1.1566 -3.5529
   12MOL   H181 4383   3.142   0.470   3.197  0.1619  2.1155 -1.2109
   12MOL   H182 4384   3.083   0.363   3.008  0.8669  2.9340 -5.3372
   12MOL   H183 4385   3.218   0.253   3.023  1.0699  0.2904  1.3776
   12MOL   H184 4386   3.334   0.392   2.862 -0.6920 -0.9645 -1.1111
   12MOL   H185 4387   3.181   0.472   2.848  2.3610  1.3354 -2.2580
   12MOL   H186 4388   3.229   0.637   2.994  1.0854  0.8112  1.3289
   12MOL   H187 4389   3.388   0.618   2.943 -0.6720 -0.9183 -2.1115
   12MOL   H188 4390   3.442   0.493   3.146 -0.9146  1.9435  0.9499
   12MOL   H189 4391   3.321   0.610   3.207  0.6015  0.5543  0.2124
   12MOL   H190 4392   3.141   0.178   3.409  2.4539  1.4038 -0.0707
   12MOL   H191 4393   3.059   0.297   3.314  1.1689  1.7782 -1.4036
   12MOL   C192 4394   3.084   0.107   3.220 -0.0877  0.7729 -0.1975
   12MOL   C193 4395   2.934   0.059   3.271  0.4287  0.5517 -0.6969
   12MOL   C194 4396   2.863   7.649   3.180 -0.1443 -0.2952 -0.2525
   12MOL   C195 4397   2.722   7.639   3.234  0.4242 -0.3977 -0.0889
   12MOL   C196 4398   2.701   0.104   3.261  0.4188  0.4522 -0.2579
   12MOL   C197 4399   2.836   0.170   3.273 -0.2732 -0.4535 -0.2221
   12MOL   C198 4400   3.180   7.674   3.228  0.1104  0.1546 -0.3232
   12MOL   H199 4401   3.072   0.139   3.117 -2.0026 -1.2796 -0.6530
   12MOL   H200 4402   2.942   0.012   3.368 -1.8406  2.0302  0.2497
   12MOL   H201 4403   2.907   7.550   3.167 -1.2419 -0.8367  0.1261
   12MOL   H202 4404   2.848   0.004   3.082  0.7863 -1.6004 -1.0087
   12MOL   H203 4405   2.653   7.601   3.159  2.4535 -0.8002 -1.7927
   12MOL   H204 4406   2.718   7.579   3.325  1.1806 -0.6528 -0.2265
   12MOL   H205 4407   2.638   0.118   3.349 -1.0531 -4.6970 -0.3622
   12MOL   H206 4408   2.638   0.147   3.183 -1.7761  0.4693  1.4429
   12MOL   H207 4409   2.828   0.224   3.367  0.1772  0.0155 -0.4521
   12MOL   H208 4410   2.856   0.237   3.190 -1.4279 -3.6636 -3.2284
   12MOL   H209 4411   3.254   7.677   3.308 -1.0387 -0.2854  0.7933
   12MOL   H210 4412   3.125   7.585   3.260  0.8887 -0.0690  0.4188
   12MOL   C211 4413   3.247   7.637   3.090 -0.1778 -0.4840  0.2483
   12MOL   C212 4414   3.376   7.546   3.114  0.2664  0.3192  0.0296
   12MOL   C213 4415   3.491   7.622   3.189  0.2930 -0.2306  0.7970
   12MOL   C214 4416   3.552   7.522   3.278 -0.4803 -0.1015 -0.6096
   12MOL   C215 4417   3.486   7.387   3.252  0.5042  0.4568  0.2774
   12MOL   C216 4418   3.352   7.422   3.199 -0.1492  0.4009 -0.0461
   12MOL   C217 4419   3.142   7.567   2.997  0.4819  0.1325 -0.8958
   12MOL   H218 4420   3.276   0.032   3.027 -0.8252 -2.9292 -3.5238
   12MOL   H219 4421   3.419   7.510   3.021  0.1299 -0.6551  0.3443
   12MOL   H220 4422   3.558   7.653   3.109 -2.3896  0.9399 -1.0702
   12MOL   H221 4423   3.450   0.022   3.236 -0.0005  0.4097 -0.6726
   12MOL   H222 4424   3.658   7.506   3.258 -0.5578  0.5234 -1.5732
   12MOL   H223 4425   3.542   7.547   3.383  0.1213  0.1571 -0.6120
   12MOL   H224 4426   3.483   7.321   3.339  0.2848  0.7985  0.5291
   12MOL   H225 4427   3.537   7.335   3.170  0.8475  1.1269  0.0623
   12MOL   H226 4428   3.310   7.336   3.146 -0.2871  0.0120  0.6860
   12MOL   H227 4429   3.281   7.437   3.280 -0.4785 -1.3570  0.0154
   12MOL   H228 4430   3.062   7.638   2.978  0.1636 -0.4884 -1.9079
   12MOL   H229 4431   3.092   7.489   3.054 -0.0071 -0.9971 -2.8156
   12MOL   C230 4432   3.198   7.504   2.864  0.0918  0.0528  0.2508
   12MOL   C231 4433   3.261   7.622   2.778 -0.0383  0.4215  0.2770
   12MOL   C232 4434   3.322   7.584   2.643  0.1695 -0.0477  0.2216
   12MOL   C233 4435   3.299   0.018   2.556  0.1617  0.5982 -0.3047
   12MOL   C234 4436   3.196   0.111   2.628 -0.3641  0.4026 -0.0833
   12MOL   C235 4437   3.149   0.039   2.749 -1.1915 -0.5421  0.0762
   12MOL   C236 4438   3.091   7.418   2.793  0.3391 -0.6949  0.1105
   12MOL   H237 4439   3.284   7.440   2.885  0.0429 -0.4946 -1.1304
   12MOL   H238 4440   3.337   7.677   2.833 -0.6283  0.9281  0.6046
   12MOL   H239 4441   3.424   7.552   2.665  0.1697 -0.2243 -0.0338
   12MOL   H240 4442   3.267   7.507   2.590  1.4014 -0.1728 -0.8873
   12MOL   H241 4443   3.398   0.058   2.535  0.0022  2.2098  1.8618
   12MOL   H242 4444   3.262   7.680   2.458 -1.6078 -0.8288  0.7413
   12MOL   H243 4445   3.112   0.139   2.565 -1.2206 -1.6189  0.1212
   12MOL   H244 4446   3.245   0.205   2.651 -1.3010  0.7780  0.4121
   12MOL   H245 4447   3.052   7.682   2.732 -0.5578 -2.3980  1.3557
   12MOL   H246 4448   3.130   0.118   2.822  1.5349 -0.8986  1.2117
   12MOL   H247 4449   3.116   7.415   2.687  1.8769  2.6045  0.3116
   12MOL   H248 4450   2.999   7.476   2.795  0.3131 -0.6942 -0.9448
   12MOL   C249 4451   3.051   7.282   2.850  0.2094 -0.1331 -0.1770
   12MOL   C250 4452   3.169   7.185   2.843  0.4135  0.5459 -0.0271
   12MOL   C251 4453   3.226   7.137   2.712  0.5565  0.2573  0.7378
   12MOL   C252 4454   3.330   7.036   2.744  0.0376 -0.0738  0.5044
   12MOL   C253 4455   3.261   6.954   2.853  0.0885  0.0173 -0.1697
   12MOL   C254 4456   3.155   7.042   2.910  0.7619 -0.4157 -0.3171
   12MOL   C255 4457   2.924   7.226   2.773 -0.2341  0.3299 -0.0243
   12MOL   H256 4458   3.034   7.290   2.957 -1.0974 -0.5908 -0.3458
   12MOL   H257 4459   3.257   7.238   2.882 -1.0326  3.8043 -1.0656
   12MOL   H258 4460   3.263   7.223   2.656 -0.7462  0.3324 -0.0059
   12MOL   H259 4461   3.150   7.089   2.652  2.4308 -1.0643 -0.6218
   12MOL   H260 4462   3.428   7.077   2.768 -0.2776  0.1683  1.3878
   12MOL   H261 4463   3.330   6.978   2.652 -2.6379 -2.5263  1.9534
   12MOL   H262 4464   3.340   6.922   2.922 -0.8899 -0.2786  0.8192
   12MOL   H263 4465   3.222   6.859   2.818  0.0715 -0.3711  0.8759
   12MOL   H264 4466   3.156   7.058   3.018  1.4875  1.3164 -0.5703
   12MOL   H265 4467   3.057   6.999   2.887 -0.6862  3.8320 -2.7950
   12MOL   H266 4468   2.957   7.202   2.672  0.9615 -0.0117  0.4484
   12MOL   H267 4469   2.909   7.130   2.822 -0.3530  0.2105 -0.2948
   12MOL   C268 4470   2.788   7.300   2.771 -0.1080 -0.1086 -0.0981
   12MOL   C269 4471   2.723   7.300   2.914 -0.0315 -0.1345  0.0383
   12MOL   C270 4472   2.698   7.166   2.984 -0.0797  0.8886  1.0565
   12MOL   C271 4473   2.570   7.178   3.061 -0.2825  0.5203 -0.1332
   12MOL   C272 4474   2.485   7.251   2.960 -0.4386 -0.8325  0.1608
   12MOL   C273 4475   2.584   7.357   2.911  0.7315  0.4965 -0.4512
   12MOL   C274 4476   2.695   7.231   2.667 -0.6314  0.3919  0.2129
   12MOL   H275 4477   2.817   7.397   2.731  0.2105  0.3085  1.1399
   12MOL   H276 4478   2.779   7.366   2.980 -0.6389  1.3206 -0.9011
   12MOL   H277 4479   2.695   7.087   2.909 -1.0444  2.3699 -0.4902
   12MOL   H278 4480   2.788   7.140   3.041  0.7572  0.3751 -0.4809
   12MOL   H279 4481   2.518   7.084   3.080  1.6843 -1.0719 -2.3246
   12MOL   H280 4482   2.579   7.251   3.141  0.7680  0.1058  0.1386
   12MOL   H281 4483   2.385   7.281   2.993  0.7618  1.7526  1.6076
   12MOL   H282 4484   2.466   7.189   2.873  2.2657  0.9106 -1.7347
   12MOL   H283 4485   2.567   7.430   2.990  0.4962  0.5129 -0.5154
   12MOL   H284 4486   2.557   7.408   2.818  2.2884 -1.3040 -1.9238
   12MOL   H285 4487   2.600   7.284   2.671 -0.3425  0.7862  2.4858
   12MOL   H286 4488   2.664   7.136   2.711  0.4729 -0.3859 -0.6473
   12MOL   C287 4489   2.740   7.213   2.518  0.1137 -0.0743  0.0963
   12MOL   C288 4490   2.727   7.073   2.458  0.0081  0.2597  0.4516
   12MOL   C289 4491   2.761   7.041   2.309  0.2294  0.0701  0.2098
   12MOL   C290 4492   2.779   6.887   2.302  0.5831  0.0169 -0.1490
   12MOL   C291 4493   2.826   6.842   2.443 -0.2961 -0.2732  0.2297
   12MOL   C292 4494   2.812   6.971   2.535  0.2318 -0.0042  0.1666
   12MOL   C293 4495   2.669   7.322   2.430 -0.0904 -0.3443 -0.0158
   12MOL   H294 4496   2.845   7.243   2.509 -0.1393  0.8376  0.1075
   12MOL   H295 4497   2.626   7.036   2.477 -0.6725  1.5929 -0.5124
   12MOL   H296 4498   2.685   7.081   2.242  0.0508  1.1767  1.0468
   12MOL   H297 4499   2.860   7.086   2.298  1.2294 -1.5217  2.4144
   12MOL   H298 4500   2.685   6.833   2.283 -0.4677  2.1642 -1.2812
   12MOL   H299 4501   2.847   6.862   2.220  2.3867 -2.0580  1.9300
   12MOL   H300 4502   2.928   6.811   2.420 -0.6268 -1.7271  0.6928
   12MOL   H301 4503   2.769   6.755   2.475  1.1225 -1.3211 -0.0509
   12MOL   H302 4504   2.918   6.980   2.558  0.3023  0.2786 -0.2721
   12MOL   H303 4505   2.762   6.948   2.629  0.3746 -4.6092 -0.7644
   12MOL   H304 4506   2.568   7.339   2.469 -0.2354  0.4213 -0.7111
   12MOL   H305 4507   2.652   7.291   2.327 -3.2239  1.9039 -0.2687
   12MOL   C306 4508   2.726   7.472   2.418  0.0839 -0.0529  0.4762
   12MOL   C307 4509   2.850   7.474   2.333  0.0818 -0.2811 -0.5211
   12MOL   C308 4510   2.826   7.467   2.180 -0.1811  0.3238  0.2850
   12MOL   C309 4511   2.905   7.575   2.110  0.0345 -0.3130 -0.0635
   12MOL   C310 4512   3.011   7.619   2.211 -0.8700  0.2296 -0.1969
   12MOL   C311 4513   2.938   7.605   2.347  0.7872 -0.9593  0.2760
   12MOL   C312 4514   2.619   7.584   2.382 -0.3912  0.3450  0.6102
   12MOL   H313 4515   2.760   7.502   2.517 -2.5680 -1.6789  1.9357
   12MOL   H314 4516   2.919   7.393   2.354  1.1854  1.0205  1.0115
   12MOL   H315 4517   2.719   7.471   2.156  0.1389  2.5377 -0.9286
   12MOL   H316 4518   2.868   7.374   2.142 -1.2570  0.2130 -0.6603
   12MOL   H317 4519   2.948   7.531   2.021  1.8723  1.2667  0.0199
   12MOL   H318 4520   2.831   7.650   2.083  0.5933  0.1451 -0.3399
   12MOL   H319 4521   3.047   0.032   2.202 -1.3812  0.4976  0.8153
   12MOL   H320 4522   3.089   7.544   2.196  0.7687  1.2959  2.6189
   12MOL   H321 4523   3.019   7.593   2.420  0.9271  0.7768  0.4165
   12MOL   H322 4524   2.870   7.689   2.359 -0.3836 -1.8032 -0.3772
   12MOL   H323 4525   2.521   7.538   2.366 -0.1640  0.2610 -0.5974
   12MOL   H324 4526   2.632   7.617   2.279 -1.7948  1.7483  0.8614
   12MOL   C325 4527   2.601   0.015   2.486 -0.4008  0.7245 -0.2051
   12MOL   C326 4528   2.508   7.673   2.611  0.3033 -0.4440  0.4158
   12MOL   C327 4529   2.355   0.001   2.589  0.2434  0.1124  0.5416
   12MOL   C328 4530   2.288   0.021   2.727 -0.1396  0.0468  0.1415
   12MOL   C329 4531   2.388   0.105   2.803 -0.2944 -0.8930  0.1763
   12MOL   C330 4532   2.524   0.071   2.737 -0.0559  0.5436 -0.5462
   12MOL   C331 4533   2.558   0.149   2.421  0.4141 -0.0997  0.1324
   12MOL   H332 4534   2.704   0.019   2.520  0.5130 -0.7759 -2.6229
   12MOL   H333 4535   2.525   7.570   2.644 -0.3621 -0.7505 -0.1748
   12MOL   H334 4536   2.305   7.608   2.538  0.3132  0.4340 -0.0500
   12MOL   H335 4537   2.342   0.099   2.542  0.7529 -0.0745  0.0058
   12MOL   H336 4538   2.273   7.620   2.785  1.5563 -0.8703 -0.8147
   12MOL   H337 4539   2.192   0.073   2.730  0.6488  1.6112 -0.6025
   12MOL   H338 4540   2.401   0.085   2.909  0.5157  1.3058  0.5225
   12MOL   H339 4541   2.365   0.211   2.790 -1.9648 -0.9879  2.1495
   12MOL   H340 4542   2.594   0.042   2.815 -1.0705  0.6320  0.4120
   12MOL   H341 4543   2.562   0.166   2.700  1.8090  0.1234  0.2402
   12MOL   H342 4544   2.529   0.220   2.498 -1.6060 -2.0548  1.2410
   12MOL   H343 4545   2.466   0.128   2.365 -1.6909  1.7159  2.7978
   12MOL   C344 4546   2.663   0.211   2.326 -0.3993 -0.1978 -0.6945
   12MOL   C345 4547   2.771   0.281   2.410 -0.0740 -0.3187 -0.1087
   12MOL   C346 4548   2.715   0.414   2.470 -0.4703 -0.2319 -0.9987
   12MOL   C347 4549   2.838   0.485   2.514 -0.1648  0.3621 -0.3142
   12MOL   C348 4550   2.952   0.435   2.421  0.3557 -0.3961  0.8469
   12MOL   C349 4551   2.893   0.329   2.333 -0.7788 -0.1906  0.6048
   12MOL   C350 4552   2.597   0.303   2.217 -0.5112  0.6012 -0.0565
   12MOL   H351 4553   2.708   0.127   2.272  1.2099  0.3664 -0.2784
   12MOL   H352 4554   2.805   0.213   2.488 -1.3869  1.6688  2.2601
   12MOL   H353 4555   2.651   0.385   2.552 -1.1162 -0.9491 -1.7437
   12MOL   H354 4556   2.659   0.476   2.400  0.4541 -0.2919 -1.8129
   12MOL   H355 4557   2.822   0.592   2.529  2.1097  0.9440 -1.7682
   12MOL   H356 4558   2.863   0.469   2.618 -0.8802 -0.3875 -0.2532
   12MOL   H357 4559   3.035   0.410   2.486  1.0149  0.1177  0.2067
   12MOL   H358 4560   2.978   0.513   2.350 -3.2053  0.5565  0.4566
   12MOL   H359 4561   2.858   0.381   2.244 -3.6742 -1.0961  1.1619
   12MOL   H360 4562   2.964   0.252   2.303 -0.1089  1.3188 -1.8542
   12MOL   H361 4563   2.650   0.395   2.196 -1.8613  1.2447 -0.6829
   12MOL   H362 4564   2.494   0.331   2.241 -1.1619 -1.1498 -0.6797
   12MOL   C363 4565   2.581   0.229   2.080 -0.1569  0.2996  0.2035
   12MOL   C364 4566   2.467   0.294   1.998  0.7713 -0.0513  0.2486
   12MOL   C365 4567   2.324   0.280   2.060 -0.2341  0.6374  1.2973
   12MOL   C366 4568   2.226   0.257   1.943 -0.2611  0.4197 -0.2294
   12MOL   C367 4569   2.309   0.292   1.811 -0.1568  0.0340 -0.1911
   12MOL   C368 4570   2.452   0.263   1.845 -0.1479 -0.5101 -0.1033
   12MOL   C369 4571   2.713   0.231   1.998 -0.4315  0.4907  0.0111
   12MOL   H370 4572   2.559   0.123   2.095  0.2701  0.2576  0.5304
   12MOL   H371 4573   2.492   0.401   1.997  0.8046  0.0534  4.2689
   12MOL   H372 4574   2.319   0.190   2.120 -2.4121  0.0288  0.2721
   12MOL   H373 4575   2.294   0.366   2.121 -2.2097  2.6191 -2.2552
   12MOL   H374 4576   2.216   0.149   1.930 -0.9555  0.6700 -1.9499
   12MOL   H375 4577   2.126   0.301   1.947 -0.0755  1.0787 -2.0402
   12MOL   H376 4578   2.272   0.243   1.721 -0.4487  1.5442 -0.9244
   12MOL   H377 4579   2.312   0.400   1.793 -1.7311  0.3427  1.2718
   12MOL   H378 4580   2.519   0.310   1.772 -2.4329  0.7274 -1.4484
   12MOL   H379 4581   2.468   0.155   1.835 -0.7374 -0.4746 -1.5411
   12MOL   H380 4582   2.732   0.331   1.958 -2.0423  0.0302 -2.0279
   12MOL   H381 4583   2.710   0.169   1.908  0.3695 -1.5187  1.3234
   12MOL   H382 4584   2.795   0.191   2.057  0.8073  2.3581 -0.4020
   13MOL     C1 4585   4.891   3.591   0.438 -0.3797 -0.3570 -0.6154
   13MOL     C2 4586   4.952   3.463   0.379  0.5270 -0.6504  0.5091
   13MOL     C3 4587   5.019   3.382   0.480 -0.1311 -0.3884  0.3635
   13MOL     C4 4588   5.117   3.294   0.410  0.0412  0.9534 -0.5159
   13MOL     C5 4589   5.171   3.381   0.301 -0.2693 -0.1633  0.1273
   13MOL     C6 4590   5.061   3.487   0.269  0.7754  0.2004 -0.2278
   13MOL     C7 4591   4.783   3.560   0.542  0.3853  0.1689 -0.1516
   13MOL     H8 4592   4.964   3.653   0.490 -0.9643  0.7636 -1.1023
   13MOL     H9 4593   4.874   3.393   0.349  0.0552 -0.0169  0.2399
   13MOL    H10 4594   5.083   3.436   0.549 -0.2678 -1.2042  1.1487
   13MOL    H11 4595   4.947   3.325   0.538 -3.3347  2.0190 -1.1115
   13MOL    H12 4596   5.182   3.246   0.483  0.4590  1.4671 -0.5548
   13MOL    H13 4597   5.055   3.215   0.367  0.8775 -1.6346  2.8363
   13MOL    H14 4598   5.265   3.429   0.329 -0.0456  0.1071 -1.0513
   13MOL    H15 4599   5.198   3.321   0.214 -1.4268 -1.9202  0.9505
   13MOL    H16 4600   5.011   3.463   0.175  1.9891 -0.3313 -0.7416
   13MOL    H17 4601   5.097   3.590   0.266 -0.9954  0.8034 -1.4418
   13MOL    H18 4602   4.711   3.494   0.493  1.0391 -0.5991 -0.0908
   13MOL    H19 4603   4.823   3.493   0.618  1.9818  2.3805  1.0368
   13MOL    H20 4604   4.857   3.658   0.359  0.3190  0.6285 -0.0869
   13MOL    C21 4605   4.722   3.678   0.621 -0.0410  0.1211  0.0612
   13MOL    C22 4606   4.609   3.739   0.543  0.2299 -1.3903  0.9681
   13MOL    C23 4607   4.579   3.891   0.562  0.4181  0.0025  0.2152
   13MOL    C24 4608   4.447   3.916   0.492 -1.3084  1.0950 -0.1463
   13MOL    C25 4609   4.355   3.814   0.558  0.0847 -0.0117  1.1472
   13MOL    C26 4610   4.458   3.691   0.559 -0.0635 -0.1436 -0.3386
   13MOL    C27 4611   4.676   3.647   0.765 -0.0227 -0.3598  0.5947
   13MOL    H28 4612   4.801   3.752   0.622  0.7799 -0.7360 -0.1916
   13MOL    H29 4613   4.638   3.729   0.439  0.5044  0.5038  0.8372
   13MOL    H30 4614   4.653   3.961   0.523  1.8096 -2.6989 -2.2117
   13MOL    H31 4615   4.570   3.908   0.669 -1.5014 -1.9967  0.4165
   13MOL    H32 4616   4.413   4.019   0.502  0.5754  1.8874 -1.5847
   13MOL    H33 4617   4.452   3.900   0.384  0.2793  0.5350  0.0013
   13MOL    H34 4618   4.274   3.790   0.490  0.5938  0.5497  0.3183
   13MOL    H35 4619   4.317   3.843   0.656  0.7139  1.0794  1.0759
   13MOL    H36 4620   4.435   3.641   0.465 -0.0575 -1.6176  0.4422
   13MOL    H37 4621   4.431   3.644   0.653 -3.4197  4.7945  1.3760
   13MOL    H38 4622   4.598   3.719   0.791  0.3053  1.5293 -3.2704
   13MOL    H39 4623   4.608   3.563   0.778  0.0492 -0.1637  2.3289
   13MOL    C40 4624   4.787   3.638   0.869 -0.1624  0.3399 -0.0359
   13MOL    C41 4625   4.799   3.761   0.957 -0.0966  0.1911  0.4942
   13MOL    C42 4626   4.830   3.888   0.870 -0.7131 -0.1498 -0.4686
   13MOL    C43 4627   4.925   3.985   0.951 -0.0743 -0.1756  0.4035
   13MOL    C44 4628   4.957   3.912   1.080 -0.4872  0.2946 -0.9516
   13MOL    C45 4629   4.912   3.764   1.064 -0.2014  0.4822 -0.0600
   13MOL    C46 4630   4.758   3.514   0.950  0.4226  0.0358  0.1329
   13MOL    H47 4631   4.883   3.614   0.823 -0.0655 -2.4911  1.5106
   13MOL    H48 4632   4.704   3.767   1.009 -1.3860  0.8567 -1.8589
   13MOL    H49 4633   4.732   3.933   0.858 -0.8227 -0.3335 -0.2409
   13MOL    H50 4634   4.858   3.873   0.765  1.1507 -1.1122  0.1455
   13MOL    H51 4635   4.873   4.079   0.969 -0.9878 -0.1241 -2.2399
   13MOL    H52 4636   5.013   4.028   0.903 -0.4058  0.5259  0.4161
   13MOL    H53 4637   5.064   3.923   1.098 -0.6775 -0.9205  1.0529
   13MOL    H54 4638   4.892   3.957   1.156  1.6920  1.2926  0.3577
   13MOL    H55 4639   4.987   3.692   1.032  0.6906 -0.7133  4.4099
   13MOL    H56 4640   4.883   3.724   1.161  1.8931  0.3530  0.5176
   13MOL    H57 4641   4.806   3.528   1.046 -0.3096 -1.6328  0.7550
   13MOL    H58 4642   4.652   3.517   0.976  0.4397  0.4485  0.1579
   13MOL    C59 4643   4.777   3.372   0.885  0.8102  0.5146  0.0394
   13MOL    C60 4644   4.910   3.310   0.914 -0.1799  0.4270 -0.0234
   13MOL    C61 4645   5.032   3.393   0.879 -0.5853 -0.1826  0.4891
   13MOL    C62 4646   5.150   3.300   0.845 -0.8283  0.1805 -0.0266
   13MOL    C63 4647   5.088   3.164   0.854  0.4587  0.8668  0.3131
   13MOL    C64 4648   4.936   3.177   0.838 -0.6540 -0.3895 -1.0620
   13MOL    C65 4649   4.659   3.274   0.922 -0.7097 -0.2830  0.1025
   13MOL    H66 4650   4.766   3.395   0.779 -2.1300  0.6100  0.3113
   13MOL    H67 4651   4.915   3.292   1.022  0.7823 -0.1304 -0.1611
   13MOL    H68 4652   5.068   3.476   0.941  2.9070 -0.3019 -1.2364
   13MOL    H69 4653   5.008   3.431   0.780  0.5804  1.8911  0.9616
   13MOL    H70 4654   5.225   3.319   0.922  0.5000  3.3827 -2.0253
   13MOL    H71 4655   5.198   3.307   0.747 -1.9567 -1.3683 -0.7073
   13MOL    H72 4656   5.116   3.121   0.950  1.1530 -1.3688 -0.8436
   13MOL    H73 4657   5.133   3.097   0.781  0.8465  1.0409  0.3937
   13MOL    H74 4658   4.920   3.191   0.731 -1.0358 -1.7669 -1.1880
   13MOL    H75 4659   4.879   3.089   0.866 -0.3665 -0.6463 -1.2818
   13MOL    H76 4660   4.642   3.279   1.029  0.2786 -0.5466  0.2757
   13MOL    H77 4661   4.681   3.171   0.894  0.7689  0.8862 -3.4158
   13MOL    C78 4662   4.526   3.298   0.858 -0.4232  0.4220  0.2988
   13MOL    C79 4663   4.526   3.265   0.713 -0.1748 -0.4931 -0.0841
   13MOL    C80 4664   4.399   3.310   0.635 -0.8519  0.0585 -0.5713
   13MOL    C81 4665   4.400   3.238   0.505  0.0875  0.3286  0.4023
   13MOL    C82 4666   4.458   3.098   0.543  0.6483 -0.2161  0.8451
   13MOL    C83 4667   4.529   3.119   0.671 -0.1380  0.2034 -0.4709
   13MOL    C84 4668   4.419   3.221   0.940  0.1476 -0.1704 -0.3435
   13MOL    H85 4669   4.506   3.404   0.872  1.1251  0.8434 -0.5862
   13MOL    H86 4670   4.605   3.316   0.659 -1.1282 -0.5096 -1.5341
   13MOL    H87 4671   4.406   3.419   0.632  1.0049 -0.0593 -2.5221
   13MOL    H88 4672   4.312   3.280   0.694  0.1990 -1.8397  0.0660
   13MOL    H89 4673   4.456   3.295   0.432  1.3273 -3.0832 -1.3977
   13MOL    H90 4674   4.296   3.227   0.474 -0.4534  0.8520  1.9510
   13MOL    H91 4675   4.383   3.021   0.556  1.2072 -1.0688 -0.8496
   13MOL    H92 4676   4.514   3.052   0.462  0.3558 -0.6229  0.8731
   13MOL    H93 4677   4.471   3.054   0.736 -0.1708  0.7212  0.0163
   13MOL    H94 4678   4.631   3.080   0.659 -0.4741 -0.4588 -1.2716
   13MOL    H95 4679   4.459   3.128   0.979 -0.6426 -0.5887 -0.5100
   13MOL    H96 4680   4.340   3.182   0.876  0.2203 -1.3732  0.2802
   13MOL    C97 4681   4.339   3.297   1.053 -0.7522  0.4116 -0.4185
   13MOL    C98 4682   4.369   3.238   1.192  0.2920 -0.9377  0.3957
   13MOL    C99 4683   4.515   3.256   1.245 -0.2143  0.6332  0.0779
   13MOL   C100 4684   4.517   3.225   1.398 -0.4999  0.2492  0.3874
   13MOL   C101 4685   4.369   3.245   1.444  0.2038  0.8018  0.0049
   13MOL   C102 4686   4.295   3.304   1.319  0.1653  0.7378  0.1746
   13MOL   C103 4687   4.182   3.296   1.022 -0.2998  0.0824 -0.2265
   13MOL   H104 4688   4.374   3.400   1.059 -0.8811  0.4472 -0.2798
   13MOL   H105 4689   4.345   3.132   1.189  1.6016 -1.2150 -0.3922
   13MOL   H106 4690   4.573   3.178   1.197 -0.2700  1.1138 -0.7718
   13MOL   H107 4691   4.545   3.357   1.217  0.2733  0.1339 -1.2009
   13MOL   H108 4692   4.587   3.298   1.440 -0.0813  0.7220 -1.0883
   13MOL   H109 4693   4.551   3.124   1.423  0.5152  0.6934  0.8748
   13MOL   H110 4694   4.369   3.307   1.534  0.8104  1.2212 -0.2790
   13MOL   H111 4695   4.321   3.150   1.466 -0.6231  0.8341 -1.6668
   13MOL   H112 4696   4.189   3.277   1.314  0.5525 -0.5015 -2.8328
   13MOL   H113 4697   4.297   3.413   1.321 -1.4146  0.8668 -2.7812
   13MOL   H114 4698   4.155   3.200   0.980 -1.6146  0.2662  0.1572
   13MOL   H115 4699   4.124   3.301   1.114 -1.6594  0.4567 -1.0935
   13MOL   C116 4700   4.132   3.411   0.931 -0.2472  0.0118  0.0504
   13MOL   C117 4701   3.996   3.390   0.867  0.4952 -0.3298  0.6253
   13MOL   C118 4702   4.004   3.284   0.749  0.0889  0.3011  0.0737
   13MOL   C119 4703   3.858   3.247   0.731  0.5045 -0.5623  0.1772
   13MOL   C120 4704   3.795   3.243   0.871 -0.7254 -0.1636 -0.1625
   13MOL   C121 4705   3.879   3.341   0.958 -0.1709  0.7201 -0.0442
   13MOL   C122 4706   4.123   3.546   1.012 -0.1014  0.4463 -0.2448
   13MOL   H123 4707   4.208   3.434   0.856 -0.5829  0.6408 -0.1011
   13MOL   H124 4708   3.952   3.467   0.803 -0.4612 -1.0748  0.3727
   13MOL   H125 4709   4.054   3.329   0.663 -1.3901  0.2325 -0.8327
   13MOL   H126 4710   4.064   3.198   0.780  1.4631  1.2476  0.0726
   13MOL   H127 4711   3.850   3.158   0.669  1.3149  1.7169 -3.3397
   13MOL   H128 4712   3.815   3.329   0.672  2.7998  0.4840 -0.0838
   13MOL   H129 4713   3.824   3.148   0.916  0.5942  0.4520  0.2954
   13MOL   H130 4714   3.687   3.253   0.882 -0.5996 -0.8112  1.9563
   13MOL   H131 4715   3.834   3.433   0.995  1.0754  1.3514 -0.0811
   13MOL   H132 4716   3.911   3.294   1.051  0.1580  2.7001  0.8734
   13MOL   H133 4717   4.195   3.543   1.094  1.1401 -1.4336 -1.3517
   13MOL   H134 4718   4.033   3.563   1.071 -0.9195 -0.7419 -1.1205
   13MOL   C135 4719   4.143   3.674   0.928 -0.1913  0.2185  0.6929
   13MOL   C136 4720   4.250   3.761   0.994 -0.8279 -0.0944  0.4607
   13MOL   C137 4721   4.390   3.702   1.026 -0.5280 -0.2531 -0.2497
   13MOL   C138 4722   4.420   3.734   1.171 -0.6528  0.0184  0.2163
   13MOL   C139 4723   4.325   3.847   1.218 -0.3905 -0.9939  0.2616
   13MOL   C140 4724   4.199   3.822   1.132 -0.2239  0.1959  0.0747
   13MOL   C141 4725   4.011   3.743   0.910  0.2025  0.8785  0.4355
   13MOL   H142 4726   4.182   3.644   0.830  0.7774 -0.2157  1.1977
   13MOL   H143 4727   4.268   3.849   0.933  0.0414 -0.1153  0.6884
   13MOL   H144 4728   4.388   3.596   1.000  0.2977 -0.4491  0.4584
   13MOL   H145 4729   4.458   3.760   0.964  1.9172 -1.7833  0.9254
   13MOL   H146 4730   4.522   3.763   1.196 -0.1449 -1.9326  0.4871
   13MOL   H147 4731   4.404   3.636   1.216 -1.4020 -0.4944 -1.1396
   13MOL   H148 4732   4.376   3.940   1.194 -1.0888 -0.8412 -0.6520
   13MOL   H149 4733   4.316   3.845   1.327  2.2625 -0.5116  0.5339
   13MOL   H150 4734   4.137   3.747   1.180  0.0025  1.8334  3.0351
   13MOL   H151 4735   4.141   3.914   1.120 -0.8371 -0.4360 -2.0360
   13MOL   H152 4736   3.961   3.760   1.005 -0.8732  1.9781 -0.3155
   13MOL   H153 4737   3.940   3.671   0.869  1.5011  0.2964 -0.8396
   13MOL   C154 4738   4.006   3.872   0.817 -0.2508 -0.3126  0.1287
   13MOL   C155 4739   4.001   3.839   0.662  0.2381 -0.0512 -0.1672
   13MOL   C156 4740   4.015   3.951   0.552 -0.0556 -0.5099  0.3713
   13MOL   C157 4741   3.969   3.892   0.425 -0.5290  0.5165  0.6352
   13MOL   C158 4742   3.906   3.759   0.455  0.6566  0.1507 -0.7202
   13MOL   C159 4743   3.881   3.759   0.610 -0.6690 -0.0857 -0.0408
   13MOL   C160 4744   3.893   3.962   0.859  0.5497 -0.9864  0.0565
   13MOL   H161 4745   4.102   3.921   0.832 -0.1904 -0.0910 -0.9578
   13MOL   H162 4746   4.088   3.775   0.649  0.7890  0.7988 -0.7414
   13MOL   H163 4747   3.951   4.035   0.578 -0.4481 -1.2928  1.9808
   13MOL   H164 4748   4.116   3.993   0.554 -1.3449  2.8111 -0.8942
   13MOL   H165 4749   3.899   3.956   0.371 -0.0542  2.0883  1.8272
   13MOL   H166 4750   4.056   3.882   0.360 -2.0546 -0.0691 -1.3490
   13MOL   H167 4751   3.979   3.679   0.443  1.6896  0.9047  0.4279
   13MOL   H168 4752   3.813   3.743   0.400  1.6388 -0.0601 -2.3570
   13MOL   H169 4753   3.877   3.661   0.658  2.1798 -0.7876 -1.1347
   13MOL   H170 4754   3.792   3.813   0.643 -0.5530 -0.6760  1.2903
   13MOL   H171 4755   3.820   3.893   0.902  2.0677 -0.6898  3.2148
   13MOL   H172 4756   3.842   3.996   0.769 -0.9866  0.9666  1.6111
   13MOL   C173 4757   3.930   4.072   0.966  0.5385  0.1773  0.0062
   13MOL   C174 4758   3.818   4.096   1.066  0.3755  0.6513 -0.3724
   13MOL   C175 4759   3.774   3.967   1.143 -0.0485  0.2072 -0.1702
   13MOL   C176 4760   3.637   3.996   1.192  0.0930 -1.0453 -0.1818
   13MOL   C177 4761   3.567   4.084   1.085 -0.4732  0.6412  0.2505
   13MOL   C178 4762   3.686   4.142   1.003 -0.1769 -0.3641 -0.1026
   13MOL   C179 4763   3.977   4.205   0.902  0.2680 -0.0726  0.1423
   13MOL   H180 4764   4.011   4.043   1.033 -1.0610  0.6037  2.1785
   13MOL   H181 4765   3.849   4.169   1.140  0.7186 -0.5606  0.6989
   13MOL   H182 4766   3.838   3.945   1.229 -1.4593  2.5782  1.5613
   13MOL   H183 4767   3.775   3.869   1.096 -0.5878 -0.7508  1.7593
   13MOL   H184 4768   3.579   3.912   1.231 -1.4134 -0.6923 -1.5920
   13MOL   H185 4769   3.666   4.060   1.275  1.6128 -1.2979 -0.5028
   13MOL   H186 4770   3.489   4.152   1.117  1.3887  1.6268  2.8836
   13MOL   H187 4771   3.513   4.013   1.021  1.7714  0.3671 -1.4269
   13MOL   H188 4772   3.677   4.118   0.897 -0.5455 -0.8270  0.0307
   13MOL   H189 4773   3.672   4.249   1.017 -1.0579 -0.3627 -0.9079
   13MOL   H190 4774   3.894   4.242   0.841  1.0850  0.4472 -0.6719
   13MOL   H191 4775   3.994   4.274   0.985  2.2137 -0.0445 -0.2607
   13MOL   C192 4776   4.108   4.217   0.812  0.9665  0.1553  0.1767
   13MOL   C193 4777   4.234   4.179   0.899  0.1234  0.7131 -0.7634
   13MOL   C194 4778   4.275   4.284   0.999 -0.3169 -0.4160 -0.0872
   13MOL   C195 4779   4.419   4.255   1.035 -1.1803 -0.8318 -0.0017
   13MOL   C196 4780   4.472   4.148   0.932  0.2671 -0.6132  0.1855
   13MOL   C197 4781   4.371   4.144   0.821  0.3789 -0.5873  0.6674
   13MOL   C198 4782   4.108   4.348   0.728 -0.7136  0.2959 -0.3942
   13MOL   H199 4783   4.100   4.132   0.745 -0.9873  1.8496 -1.8051
   13MOL   H200 4784   4.207   4.092   0.960  1.5124  0.2750 -0.7644
   13MOL   H201 4785   4.199   4.283   1.077  1.7784  0.7420  2.0554
   13MOL   H202 4786   4.276   4.384   0.955 -0.8676 -0.5158 -0.3294
   13MOL   H203 4787   4.476   4.348   1.038  0.4314 -1.7195 -2.2024
   13MOL   H204 4788   4.425   4.232   1.142 -1.5410  2.6532  0.8212
   13MOL   H205 4789   4.481   4.046   0.971 -1.1673 -0.3680  1.1830
   13MOL   H206 4790   4.572   4.178   0.901  0.4993 -0.5671  0.9623
   13MOL   H207 4791   4.365   4.046   0.773  0.5145 -0.0115 -0.5382
   13MOL   H208 4792   4.391   4.225   0.752  1.9077  0.3171  2.1345
   13MOL   H209 4793   4.014   4.385   0.687 -0.4340  2.4389  0.8345
   13MOL   H210 4794   4.123   4.430   0.799 -0.7378  0.1957 -0.2733
   13MOL   C211 4795   4.214   4.360   0.611  1.0884  0.7753  0.3967
   13MOL   C212 4796   4.125   4.385   0.474 -0.3167 -0.5118  0.7046
   13MOL   C213 4797   4.019   4.278   0.439 -0.2546 -0.1504 -0.7588
   13MOL   C214 4798   3.939   4.347   0.325 -0.0424 -0.5266  0.1520
   13MOL   C215 4799   3.956   4.503   0.344  0.0456  0.3067 -0.4782
   13MOL   C216 4800   4.063   4.523   0.454 -0.0321 -0.1871  0.5074
   13MOL   C217 4801   4.310   4.472   0.643  0.7822  0.4841 -0.2283
   13MOL   H218 4802   4.258   4.262   0.590 -0.1373  0.6382 -1.6725
   13MOL   H219 4803   4.203   4.363   0.401 -0.6461 -0.4197  0.3251
   13MOL   H220 4804   4.071   4.185   0.413  2.2037  0.9837  0.0042
   13MOL   H221 4805   3.960   4.267   0.530 -0.6007  0.8272 -0.8595
   13MOL   H222 4806   3.986   4.329   0.228  0.0903  0.1773  0.0771
   13MOL   H223 4807   3.835   4.317   0.326 -0.0821 -0.4121 -0.5829
   13MOL   H224 4808   3.856   4.535   0.374 -0.4603 -1.6498 -0.0008
   13MOL   H225 4809   3.977   4.551   0.249  2.3944 -1.1946 -0.7591
   13MOL   H226 4810   4.134   4.600   0.425  0.6376 -0.8471  0.3917
   13MOL   H227 4811   4.011   4.561   0.542  0.8127 -1.4667  1.5893
   13MOL   H228 4812   4.362   4.435   0.731  0.8179 -1.4729 -1.0556
   13MOL   H229 4813   4.249   4.559   0.668 -1.3573 -1.0745  0.1153
   13MOL   C230 4814   4.404   4.526   0.533 -0.1799  0.3303  0.6192
   13MOL   C231 4815   4.544   4.457   0.543  0.6335  0.2476 -0.7603
   13MOL   C232 4816   4.633   4.477   0.666  0.1594 -0.5673  0.5263
   13MOL   C233 4817   4.740   4.383   0.667  0.8297  0.2018  0.5318
   13MOL   C234 4818   4.691   4.268   0.576  0.7481 -0.4454  0.3883
   13MOL   C235 4819   4.551   4.307   0.518  0.0105 -0.8296  0.3179
   13MOL   C236 4820   4.428   4.679   0.531 -0.0542  0.6422  0.4856
   13MOL   H237 4821   4.364   4.482   0.442 -0.7112  1.3800  0.3434
   13MOL   H238 4822   4.593   4.503   0.457  1.9765 -1.7497 -1.1040
   13MOL   H239 4823   4.672   4.579   0.665  1.0911 -0.8988  1.8832
   13MOL   H240 4824   4.573   4.476   0.757 -0.9357 -0.8241 -0.1934
   13MOL   H241 4825   4.829   4.433   0.630  1.7310 -1.5210  0.3466
   13MOL   H242 4826   4.759   4.337   0.764  0.1904  1.3806  1.2280
   13MOL   H243 4827   4.674   4.177   0.634  0.2629  0.7317  2.1326
   13MOL   H244 4828   4.760   4.255   0.493 -0.5886  0.0783 -0.8313
   13MOL   H245 4829   4.470   4.249   0.563 -1.9493  2.6289  1.4684
   13MOL   H246 4830   4.549   4.290   0.411  1.2745 -0.4837  0.2332
   13MOL   H247 4831   4.490   4.705   0.616  0.6468  0.0403  0.1602
   13MOL   H248 4832   4.339   4.731   0.567  1.5115  2.5167  1.7673
   13MOL   C249 4833   4.474   4.736   0.393 -0.4265  0.9437  0.5825
   13MOL   C250 4834   4.489   4.892   0.400 -0.4169 -0.2334  0.1819
   13MOL   C251 4835   4.563   4.957   0.283  0.1552 -0.6385 -0.1791
   13MOL   C252 4836   4.619   5.098   0.333 -0.6544 -0.6283 -0.3085
   13MOL   C253 4837   4.618   5.088   0.484  0.1210  0.3844  0.1211
   13MOL   C254 4838   4.595   4.936   0.508 -0.2410  0.5706 -0.2425
   13MOL   C255 4839   4.366   4.706   0.287 -0.0519  0.1406  0.6652
   13MOL   H256 4840   4.569   4.701   0.352  0.3268  0.6219  2.5511
   13MOL   H257 4841   4.394   4.945   0.407 -0.8395 -0.8933 -0.4006
   13MOL   H258 4842   4.523   4.948   0.182  0.1502 -0.1164 -0.2214
   13MOL   H259 4843   4.654   4.897   0.275 -0.3491 -1.7965  2.2242
   13MOL   H260 4844   4.569   5.190   0.303  1.7018  0.8327  0.0762
   13MOL   H261 4845   4.723   5.108   0.301 -0.8221 -1.0304 -1.0100
   13MOL   H262 4846   4.543   5.148   0.535  0.0663  0.8514 -0.5109
   13MOL   H263 4847   4.711   5.122   0.529 -0.5231  0.7256  1.2143
   13MOL   H264 4848   4.565   4.909   0.609  0.8497  0.0212 -0.0555
   13MOL   H265 4849   4.679   4.867   0.503 -1.8272 -1.6244  1.9538
   13MOL   H266 4850   4.311   4.618   0.320 -0.9036 -0.4777 -2.2731
   13MOL   H267 4851   4.284   4.776   0.303 -0.8565 -0.7846  0.6655
   13MOL   C268 4852   4.398   4.686   0.136  0.4386  0.1621  0.8772
   13MOL   C269 4853   4.281   4.730   0.043  0.2124  0.4180 -0.3386
   13MOL   C270 4854   4.246   4.878   0.052 -0.1638  0.0757 -0.2780
   13MOL   C271 4855   4.096   4.879   0.028  0.0759  0.0160 -0.0649
   13MOL   C272 4856   4.045   4.751   0.089 -0.4040 -0.2203  0.7683
   13MOL   C273 4857   4.150   4.649   0.050  0.3211 -0.2298  0.1472
   13MOL   C274 4858   4.449   4.541   0.104  0.3432  0.5500  0.6453
   13MOL   H275 4859   4.475   4.759   0.111 -0.7840  0.9730 -0.6162
   13MOL   H276 4860   4.315   4.724   7.629 -2.9358  0.6323 -1.4363
   13MOL   H277 4861   4.263   4.923   0.150  0.2185  0.2555 -0.4260
   13MOL   H278 4862   4.302   4.941   7.673 -1.0434  1.5311  0.3114
   13MOL   H279 4863   4.060   4.967   0.083 -0.7039  0.7469 -1.6918
   13MOL   H280 4864   4.070   4.892   7.613 -1.4085  0.2370  0.3202
   13MOL   H281 4865   3.945   4.719   0.061 -1.0077  1.6606  0.6626
   13MOL   H282 4866   4.045   4.762   0.197  1.4204 -2.7943  1.0803
   13MOL   H283 4867   4.122   4.620   7.638 -1.9478  0.0731  0.6559
   13MOL   H284 4868   4.151   4.561   0.113 -2.7460 -0.3735  0.0859
   13MOL   H285 4869   4.358   4.483   0.090  1.8804 -1.4714 -1.3289
   13MOL   H286 4870   4.500   4.499   0.191 -0.7352 -0.4055  0.8231
   13MOL   C287 4871   4.539   4.524   7.677  0.2321  0.3456  0.7509
   13MOL   C288 4872   4.670   4.593   0.026  0.0189  0.5710  0.4919
   13MOL   C289 4873   4.762   4.529   0.131  0.1161  0.6322 -0.4880
   13MOL   C290 4874   4.892   4.614   0.123  0.2440  0.4579 -0.0719
   13MOL   C291 4875   4.900   4.650   7.670 -0.0054  0.6202  0.3353
   13MOL   C292 4876   4.769   4.619   7.596 -0.5816  0.6487  0.5733
   13MOL   C293 4877   4.548   4.383   7.630  0.1771  0.5597 -0.0880
   13MOL   H294 4878   4.499   4.591   7.601  1.4964  0.9083  0.5751
   13MOL   H295 4879   4.652   4.692   0.068 -1.4709  1.4921 -2.1902
   13MOL   H296 4880   4.719   4.545   0.231  1.8420  0.7938  0.2448
   13MOL   H297 4881   4.786   4.424   0.117  1.3821  0.7033  0.9889
   13MOL   H298 4882   4.888   4.702   0.187 -0.8314 -0.5043  1.2265
   13MOL   H299 4883   4.983   4.555   0.135  0.7507  1.0097 -1.1319
   13MOL   H300 4884   4.977   4.590   7.622 -0.7623  0.6341 -0.9148
   13MOL   H301 4885   4.936   4.752   7.651  0.9436 -0.1453 -2.2592
   13MOL   H302 4886   4.781   4.525   7.542 -1.0869  1.1903 -0.4864
   13MOL   H303 4887   4.729   4.688   7.523  1.4817 -0.3234 -1.5388
   13MOL   H304 4888   4.578   4.320   0.024 -2.2422  2.2063  2.0916
   13MOL   H305 4889   4.631   4.367   7.560 -1.2293  1.1750 -1.9401
   13MOL   C306 4890   4.423   4.332   7.549 -0.5108  0.4748 -0.3998
   13MOL   C307 4891   4.419   4.391   7.403 -0.0796 -0.1861 -0.5759
   13MOL   C308 4892   4.519   4.323   7.308 -0.0232  0.2698  0.5337
   13MOL   C309 4893   4.456   4.340   7.167  0.3993  0.3639 -0.9550
   13MOL   C310 4894   4.321   4.410   7.181 -0.4244  0.0660 -0.9668
   13MOL   C311 4895   4.284   4.393   7.333  0.1798  0.1257 -0.8553
   13MOL   C312 4896   4.408   4.172   7.563 -0.7549 -1.4028 -0.2531
   13MOL   H313 4897   4.328   4.370   7.589 -0.9891  0.0237 -1.0902
   13MOL   H314 4898   4.454   4.495   7.406 -0.1387 -0.1987  0.7965
   13MOL   H315 4899   4.528   4.215   7.323 -1.5986 -0.0185 -0.5604
   13MOL   H316 4900   4.622   4.352   7.329  0.3335 -0.8647  0.3737
   13MOL   H317 4901   4.528   4.395   7.106 -1.0025  2.2427 -0.9537
   13MOL   H318 4902   4.438   4.245   7.118  0.8755 -1.0406  1.5232
   13MOL   H319 4903   4.254   4.355   7.115 -1.1580  1.6102 -1.5253
   13MOL   H320 4904   4.310   4.513   7.149 -1.0655  0.8556  1.6131
   13MOL   H321 4905   4.211   4.467   7.363 -1.2140 -1.0556 -1.2827
   13MOL   H322 4906   4.225   4.302   7.346 -1.0569  1.1413  0.8188
   13MOL   H323 4907   4.388   4.154   7.669  2.4013 -1.0929  0.4567
   13MOL   H324 4908   4.505   4.131   7.535 -0.0068  0.3529 -0.3102
   13MOL   C325 4909   4.296   4.098   7.490  0.3456 -0.6242  0.3355
   13MOL   C326 4910   4.160   4.130   7.549 -0.3423 -0.5931 -0.6326
   13MOL   C327 4911   4.131   4.077   0.003 -0.0273 -0.4520  0.1261
   13MOL   C328 4912   3.968   4.042   7.678  0.0896 -0.3992  0.0399
   13MOL   C329 4913   3.955   4.001   7.533 -0.2254 -0.5006  0.1172
   13MOL   C330 4914   4.045   4.095   7.452  0.6605 -0.5370  0.4416
   13MOL   C331 4915   4.323   3.943   7.492 -0.1728 -0.5294 -0.2246
   13MOL   H332 4916   4.306   4.126   7.385  1.0182  0.2885  0.6318
   13MOL   H333 4917   4.151   4.239   7.552 -0.0569 -0.6144  1.7702
   13MOL   H334 4918   4.150   4.155   0.077 -1.5664 -0.9086  1.0441
   13MOL   H335 4919   4.193   3.988   0.013 -1.1046 -1.1336  0.9771
   13MOL   H336 4920   3.909   4.130   0.017  0.8293  0.3308 -0.6648
   13MOL   H337 4921   3.939   3.961   0.055 -0.8264 -0.4099 -0.3701
   13MOL   H338 4922   3.852   4.004   7.499 -0.2801 -0.7477  0.2649
   13MOL   H339 4923   3.997   3.901   7.519  2.1558 -0.2493  4.4411
   13MOL   H340 4924   3.984   4.180   7.421 -0.3324 -0.3531  2.7803
   13MOL   H341 4925   4.093   4.045   7.368  0.9807 -0.6143  0.6675
   13MOL   H342 4926   4.238   3.888   7.451  0.1055  1.0735 -3.1522
   13MOL   H343 4927   4.349   3.911   7.592 -0.5077  1.1970  0.4365
   13MOL   C344 4928   4.443   3.895   7.403 -0.2206  0.0673  0.2826
   13MOL   C345 4929   4.406   3.890   7.253 -0.4602 -0.3264 -0.0093
   13MOL   C346 4930   4.322   3.766   7.201 -0.0630 -0.0988 -0.1194
   13MOL   C347 4931   4.325   3.786   7.047  0.6527  0.2681  0.0950
   13MOL   C348 4932   4.464   3.845   7.022 -0.1309  0.2837  0.2469
   13MOL   C349 4933   4.519   3.891   7.157  0.5892 -0.1283  0.1635
   13MOL   C350 4934   4.508   3.761   7.452 -0.8138 -0.1569  0.2892
   13MOL   H351 4935   4.517   3.975   7.405 -0.0489 -0.0404 -1.4770
   13MOL   H352 4936   4.352   3.983   7.233  2.6054  1.9920  2.1674
   13MOL   H353 4937   4.222   3.782   7.240  0.9972  1.9127  1.8623
   13MOL   H354 4938   4.364   3.667   7.217  0.7344 -0.2528 -2.8337
   13MOL   H355 4939   4.315   3.689   6.999  0.9371 -1.3451  3.1922
   13MOL   H356 4940   4.249   3.855   7.010 -0.8558 -1.2067  0.4148
   13MOL   H357 4941   4.454   3.928   6.952 -0.8862 -0.2800 -0.3233
   13MOL   H358 4942   4.540   3.781   6.976 -0.7536 -0.6610  0.5310
   13MOL   H359 4943   4.597   3.819   7.184  0.5998  0.1469  0.8994
   13MOL   H360 4944   4.574   3.985   7.147  1.7699 -0.9349 -1.1120
   13MOL   H361 4945   4.554   3.706   7.371 -1.1444 -1.3363  0.8935
   13MOL   H362 4946   4.432   3.690   7.484  0.5144 -1.2345  1.0761
   13MOL   C363 4947   4.599   3.776   7.579  0.2997  0.3741  1.0353
   13MOL   C364 4948   4.574   3.652   7.673 -0.1026  0.7360 -0.0777
   13MOL   C365 4949   4.432   3.636   0.047 -0.1267  0.1803 -0.4574
   13MOL   C366 4950   4.440   3.552   0.171 -0.3292  1.0168 -0.5536
   13MOL   C367 4951   4.591   3.541   0.205  0.1808  0.0944  0.8021
   13MOL   C368 4952   4.648   3.647   0.117 -0.1969  1.1328 -0.4647
   13MOL   C369 4953   4.745   3.793   7.537 -0.2071 -0.1291  0.2444
   13MOL   H370 4954   4.571   3.869   7.628  0.2261  0.7086  0.3644
   13MOL   H371 4955   4.584   3.560   7.616 -0.0709  0.5252  0.2611
   13MOL   H372 4956   4.378   3.730   0.060  0.4371  0.7307 -2.0031
   13MOL   H373 4957   4.366   3.582   7.670  0.7877 -0.8627 -0.5295
   13MOL   H374 4958   4.380   3.603   0.246 -0.9970 -1.5890  0.7616
   13MOL   H375 4959   4.387   3.457   0.160  0.5782  0.5269 -0.7789
   13MOL   H376 4960   4.606   3.544   0.313  2.3149 -2.1032  0.6050
   13MOL   H377 4961   4.631   3.444   0.176 -0.3942 -0.1118  0.6985
   13MOL   H378 4962   4.756   3.642   0.112 -0.2767 -1.4953 -0.2375
   13MOL   H379 4963   4.624   3.739   0.172  0.7441  1.2050 -0.1727
   13MOL   H380 4964   4.750   3.854   7.447 -1.6301  0.9024  0.8446
   13MOL   H381 4965   4.793   3.698   7.514  2.5579  1.3510 -0.3230
   13MOL   H382 4966   4.815   3.829   7.612  2.1155 -1.3996 -1.2541
   14MOL     C1 4967   3.230   0.111   1.404  0.4071  0.0512 -0.4290
   14MOL     C2 4968   3.328   0.112   1.280 -0.1133  0.6849  0.4112
   14MOL     C3 4969   3.261   0.082   1.143 -0.3976 -0.1160 -0.3395
   14MOL     C4 4970   3.362   0.011   1.051  0.1836  0.2552 -0.2530
   14MOL     C5 4971   3.463   7.636   1.158  0.2581 -0.3230 -0.7141
   14MOL     C6 4972   3.456   0.024   1.284  0.0884  0.2168 -0.4685
   14MOL     C7 4973   3.191   7.664   1.470  0.3994  0.0954 -0.1488
   14MOL     H8 4974   3.273   0.169   1.485  1.1085 -0.5301 -0.3797
   14MOL     H9 4975   3.366   0.212   1.261 -1.6143  1.5545  1.8589
   14MOL    H10 4976   3.169   0.027   1.164  1.2562 -2.3607  1.2011
   14MOL    H11 4977   3.223   0.165   1.082 -0.0653  0.3719  0.1149
   14MOL    H12 4978   3.315   7.628   0.985 -0.2135 -0.1895  0.5131
   14MOL    H13 4979   3.403   0.094   0.994 -0.5976 -1.0803 -2.8338
   14MOL    H14 4980   3.419   7.541   1.188 -2.5277  1.5084  1.2558
   14MOL    H15 4981   3.566   7.621   1.125  0.6663  1.2645 -0.2028
   14MOL    H16 4982   3.553   0.074   1.286 -0.5480  1.4658 -0.2092
   14MOL    H17 4983   3.454   7.661   1.380 -0.3410  3.0857  1.1546
   14MOL    H18 4984   3.137   7.606   1.396 -0.7487  2.2639 -1.0357
   14MOL    H19 4985   3.282   7.611   1.499 -1.6627 -2.5415  1.7325
   14MOL    H20 4986   3.142   0.164   1.369 -0.2657 -0.6391  0.1755
   14MOL    C21 4987   3.103   7.674   1.602 -0.0489  0.7153  0.3470
   14MOL    C22 4988   3.166   0.082   1.697 -0.3616  0.6847 -1.0736
   14MOL    C23 4989   3.310   0.042   1.729 -0.4433 -0.1734  0.0683
   14MOL    C24 4990   3.343   0.086   1.871 -0.0543 -0.3570  0.3361
   14MOL    C25 4991   3.209   0.118   1.937  0.0951 -0.2895  0.0411
   14MOL    C26 4992   3.105   0.081   1.835 -0.0215  0.1079  0.2067
   14MOL    C27 4993   2.964   0.032   1.574  0.3800  0.1950  0.5422
   14MOL    H28 4994   3.098   7.577   1.650 -0.4021 -0.5584 -2.1776
   14MOL    H29 4995   3.165   0.185   1.663  0.3067  1.9180  2.4517
   14MOL    H30 4996   3.382   0.071   1.653 -1.2379 -0.4992 -0.8099
   14MOL    H31 4997   3.318   7.623   1.730  0.6512 -0.1070  1.2281
   14MOL    H32 4998   3.390   0.012   1.936  0.4792 -1.2712 -1.0814
   14MOL    H33 4999   3.407   0.174   1.873  0.6309 -0.8610  0.4371
   14MOL    H34 5000   3.199   0.222   1.967  0.0641  0.4170 -2.3127
   14MOL    H35 5001   3.194   0.056   2.025 -0.0992  0.3745  0.4829
   14MOL    H36 5002   3.013   0.139   1.829 -0.8597 -1.3142 -1.1340
   14MOL    H37 5003   3.072   7.671   1.862  1.1899 -0.9206 -1.9161
   14MOL    H38 5004   2.913   0.042   1.669 -0.7702  0.4790 -0.0881
   14MOL    H39 5005   2.972   0.134   1.535 -0.2549  0.0796  0.1092
   14MOL    C40 5006   2.881   7.633   1.478 -0.2074 -0.4129  0.3650
   14MOL    C41 5007   2.764   7.556   1.548  0.5765  0.5341 -0.2437
   14MOL    C42 5008   2.663   7.642   1.629 -0.0394  0.7109 -0.3058
   14MOL    C43 5009   2.633   7.555   1.758 -0.0942 -0.4436  0.4943
   14MOL    C44 5010   2.691   7.411   1.735  0.3937 -0.0159 -0.1480
   14MOL    C45 5011   2.807   7.449   1.648 -0.5420 -0.4500 -0.8668
   14MOL    C46 5012   2.835   0.027   1.355 -0.7056 -0.5057 -0.2595
   14MOL    H47 5013   2.951   7.562   1.434  1.4374  0.9634  0.6674
   14MOL    H48 5014   2.700   7.499   1.481  1.7893 -1.3733  0.1831
   14MOL    H49 5015   2.577   7.662   1.565 -0.8261 -0.4861  0.3697
   14MOL    H50 5016   2.704   0.050   1.657 -1.4787  1.7309 -1.6200
   14MOL    H51 5017   2.531   7.550   1.796  0.0940  0.0071  1.0685
   14MOL    H52 5018   2.685   7.593   1.846  1.9300  0.2259 -0.9636
   14MOL    H53 5019   2.727   7.372   1.830  1.3211  1.3747  0.0815
   14MOL    H54 5020   2.619   7.344   1.688  1.5343 -2.2833  1.2803
   14MOL    H55 5021   2.889   7.490   1.706  0.4842 -1.1070 -1.8431
   14MOL    H56 5022   2.848   7.360   1.599 -3.4872 -2.7490  0.6816
   14MOL    H57 5023   2.753   0.092   1.384 -0.1197 -0.6976  1.8996
   14MOL    H58 5024   2.910   0.098   1.317  1.3358 -1.1483  2.4046
   14MOL    C59 5025   2.801   7.633   1.224 -0.3014  0.9416 -0.1591
   14MOL    C60 5026   2.687   0.015   1.142  0.0955 -0.0159  0.3248
   14MOL    C61 5027   2.723   0.160   1.087 -0.7242  0.1647  0.1926
   14MOL    C62 5028   2.597   0.243   1.087 -0.6477 -1.1077  0.4629
   14MOL    C63 5029   2.531   0.193   1.221 -0.1056  0.6432  0.9433
   14MOL    C64 5030   2.559   0.043   1.227 -0.2391 -0.4901 -0.8039
   14MOL    C65 5031   2.930   7.601   1.151 -0.2668 -0.4868 -0.8457
   14MOL    H66 5032   2.766   7.538   1.267 -0.7717  0.0848 -2.3712
   14MOL    H67 5033   2.658   7.651   1.052  0.5039  0.0823  0.1318
   14MOL    H68 5034   2.765   0.164   0.986 -0.4276 -1.2751  0.2393
   14MOL    H69 5035   2.783   0.213   1.160 -1.1832  0.7108  0.1749
   14MOL    H70 5036   2.528   0.237   1.003  1.2528 -0.4948 -1.1777
   14MOL    H71 5037   2.614   0.349   1.101 -1.0047 -0.9950  0.0650
   14MOL    H72 5038   2.424   0.209   1.228 -0.4464 -0.3056 -1.4628
   14MOL    H73 5039   2.590   0.228   1.306  1.9534 -0.2359 -0.0886
   14MOL    H74 5040   2.577   7.683   1.322 -0.7115 -1.8074 -1.3915
   14MOL    H75 5041   2.472   7.681   1.188 -1.8082  1.7560 -0.3466
   14MOL    H76 5042   3.018   7.588   1.214 -0.8363 -2.8041 -0.4653
   14MOL    H77 5043   2.957   0.003   1.099  4.4665 -1.5905 -0.5755
   14MOL    C78 5044   2.920   7.477   1.064 -0.7372 -0.5774  0.5175
   14MOL    C79 5045   3.012   7.494   0.942  0.3114 -0.6622  1.1587
   14MOL    C80 5046   2.960   7.613   0.855 -0.7228  0.0081 -0.1068
   14MOL    C81 5047   2.922   7.569   0.714  0.2675 -0.0108 -0.4511
   14MOL    C82 5048   3.013   7.440   0.706 -0.6409 -0.4605 -0.5458
   14MOL    C83 5049   3.006   7.372   0.841  0.9169 -0.3330  0.5879
   14MOL    C84 5050   2.932   7.349   1.139 -0.3173 -0.5523 -0.4126
   14MOL    H85 5051   2.817   7.480   1.028 -0.6715  2.3116  0.4409
   14MOL    H86 5052   3.112   7.526   0.973 -0.1802  0.4945  1.5954
   14MOL    H87 5053   3.039   7.687   0.841  1.0633 -1.3717  2.4436
   14MOL    H88 5054   2.878   7.663   0.907 -0.9693  1.4460 -1.8289
   14MOL    H89 5055   2.947   7.641   0.636 -0.1867  0.6268 -0.0096
   14MOL    H90 5056   2.820   7.531   0.714 -0.1558  1.1086  0.3497
   14MOL    H91 5057   2.965   7.372   0.634 -1.1522 -1.5090  0.7710
   14MOL    H92 5058   3.113   7.453   0.665 -0.7160 -1.6745 -1.1568
   14MOL    H93 5059   2.907   7.325   0.842  0.6030  0.1717 -2.1320
   14MOL    H94 5060   3.083   7.296   0.856  0.2388 -1.7446 -2.6573
   14MOL    H95 5061   2.944   7.369   1.245  1.1862  0.6865 -0.7909
   14MOL    H96 5062   3.034   7.318   1.116 -0.5605 -0.0658 -2.2492
   14MOL    C97 5063   2.834   7.233   1.115 -0.5584  0.5542 -0.3750
   14MOL    C98 5064   2.710   7.260   1.210  0.0586 -0.5738  0.4523
   14MOL    C99 5065   2.594   7.178   1.170  0.3003 -0.0111  0.2460
   14MOL   C100 5066   2.496   7.184   1.289  0.4353  0.5143 -0.3682
   14MOL   C101 5067   2.582   7.206   1.412 -0.5279 -0.1206  0.6579
   14MOL   C102 5068   2.722   7.231   1.353  0.0336 -0.3711 -0.0028
   14MOL   C103 5069   2.891   7.086   1.130 -0.3468  0.1373  0.0744
   14MOL   H104 5070   2.799   7.236   1.012 -0.1504  0.8027 -0.5084
   14MOL   H105 5071   2.667   7.359   1.198 -1.0849 -1.1688 -0.4880
   14MOL   H106 5072   2.553   7.228   1.082 -2.7168 -0.8636  1.0851
   14MOL   H107 5073   2.621   7.076   1.142  0.2686 -0.8887  3.2340
   14MOL   H108 5074   2.448   7.086   1.289  1.0162  0.2198  0.9310
   14MOL   H109 5075   2.420   7.261   1.276 -1.5171 -1.3557 -0.2613
   14MOL   H110 5076   2.586   7.117   1.474  0.0466 -0.5378  0.0298
   14MOL   H111 5077   2.536   7.291   1.462  1.3198  1.6330 -0.5754
   14MOL   H112 5078   2.769   7.315   1.405 -0.7687 -0.0804  0.2596
   14MOL   H113 5079   2.784   7.144   1.373  2.4392  1.3947  0.5116
   14MOL   H114 5080   2.962   7.096   1.213 -0.4054  0.1375  0.1248
   14MOL   H115 5081   2.818   7.013   1.165  0.1253 -1.0722 -1.4173
   14MOL   C116 5082   2.970   7.030   1.009  0.1943  0.3923 -0.6128
   14MOL   C117 5083   3.120   7.018   1.030 -0.5848  0.3928  0.1227
   14MOL   C118 5084   3.158   6.903   1.128 -0.0969 -0.2036 -0.4884
   14MOL   C119 5085   3.307   6.881   1.115 -0.2110 -0.0629 -0.3419
   14MOL   C120 5086   3.349   6.930   0.977  0.4668 -0.1276  0.2401
   14MOL   C121 5087   3.213   6.984   0.917  1.0547  1.0335  0.1984
   14MOL   C122 5088   2.900   6.899   0.953  0.3801  0.4108  0.3410
   14MOL   H123 5089   2.958   7.095   0.923 -0.1748  1.2995  0.1197
   14MOL   H124 5090   3.160   7.108   1.078 -1.4326 -1.0082  3.6494
   14MOL   H125 5091   3.124   6.935   1.226  0.9395  2.8447 -1.0905
   14MOL   H126 5092   3.110   6.807   1.107 -1.2681  0.7021 -2.0707
   14MOL   H127 5093   3.333   6.776   1.130 -0.8895 -0.3425 -1.0891
   14MOL   H128 5094   3.354   6.934   1.197  0.9869  0.9263 -1.6569
   14MOL   H129 5095   3.398   6.855   0.915  0.4947  1.2517 -1.4507
   14MOL   H130 5096   3.421   7.010   0.992 -0.8023  0.6667  2.4780
   14MOL   H131 5097   3.226   7.075   0.859 -2.5590  1.6943  0.3069
   14MOL   H132 5098   3.177   6.899   0.859  2.1019 -0.8255  2.1780
   14MOL   H133 5099   2.909   6.843   1.046  1.3113  1.1587  0.7228
   14MOL   H134 5100   2.968   6.866   0.875 -1.1270  0.5685 -1.0661
   14MOL   C135 5101   2.752   6.900   0.905 -0.4114  0.0942  0.2456
   14MOL   C136 5102   2.687   6.755   0.916 -0.1200  0.2317 -0.3255
   14MOL   C137 5103   2.691   6.697   1.066 -0.7209  0.4407 -0.0262
   14MOL   C138 5104   2.790   6.585   1.058  0.6161 -1.5123  0.1079
   14MOL   C139 5105   2.779   6.516   0.921 -0.1726  0.3593 -0.0635
   14MOL   C140 5106   2.746   6.639   0.824  0.8884 -0.0361 -0.3333
   14MOL   C141 5107   2.750   6.970   0.763  0.3599 -0.0385  0.2569
   14MOL   H142 5108   2.694   6.952   0.981 -2.0748 -1.4917  0.0821
   14MOL   H143 5109   2.583   6.759   0.884  0.1475 -0.9212 -1.3786
   14MOL   H144 5110   2.722   6.764   1.146  0.2814  0.2070 -0.2199
   14MOL   H145 5111   2.595   6.658   1.102 -0.1541 -1.1927 -0.2568
   14MOL   H146 5112   2.769   6.506   1.130 -1.8676 -1.2437 -0.3023
   14MOL   H147 5113   2.885   6.638   1.066 -0.6007  0.4332  2.3386
   14MOL   H148 5114   2.681   6.467   0.916 -0.2927  0.6575 -0.6427
   14MOL   H149 5115   2.857   6.444   0.895 -2.0924 -1.7513 -0.1911
   14MOL   H150 5116   2.845   6.674   0.794  0.6101  1.1657  0.1278
   14MOL   H151 5117   2.685   6.619   0.736 -1.9616  0.9639  1.3507
   14MOL   H152 5118   2.824   6.927   0.695 -0.2590  2.5051 -2.1308
   14MOL   H153 5119   2.791   7.071   0.772  1.8514 -0.6879  0.8605
   14MOL   C154 5120   2.612   6.985   0.695 -0.3267  0.2232  0.5068
   14MOL   C155 5121   2.580   7.132   0.657  0.4053 -0.1646 -1.2249
   14MOL   C156 5122   2.673   7.199   0.568  0.4115  1.1080  0.0041
   14MOL   C157 5123   2.637   7.347   0.569 -0.0736  0.1094 -0.3883
   14MOL   C158 5124   2.571   7.368   0.705  0.4637 -0.5369 -0.4567
   14MOL   C159 5125   2.560   7.227   0.772 -0.2752 -0.5153 -0.4894
   14MOL   C160 5126   2.595   6.878   0.581 -0.3902 -0.0197  0.5019
   14MOL   H161 5127   2.542   6.956   0.774  1.0928  2.4612  2.6593
   14MOL   H162 5128   2.480   7.136   0.613 -1.0589 -1.6898  1.8406
   14MOL   H163 5129   2.777   7.181   0.596 -0.0685  0.6192  1.5403
   14MOL   H164 5130   2.657   7.156   0.469  0.6879  1.2994 -0.1246
   14MOL   H165 5131   2.728   7.400   0.544  0.7722 -1.3320 -0.3879
   14MOL   H166 5132   2.564   7.385   0.496  0.4019  1.8922  0.0420
   14MOL   H167 5133   2.473   7.416   0.713  0.3713 -1.0825  2.0472
   14MOL   H168 5134   2.634   7.429   0.768 -1.3415 -1.0517  1.9102
   14MOL   H169 5135   2.467   7.204   0.824  0.6046 -1.0051  0.8837
   14MOL   H170 5136   2.652   7.216   0.829  1.6860  1.3331 -3.2151
   14MOL   H171 5137   2.596   6.777   0.623 -1.9184  0.9395  2.9132
   14MOL   H172 5138   2.688   6.894   0.526 -0.0233 -3.9863 -0.2219
   14MOL   C173 5139   2.480   6.885   0.477 -0.2671 -0.0394 -0.1343
   14MOL   C174 5140   2.350   6.832   0.551  1.0433  0.0333  0.4920
   14MOL   C175 5141   2.360   6.682   0.581  0.5060  0.6295  0.2477
   14MOL   C176 5142   2.212   6.624   0.555  0.3457 -0.9610  0.1236
   14MOL   C177 5143   2.155   6.719   0.447 -0.0665 -0.3713  0.1802
   14MOL   C178 5144   2.222   6.854   0.478 -0.4998 -0.1244  0.7647
   14MOL   C179 5145   2.505   6.807   0.345  0.2295 -0.6276 -0.2049
   14MOL   H180 5146   2.473   6.990   0.448 -0.2987 -0.3718 -1.3320
   14MOL   H181 5147   2.338   6.877   0.649 -1.0364 -0.6889  0.5949
   14MOL   H182 5148   2.392   6.666   0.684  0.2043  0.2060  0.2773
   14MOL   H183 5149   2.434   6.626   0.523 -0.1383 -1.2193  1.1671
   14MOL   H184 5150   2.211   6.518   0.530 -2.6539 -1.8184  3.4512
   14MOL   H185 5151   2.139   6.629   0.636 -0.3425 -2.7623 -0.3643
   14MOL   H186 5152   2.048   6.734   0.460 -0.0917 -0.4057  0.0079
   14MOL   H187 5153   2.171   6.689   0.344 -3.4306  1.2135 -0.8642
   14MOL   H188 5154   2.236   6.912   0.387  0.2162 -1.9869 -0.3511
   14MOL   H189 5155   2.144   6.904   0.535  0.7827  2.9219 -0.0364
   14MOL   H190 5156   2.520   6.700   0.357 -2.0661 -0.9779 -0.3153
   14MOL   H191 5157   2.415   6.822   0.286  0.4655  0.9932 -0.1751
   14MOL   C192 5158   2.624   6.860   0.255  0.2345  1.5512 -0.1163
   14MOL   C193 5159   2.588   6.986   0.176  0.2698 -0.0650  0.0538
   14MOL   C194 5160   2.453   6.974   0.093 -0.3318  0.3799 -0.6183
   14MOL   C195 5161   2.492   7.056   7.657  0.3703  0.5996 -0.3379
   14MOL   C196 5162   2.643   7.046   7.638  0.6869  0.3033 -0.7052
   14MOL   C197 5163   2.698   7.043   0.087  0.4091  0.2346  0.2098
   14MOL   C198 5164   2.669   6.751   0.156  0.0003 -0.2038  0.4471
   14MOL   H199 5165   2.712   6.882   0.316 -0.1598 -2.2593  1.9948
   14MOL   H200 5166   2.572   7.066   0.249  2.9571  0.6799 -0.1109
   14MOL   H201 5167   2.362   7.002   0.147  0.8163  0.5571  1.2432
   14MOL   H202 5168   2.434   6.874   0.055  1.9503 -1.8052  3.7353
   14MOL   H203 5169   2.427   7.013   7.580  0.3978 -0.8135  0.4081
   14MOL   H204 5170   2.461   7.157   7.683 -1.3940 -0.4420  1.7887
   14MOL   H205 5171   2.689   7.120   7.574 -2.1326  1.9921 -0.8682
   14MOL   H206 5172   2.659   6.950   7.589  0.8472 -0.4008  0.6925
   14MOL   H207 5173   2.727   7.145   0.114  2.2298 -0.4308  0.8329
   14MOL   H208 5174   2.786   6.982   0.109  0.0461 -0.0289  0.9756
   14MOL   H209 5175   2.589   6.676   0.153  1.2878 -1.5820 -0.1219
   14MOL   H210 5176   2.663   6.786   0.053  4.1655  0.1268  0.2470
   14MOL   C211 5177   2.804   6.688   0.176  0.6680 -0.6688  0.3719
   14MOL   C212 5178   2.788   6.584   0.287  0.0024  0.5961 -0.1409
   14MOL   C213 5179   2.709   6.458   0.258  0.2544 -0.0331  0.7730
   14MOL   C214 5180   2.795   6.339   0.299 -0.0967  0.6015 -0.6746
   14MOL   C215 5181   2.895   6.395   0.395  0.6204  0.2238  0.9349
   14MOL   C216 5182   2.923   6.541   0.355  0.2331  0.5306 -0.5974
   14MOL   C217 5183   2.877   6.624   0.048  0.0896  0.3461  0.0435
   14MOL   H218 5184   2.869   6.769   0.208  1.7814 -0.2918 -2.6712
   14MOL   H219 5185   2.736   6.623   0.374 -0.2816 -0.4203  0.1449
   14MOL   H220 5186   2.629   6.456   0.332  0.5251 -1.7932  1.0239
   14MOL   H221 5187   2.677   6.460   0.153  1.8303  2.0177  0.2862
   14MOL   H222 5188   2.732   6.257   0.333  2.7902 -1.1454  0.6258
   14MOL   H223 5189   2.846   6.298   0.212 -2.2501 -0.6159 -1.4072
   14MOL   H224 5190   2.975   6.323   0.409 -0.8235 -1.5200  0.4247
   14MOL   H225 5191   2.840   6.384   0.488 -0.7390  0.1887  0.1358
   14MOL   H226 5192   2.960   6.594   0.442 -0.6867  2.8181 -1.5452
   14MOL   H227 5193   3.006   6.536   0.284  0.4132  0.1959 -0.3598
   14MOL   H228 5194   2.815   6.545   0.007  0.8457  1.4712 -3.4095
   14MOL   H229 5195   2.967   6.567   0.071  0.4909  1.2156  0.6476
   14MOL   C230 5196   2.906   6.721   7.625  0.2091 -0.8258  0.3879
   14MOL   C231 5197   2.859   6.661   7.491 -0.1380  0.9594 -0.4566
   14MOL   C232 5198   2.709   6.620   7.480  0.3413 -0.1058  0.1000
   14MOL   C233 5199   2.678   6.628   7.335  0.0192  0.0435 -0.1812
   14MOL   C234 5200   2.753   6.754   7.290  0.5866  0.3247  0.6804
   14MOL   C235 5201   2.887   6.748   7.373  0.1226  0.1073  0.2497
   14MOL   C236 5202   3.056   6.761   7.621  0.3488  0.4171  0.6283
   14MOL   H237 5203   2.848   6.813   7.638 -0.3686 -1.2118  0.5672
   14MOL   H238 5204   2.919   6.571   7.479 -1.3410 -0.3378  2.7043
   14MOL   H239 5205   2.680   6.530   7.535  2.1880  1.2873  3.5447
   14MOL   H240 5206   2.650   6.698   7.529 -0.5277 -0.2228 -0.7473
   14MOL   H241 5207   2.735   6.544   7.295  0.1185  0.5350 -1.0907
   14MOL   H242 5208   2.571   6.629   7.314  0.1568  1.1397 -0.8944
   14MOL   H243 5209   2.700   6.844   7.321 -0.7394  0.0076 -0.6192
   14MOL   H244 5210   2.770   6.771   7.184 -1.2430  0.3024  0.3646
   14MOL   H245 5211   2.918   6.852   7.383  0.1557  0.1117  0.1003
   14MOL   H246 5212   2.960   6.707   7.302  3.3607  1.2648  2.7782
   14MOL   H247 5213   3.089   6.779   7.518  0.0350  3.4296  0.9984
   14MOL   H248 5214   3.109   6.672   7.656 -1.1615 -0.2853  1.1666
   14MOL   C249 5215   3.083   6.894   0.011 -0.1526  1.0297 -1.1190
   14MOL   C250 5216   3.091   7.015   7.613 -0.1272 -0.1550  0.0509
   14MOL   C251 5217   3.205   7.033   7.520 -0.7546  1.0422  0.5282
   14MOL   C252 5218   3.257   7.175   7.520 -0.5257 -0.8645 -0.0270
   14MOL   C253 5219   3.192   7.252   7.636  0.5158 -0.6469  0.0027
   14MOL   C254 5220   3.091   7.148   0.009  0.0931 -0.4849 -0.5550
   14MOL   C255 5221   3.217   6.877   0.094  1.1539  0.7926  0.4026
   14MOL   H256 5222   2.995   6.911   0.073  0.3940  3.0880 -0.8909
   14MOL   H257 5223   3.006   7.012   7.545  0.8092  0.1349 -1.1498
   14MOL   H258 5224   3.191   6.988   7.422 -2.6463 -3.3209  2.6394
   14MOL   H259 5225   3.290   6.990   7.573 -1.8135 -0.1716  1.2906
   14MOL   H260 5226   3.227   7.218   7.425 -0.5350 -1.2926 -0.2218
   14MOL   H261 5227   3.364   7.180   7.539 -0.5302  0.5252 -0.3018
   14MOL   H262 5228   3.155   7.342   7.587  0.7483  0.4765  1.8289
   14MOL   H263 5229   3.266   7.293   0.015 -0.2952 -1.4486  1.3723
   14MOL   H264 5230   2.992   7.194   0.002  0.5003  0.4788 -0.1488
   14MOL   H265 5231   3.109   7.130   0.115  0.1829 -0.5525 -0.5819
   14MOL   H266 5232   3.281   6.807   0.041 -0.6673 -0.3940 -0.2628
   14MOL   H267 5233   3.264   6.974   0.108  1.3014  0.5818  1.3935
   14MOL   C268 5234   3.200   6.832   0.242 -0.0208 -0.0622  0.2045
   14MOL   C269 5235   3.151   6.951   0.326  0.5299 -0.1666 -0.1352
   14MOL   C270 5236   3.249   7.060   0.360  0.9973 -0.7559  0.0744
   14MOL   C271 5237   3.185   7.135   0.476 -0.2155  0.0466 -0.0521
   14MOL   C272 5238   3.094   7.030   0.549 -0.1480  0.0584 -0.2989
   14MOL   C273 5239   3.116   6.903   0.464  0.6254  0.0774 -0.4528
   14MOL   C274 5240   3.317   6.747   0.293 -0.0437 -0.4605 -0.8183
   14MOL   H275 5241   3.110   6.771   0.239 -0.6405  0.8462  0.0791
   14MOL   H276 5242   3.059   6.987   0.280  0.4002 -2.0068 -1.3677
   14MOL   H277 5243   3.341   7.016   0.399  0.5139 -1.6905  0.1583
   14MOL   H278 5244   3.284   7.121   0.276 -0.0520 -1.6825 -1.0553
   14MOL   H279 5245   3.266   7.175   0.537  0.4204  0.4163 -1.1320
   14MOL   H280 5246   3.129   7.220   0.437  0.3658 -0.0404 -1.0960
   14MOL   H281 5247   2.994   7.072   0.543  0.0867  0.5354 -0.9675
   14MOL   H282 5248   3.112   7.022   0.656  0.8632 -0.3390 -0.4873
   14MOL   H283 5249   3.029   6.838   0.463  1.8555 -1.7725  2.9073
   14MOL   H284 5250   3.188   6.836   0.511 -1.1425  0.6066  3.1973
   14MOL   H285 5251   3.361   6.802   0.375  0.6223 -1.0440 -0.7858
   14MOL   H286 5252   3.397   6.745   0.219  1.3436  0.3986  0.6604
   14MOL   C287 5253   3.281   6.598   0.332  0.9315  0.2752  0.1098
   14MOL   C288 5254   3.261   6.506   0.204  0.3533 -0.4809  0.1001
   14MOL   C289 5255   3.389   6.490   0.115 -0.0329  0.3868 -0.2862
   14MOL   C290 5256   3.344   6.389   0.009 -0.2396  0.2166  0.4726
   14MOL   C291 5257   3.252   6.290   0.088 -0.5139 -0.7879  0.1554
   14MOL   C292 5258   3.213   6.364   0.219  0.9711 -0.3356 -0.4856
   14MOL   C293 5259   3.390   6.534   0.429  0.0042  0.1152 -0.0692
   14MOL   H294 5260   3.190   6.606   0.392  0.6534 -0.3351 -0.2225
   14MOL   H295 5261   3.191   6.554   0.136  1.2488  1.2227  0.3572
   14MOL   H296 5262   3.422   6.584   0.070 -0.5013  0.1049 -1.2177
   14MOL   H297 5263   3.473   6.443   0.167  1.3161  2.0256 -0.9381
   14MOL   H298 5264   3.282   6.445   7.628  1.6027  2.0190  0.2324
   14MOL   H299 5265   3.433   6.339   7.661 -1.3041 -0.3812 -1.3627
   14MOL   H300 5266   3.318   6.205   0.105  2.4845  1.5692  0.6216
   14MOL   H301 5267   3.165   6.251   0.034 -0.4436 -0.6824 -0.0350
   14MOL   H302 5268   3.258   6.315   0.305  1.3275 -0.1465 -0.5662
   14MOL   H303 5269   3.105   6.365   0.234  1.3455 -2.6021  2.7497
   14MOL   H304 5270   3.488   6.550   0.384 -0.7884 -2.4910 -2.8461
   14MOL   H305 5271   3.370   6.427   0.427 -1.6041  0.4364 -1.7982
   14MOL   C306 5272   3.399   6.577   0.577  0.1399 -0.1641  0.3530
   14MOL   C307 5273   3.271   6.546   0.662  0.1937 -0.3765  0.2061
   14MOL   C308 5274   3.219   6.401   0.661  0.2145  0.8210 -0.3201
   14MOL   C309 5275   3.106   6.397   0.775 -0.1175  0.3562  0.1385
   14MOL   C310 5276   3.122   6.526   0.862 -0.1914 -0.6147 -0.2156
   14MOL   C311 5277   3.255   6.590   0.804 -0.2288 -0.7441 -0.3296
   14MOL   C312 5278   3.524   6.512   0.637  0.3329 -0.2822 -0.1798
   14MOL   H313 5279   3.406   6.686   0.584 -0.0722 -0.1025 -0.2982
   14MOL   H314 5280   3.190   6.605   0.618 -0.6466 -0.1453  2.0139
   14MOL   H315 5281   3.301   6.334   0.687 -0.9945 -0.2524  0.8217
   14MOL   H316 5282   3.186   6.355   0.568 -0.4560 -1.6974  1.1037
   14MOL   H317 5283   3.013   6.392   0.719  1.1051  1.4042 -2.0329
   14MOL   H318 5284   3.102   6.300   0.825  1.1047 -0.1172 -0.6654
   14MOL   H319 5285   3.135   6.507   0.968 -0.4793  0.3703  0.0004
   14MOL   H320 5286   3.040   6.594   0.840 -0.0166 -0.4630 -0.4055
   14MOL   H321 5287   3.243   6.698   0.817 -0.3177 -0.6445 -1.2098
   14MOL   H322 5288   3.346   6.555   0.853 -0.5590 -3.4314 -1.5599
   14MOL   H323 5289   3.527   6.405   0.615  0.2950  0.1264 -2.2721
   14MOL   H324 5290   3.524   6.523   0.746 -0.8988 -1.2273 -0.0659
   14MOL   C325 5291   3.662   6.574   0.610 -0.4172  0.4613 -0.5633
   14MOL   C326 5292   3.787   6.469   0.622  0.4035 -0.4901  0.9414
   14MOL   C327 5293   3.785   6.369   0.506  0.2799  0.2737  0.4276
   14MOL   C328 5294   3.870   6.251   0.564  0.1990  0.4335  0.6265
   14MOL   C329 5295   3.823   6.239   0.712  0.1533  0.1798  0.0581
   14MOL   C330 5296   3.783   6.384   0.754 -0.3839  0.1196 -0.5937
   14MOL   C331 5297   3.684   6.693   0.711  0.0087 -0.0213  0.3370
   14MOL   H332 5298   3.660   6.616   0.510  0.0129 -0.8540 -1.1423
   14MOL   H333 5299   3.879   6.527   0.618  0.0170  0.1030  0.6987
   14MOL   H334 5300   3.812   6.405   0.407  1.4549  3.5781  1.8870
   14MOL   H335 5301   3.684   6.330   0.494  0.3408  0.2125  0.1186
   14MOL   H336 5302   3.975   6.271   0.541  0.2001 -1.1541 -0.7846
   14MOL   H337 5303   3.857   6.151   0.525 -0.3084  0.7201  0.0611
   14MOL   H338 5304   3.906   6.202   0.773 -0.0309 -0.5822 -0.1565
   14MOL   H339 5305   3.742   6.167   0.710  0.3837 -0.0768 -0.1442
   14MOL   H340 5306   3.845   6.410   0.840 -0.1399  0.8869 -1.0022
   14MOL   H341 5307   3.688   6.389   0.808 -0.2537 -2.2951 -0.1050
   14MOL   H342 5308   3.704   6.652   0.810 -3.3218 -0.5923  0.8421
   14MOL   H343 5309   3.594   6.753   0.721 -1.2923 -1.9350  0.3881
   14MOL   C344 5310   3.788   6.800   0.691 -1.0384 -0.6967 -0.2786
   14MOL   C345 5311   3.773   6.930   0.787 -0.2106  0.5123  0.4071
   14MOL   C346 5312   3.892   7.022   0.811  0.3821  0.5869  0.0209
   14MOL   C347 5313   3.889   7.074   0.954  0.4781  0.5968 -0.0691
   14MOL   C348 5314   3.756   7.022   1.016 -0.2006  0.1697 -0.3054
   14MOL   C349 5315   3.725   6.902   0.932  0.7927 -0.1722 -0.3099
   14MOL   C350 5316   3.822   6.844   0.549  0.6339  0.6578  0.0359
   14MOL   H351 5317   3.885   6.764   0.724 -1.9831 -3.0102  0.0606
   14MOL   H352 5318   3.696   6.992   0.741 -2.4086 -2.1893  0.2637
   14MOL   H353 5319   3.892   7.105   0.739 -0.5357  0.2538 -0.3742
   14MOL   H354 5320   3.980   6.963   0.788 -1.0954 -0.7892 -2.3380
   14MOL   H355 5321   3.979   7.025   0.992  0.9604 -0.9263 -3.0354
   14MOL   H356 5322   3.895   7.182   0.968 -1.2507  0.5137  1.5253
   14MOL   H357 5323   3.665   7.082   1.005 -2.4500 -2.9333  0.8192
   14MOL   H358 5324   3.768   7.010   1.124 -2.6882  0.0872 -0.0068
   14MOL   H359 5325   3.785   6.817   0.965 -1.1680 -1.0501  1.0794
   14MOL   H360 5326   3.623   6.867   0.918  1.1739 -1.9315  1.0896
   14MOL   H361 5327   3.825   6.748   0.498  2.2781  0.7685 -0.1115
   14MOL   H362 5328   3.926   6.873   0.539  0.2478  2.0445 -0.0476
   14MOL   C363 5329   3.740   6.948   0.473 -0.2106  0.0146 -0.8310
   14MOL   C364 5330   3.783   6.973   0.325 -0.6268  0.0383 -0.3144
   14MOL   C365 5331   3.923   7.028   0.306 -0.0798  0.2769  0.8706
   14MOL   C366 5332   3.927   7.102   0.164  0.3880 -0.1424  0.1651
   14MOL   C367 5333   3.783   7.110   0.123 -0.1992  0.0312  0.0475
   14MOL   C368 5334   3.696   7.073   0.251  0.3954  0.3666 -0.5218
   14MOL   C369 5335   3.589   6.923   0.484  0.3448 -0.0663  0.4962
   14MOL   H370 5336   3.754   7.043   0.523  1.1005 -1.3099  1.4043
   14MOL   H371 5337   3.770   6.878   0.274  1.1831 -1.3834  1.8006
   14MOL   H372 5338   3.944   7.113   0.371  1.6836  1.5640 -1.3227
   14MOL   H373 5339   3.999   6.950   0.313  1.3891  1.5956 -0.1013
   14MOL   H374 5340   3.973   7.200   0.169  0.0235 -0.0146  1.1900
   14MOL   H375 5341   3.979   7.033   0.097  1.4493 -0.4559  1.2962
   14MOL   H376 5342   3.755   7.207   0.084  2.2088  0.4322 -0.7618
   14MOL   H377 5343   3.753   7.037   0.048  0.6892 -1.5602  1.2044
   14MOL   H378 5344   3.600   7.035   0.214  0.6873 -0.4614 -0.4293
   14MOL   H379 5345   3.679   7.163   0.310  1.5689  0.8218 -0.8686
   14MOL   H380 5346   3.557   6.908   0.587  0.7313  0.5760  0.7127
   14MOL   H381 5347   3.573   6.834   0.422 -0.1992  0.0190  0.5158
   14MOL   H382 5348   3.529   7.001   0.438  0.2273 -0.1821  0.4528
   15MOL     C1 5349   5.687   2.808   1.640  0.2533  0.5984 -0.4474
   15MOL     C2 5350   5.604   2.741   1.534 -0.3795 -0.8336  0.5537
   15MOL     C3 5351   5.614   2.801   1.391 -0.5363 -0.3203  0.4531
   15MOL     C4 5352   5.503   2.737   1.308 -0.6195  0.2741 -0.6982
   15MOL     C5 5353   5.391   2.716   1.410 -0.0006  0.6632 -0.1197
   15MOL     C6 5354   5.455   2.751   1.551  0.4195 -0.3031 -0.0270
   15MOL     C7 5355   5.838   2.799   1.624 -0.2231  0.1583  0.1184
   15MOL     H8 5356   5.650   2.911   1.644  1.7956  1.1835 -0.8947
   15MOL     H9 5357   5.633   2.637   1.543  1.0446 -0.5103 -0.1150
   15MOL    H10 5358   5.607   2.910   1.387  1.0883 -0.2179  0.0821
   15MOL    H11 5359   5.707   2.781   1.338 -1.3118 -0.6015 -0.8008
   15MOL    H12 5360   5.464   2.795   1.224  0.4109  0.2048 -1.2271
   15MOL    H13 5361   5.520   2.642   1.256 -1.0171  0.2962 -0.8727
   15MOL    H14 5362   5.303   2.779   1.396 -0.8545 -0.0377  1.8972
   15MOL    H15 5363   5.353   2.615   1.397  0.6136  0.3958  0.1397
   15MOL    H16 5364   5.432   2.673   1.624 -0.1136  0.2946  0.4561
   15MOL    H17 5365   5.427   2.847   1.595  0.4598  0.3537 -1.4120
   15MOL    H18 5366   5.860   2.697   1.593  0.3003  0.9343 -2.1327
   15MOL    H19 5367   5.875   2.852   1.536  1.7143  2.5829  2.3111
   15MOL    H20 5368   5.668   2.756   1.733  1.6308 -0.9642 -1.0284
   15MOL    C21 5369   5.916   2.831   1.756  0.2263 -0.5798  0.7216
   15MOL    C22 5370   5.896   2.984   1.786 -1.1180 -0.3923  1.3994
   15MOL    C23 5371   5.952   3.085   1.685 -0.3407 -0.4615 -0.3476
   15MOL    C24 5372   5.952   3.220   1.758 -0.0207 -0.3921 -0.0134
   15MOL    C25 5373   5.978   3.188   1.909 -0.3355  0.0486  0.3825
   15MOL    C26 5374   5.961   3.033   1.922  0.1412  0.0394  0.3033
   15MOL    C27 5375   5.877   2.727   1.870  0.1413  0.5855 -0.0921
   15MOL    H28 5376   6.019   2.802   1.737  0.0808  0.4135 -1.7773
   15MOL    H29 5377   5.789   3.001   1.799 -1.1024  0.6791  0.2210
   15MOL    H30 5378   5.907   3.076   1.586  0.8107  0.6714 -0.9947
   15MOL    H31 5379   6.056   3.060   1.660  0.1269  1.6819 -0.6361
   15MOL    H32 5380   6.021   3.299   1.727  2.3874 -2.6311 -0.5497
   15MOL    H33 5381   5.853   3.264   1.764 -0.3866 -0.9556 -1.5672
   15MOL    H34 5382   5.901   3.239   1.966  0.1146  1.7051 -0.4603
   15MOL    H35 5383   6.076   3.229   1.933 -0.9324  1.2537  0.7326
   15MOL    H36 5384   5.897   2.990   2.000 -1.1090  1.6683  0.2250
   15MOL    H37 5385   6.058   2.984   1.928 -0.4172 -1.2009 -0.4777
   15MOL    H38 5386   5.794   2.764   1.929 -0.1664  2.0477 -1.4265
   15MOL    H39 5387   5.837   2.642   1.815 -4.6681  2.3811  0.3965
   15MOL    C40 5388   5.994   2.696   1.978 -0.5479  0.1033 -0.8276
   15MOL    C41 5389   5.937   2.596   2.089 -0.0479  0.1010  0.3468
   15MOL    C42 5390   5.805   2.636   2.150  0.0922  0.1338  0.1329
   15MOL    C43 5391   5.789   2.542   2.273 -0.2825 -0.1778 -0.4336
   15MOL    C44 5392   5.930   2.494   2.312 -0.2551 -0.0830  0.2816
   15MOL    C45 5393   6.025   2.566   2.213  0.1344  0.5378 -0.0543
   15MOL    C46 5394   6.122   2.647   1.915 -0.4934  0.1954  0.2102
   15MOL    H47 5395   6.016   2.790   2.028 -0.6588  0.8439 -2.1375
   15MOL    H48 5396   5.930   2.495   2.049 -0.2449 -0.2672  1.2882
   15MOL    H49 5397   5.727   2.609   2.079 -3.4785 -1.7071  4.5088
   15MOL    H50 5398   5.792   2.740   2.182 -2.5873 -0.7232  2.0152
   15MOL    H51 5399   5.741   2.453   2.232  0.0393 -0.5707  0.0380
   15MOL    H52 5400   5.731   2.586   2.354  0.3805 -0.7840  0.3754
   15MOL    H53 5401   5.954   2.507   2.418 -0.7037  1.8882  0.1629
   15MOL    H54 5402   5.932   2.387   2.288  1.4097  0.5067 -2.4661
   15MOL    H55 5403   6.050   2.663   2.255 -2.4060  1.1519  0.1343
   15MOL    H56 5404   6.106   2.496   2.192 -1.6320 -1.5681 -0.0852
   15MOL    H57 5405   6.171   2.578   1.983  1.2757  1.2263  0.0163
   15MOL    H58 5406   6.102   2.591   1.824 -0.3601 -0.1689  0.4062
   15MOL    C59 5407   6.241   2.744   1.875  0.1087  0.4018 -0.3602
   15MOL    C60 5408   6.306   2.807   1.999 -0.5637  0.0753 -0.0523
   15MOL    C61 5409   6.401   2.927   1.982  0.0308 -0.5329 -0.0167
   15MOL    C62 5410   6.472   2.934   2.115  0.7708 -0.5256  0.0375
   15MOL    C63 5411   6.503   2.788   2.143 -0.0912 -0.1549  0.3942
   15MOL    C64 5412   6.385   2.713   2.085  0.6538 -0.4408 -1.1034
   15MOL    C65 5413   6.348   2.682   1.780  0.3777 -0.1167 -0.3424
   15MOL    H66 5414   6.189   2.828   1.828 -1.7428  0.0723  1.0300
   15MOL    H67 5415   6.224   2.845   2.060 -0.0501 -0.9515  1.2901
   15MOL    H68 5416   6.346   3.019   1.963 -3.3173 -2.6941 -1.1290
   15MOL    H69 5417   6.472   2.904   1.902 -2.0272 -1.7580 -1.5345
   15MOL    H70 5418   6.413   2.975   2.197 -2.7692 -2.2096 -1.5480
   15MOL    H71 5419   6.562   2.995   2.121  0.0704  0.4843  0.4535
   15MOL    H72 5420   6.516   2.764   2.249 -1.2251 -0.0471  0.5569
   15MOL    H73 5421   6.591   2.774   2.080  0.6572  0.3338  1.3121
   15MOL    H74 5422   6.414   2.625   2.028 -1.2835 -0.6058 -1.8736
   15MOL    H75 5423   6.322   2.669   2.162 -0.7252  1.8089 -0.9073
   15MOL    H76 5424   6.350   2.577   1.811  1.8207  0.4959  1.8148
   15MOL    H77 5425   6.451   2.711   1.804 -0.8284  2.0018  2.6523
   15MOL    C78 5426   6.334   2.715   1.627 -0.1673 -0.0984 -0.2249
   15MOL    C79 5427   6.395   2.856   1.601  0.0512 -0.2282 -0.0232
   15MOL    C80 5428   6.345   2.913   1.470 -0.4743  0.2765  0.7924
   15MOL    C81 5429   6.453   2.906   1.368  0.0134 -0.0231 -0.0299
   15MOL    C82 5430   6.588   2.876   1.438 -0.0231 -0.1882 -0.0734
   15MOL    C83 5431   6.553   2.874   1.597 -0.5298  0.0461 -0.2501
   15MOL    C84 5432   6.395   2.600   1.545 -0.4744 -0.3677  0.1847
   15MOL    H85 5433   6.225   2.710   1.617 -0.2980 -1.2343  1.5356
   15MOL    H86 5434   6.363   2.921   1.683  0.7056 -1.1249  0.9452
   15MOL    H87 5435   6.316   3.015   1.494 -1.8438 -0.0352  0.4908
   15MOL    H88 5436   6.258   2.858   1.437 -0.6441  0.7456  0.4451
   15MOL    H89 5437   6.461   2.997   1.308  0.7516  0.4066  0.7001
   15MOL    H90 5438   6.423   2.835   1.291 -0.5979 -0.4921  0.6375
   15MOL    H91 5439   6.621   2.779   1.402  3.8546  0.6527  1.0156
   15MOL    H92 5440   6.662   2.948   1.404  0.1704  0.0820  0.8996
   15MOL    H93 5441   6.597   2.796   1.659  0.0582  2.4992  2.5110
   15MOL    H94 5442   6.578   2.971   1.640  1.3987 -1.4915  2.2352
   15MOL    H95 5443   6.494   2.574   1.582 -0.8726 -0.8657  0.9188
   15MOL    H96 5444   6.408   2.619   1.439 -2.1877  1.3502  0.2493
   15MOL    C97 5445   6.300   2.476   1.535 -0.1950 -0.0459  0.2964
   15MOL    C98 5446   6.387   2.348   1.509 -0.3250  0.0811 -0.1881
   15MOL    C99 5447   6.493   2.341   1.397 -0.0546  0.4903 -0.0802
   15MOL   C100 5448   6.588   2.238   1.435  0.0618  0.5373 -0.2939
   15MOL   C101 5449   6.597   2.253   1.585 -0.2372 -0.1510  0.2877
   15MOL   C102 5450   6.457   2.292   1.633  0.6345  1.4868 -0.4524
   15MOL   C103 5451   6.192   2.497   1.422  0.1630 -0.2908 -0.2501
   15MOL   H104 5452   6.250   2.459   1.631 -0.0795 -0.0304  0.3597
   15MOL   H105 5453   6.317   2.267   1.492  0.3298 -0.6872  0.7160
   15MOL   H106 5454   6.448   2.317   1.301 -0.1305 -0.6342  0.2313
   15MOL   H107 5455   6.545   2.436   1.390  2.2817 -0.9531 -3.5423
   15MOL   H108 5456   6.685   2.254   1.388  0.9593 -0.9929  1.0065
   15MOL   H109 5457   6.558   2.138   1.402 -1.2519  0.4584  1.0806
   15MOL   H110 5458   6.674   2.326   1.610 -0.3416  0.0632 -0.0175
   15MOL   H111 5459   6.630   2.159   1.631  0.2272 -0.8439 -1.4310
   15MOL   H112 5460   6.417   2.195   1.660 -2.6473  2.4127 -1.7152
   15MOL   H113 5461   6.459   2.356   1.721  1.1701 -0.4076  0.9524
   15MOL   H114 5462   6.133   2.585   1.449 -0.6833 -0.5008 -1.3828
   15MOL   H115 5463   6.251   2.526   1.335 -0.8837  0.2278 -0.7879
   15MOL   C116 5464   6.103   2.372   1.388 -0.1614 -1.3115 -0.4092
   15MOL   C117 5465   6.050   2.305   1.517  0.0805 -0.1473 -1.0172
   15MOL   C118 5466   5.943   2.376   1.605  0.0555  0.3168  0.5301
   15MOL   C119 5467   5.901   2.258   1.695  0.0814 -0.3015  0.0980
   15MOL   C120 5468   5.903   2.132   1.613  0.3292  0.2504  0.6963
   15MOL   C121 5469   5.994   2.170   1.488  0.3555  0.3351 -0.2995
   15MOL   C122 5470   5.991   2.410   1.294 -0.3520  0.0768  0.6571
   15MOL   H123 5471   6.166   2.294   1.345  0.8119 -0.4615 -0.5313
   15MOL   H124 5472   6.136   2.282   1.580  0.6295 -1.8640 -2.3497
   15MOL   H125 5473   5.987   2.454   1.668  3.4479  0.4075 -1.8514
   15MOL   H126 5474   5.856   2.403   1.545 -0.7403  1.1056  1.9832
   15MOL   H127 5475   5.806   2.276   1.745 -0.0695  2.7142 -1.1696
   15MOL   H128 5476   5.963   2.242   1.784  2.0411  3.0427 -0.5911
   15MOL   H129 5477   5.807   2.106   1.570  0.6359  0.9408 -0.4546
   15MOL   H130 5478   5.947   2.042   1.654  0.0968 -0.0668  0.2481
   15MOL   H131 5479   6.079   2.104   1.469 -0.2735 -0.2630 -1.1188
   15MOL   H132 5480   5.942   2.157   1.393  1.4764 -1.6195 -0.6789
   15MOL   H133 5481   5.947   2.505   1.324  0.7001  0.8882 -0.3076
   15MOL   H134 5482   5.906   2.342   1.294 -0.4296  0.1703  0.0261
   15MOL   C135 5483   6.030   2.413   1.145 -0.5613  0.0729 -0.0723
   15MOL   C136 5484   5.915   2.458   1.060 -0.0786 -0.5513 -0.4530
   15MOL   C137 5485   5.943   2.482   0.913  0.6859 -0.9992  0.0479
   15MOL   C138 5486   5.844   2.595   0.870  0.0432 -0.1746 -0.2771
   15MOL   C139 5487   5.769   2.641   0.994 -0.5639  0.1589  0.2288
   15MOL   C140 5488   5.852   2.591   1.107 -0.9249  0.0890 -0.0823
   15MOL   C141 5489   6.092   2.285   1.087  0.3451 -0.0903 -0.7443
   15MOL   H142 5490   6.106   2.490   1.138 -1.8491  1.3082 -0.9007
   15MOL   H143 5491   5.835   2.385   1.064  0.5053 -1.2183 -0.7913
   15MOL   H144 5492   6.046   2.515   0.897  0.9414 -1.4686  0.6870
   15MOL   H145 5493   5.926   2.390   0.859  0.9396 -0.9311 -0.1497
   15MOL   H146 5494   5.777   2.568   0.789  0.8944  0.6722 -1.2799
   15MOL   H147 5495   5.900   2.680   0.832 -0.0829  0.6711  1.4094
   15MOL   H148 5496   5.678   2.583   1.003  0.9164 -1.8193  3.5884
   15MOL   H149 5497   5.750   2.748   0.995  0.6898  0.3963  1.2004
   15MOL   H150 5498   5.926   2.665   1.138  0.5360 -1.7179  0.8807
   15MOL   H151 5499   5.780   2.575   1.188 -0.0569  0.2809  0.7411
   15MOL   H152 5500   6.059   2.260   0.986 -2.4232 -4.3094  1.0563
   15MOL   H153 5501   6.051   2.202   1.146  0.1942  1.6489  1.6868
   15MOL   C154 5502   6.248   2.273   1.083  0.3465  0.0826 -0.0848
   15MOL   C155 5503   6.306   2.132   1.077 -0.6150  0.2631 -0.2632
   15MOL   C156 5504   6.274   2.046   0.955  0.0296  0.1505  0.3358
   15MOL   C157 5505   6.238   1.908   1.015  0.3251  0.2629 -0.0431
   15MOL   C158 5506   6.288   1.902   1.160 -0.1335  0.3844  0.3131
   15MOL   C159 5507   6.292   2.047   1.205  0.1286 -0.2431 -0.5013
   15MOL   C160 5508   6.309   2.360   0.973  0.2344  0.3113  0.3809
   15MOL   H161 5509   6.283   2.316   1.177  0.1777 -1.9751  0.9717
   15MOL   H162 5510   6.414   2.144   1.067 -0.6199 -0.4786 -1.2620
   15MOL   H163 5511   6.185   2.087   0.907  0.5805  0.3092 -0.5743
   15MOL   H164 5512   6.357   2.046   0.884 -1.8282  0.1766 -1.9005
   15MOL   H165 5513   6.129   1.910   1.020  0.2260 -1.1425 -1.4251
   15MOL   H166 5514   6.261   1.825   0.948 -3.9022 -0.9007 -0.1506
   15MOL   H167 5515   6.392   1.871   1.158 -0.3388 -0.2383 -1.0097
   15MOL   H168 5516   6.238   1.833   1.228  2.2303 -1.0117  0.6629
   15MOL   H169 5517   6.374   2.054   1.277 -1.0325  1.9279  0.6922
   15MOL   H170 5518   6.204   2.075   1.263  1.8004 -1.5458  2.8405
   15MOL   H171 5519   6.252   2.453   0.974 -0.4390 -0.0796 -1.5706
   15MOL   H172 5520   6.297   2.305   0.881  1.3028 -0.0524  0.4475
   15MOL   C173 5521   6.451   2.403   0.996  0.0544  0.1757 -0.7779
   15MOL   C174 5522   6.472   2.528   1.077 -0.1385 -0.3344 -0.0708
   15MOL   C175 5523   6.422   2.657   1.002  0.7552  0.5824 -0.1148
   15MOL   C176 5524   6.552   2.740   0.992 -0.3081 -0.1610  0.3557
   15MOL   C177 5525   6.669   2.663   1.045 -0.5146  0.0538  0.0527
   15MOL   C178 5526   6.617   2.548   1.128  0.5518 -0.3026  0.2004
   15MOL   C179 5527   6.532   2.402   0.863  0.9851 -0.5663  0.0568
   15MOL   H180 5528   6.495   2.332   1.066  0.6383  1.1711 -0.1068
   15MOL   H181 5529   6.398   2.527   1.157 -1.4991  3.0588 -1.2053
   15MOL   H182 5530   6.352   2.713   1.063 -0.4014  0.4663 -1.2966
   15MOL   H183 5531   6.379   2.638   0.903 -2.7005 -1.1469  1.6369
   15MOL   H184 5532   6.562   2.776   0.890  2.5518  0.2388  0.7358
   15MOL   H185 5533   6.541   2.833   1.047  2.7961  1.6121 -1.8851
   15MOL   H186 5534   6.744   2.726   1.092  0.3965  0.0844 -1.4301
   15MOL   H187 5535   6.721   2.615   0.963 -2.8533  3.7484 -3.8172
   15MOL   H188 5536   6.668   2.451   1.126  0.9277 -0.0826 -1.5140
   15MOL   H189 5537   6.606   2.591   1.227 -1.2951  1.8412 -0.8928
   15MOL   H190 5538   6.478   2.459   0.787 -0.3113  0.6434  1.8307
   15MOL   H191 5539   6.623   2.459   0.883  0.9376  0.0929 -1.5347
   15MOL   C192 5540   6.573   2.270   0.795 -0.2953  0.5547  0.1027
   15MOL   C193 5541   6.685   2.191   0.870  0.3076  0.3084 -0.1688
   15MOL   C194 5542   6.817   2.259   0.881 -0.6000 -0.1610  0.8303
   15MOL   C195 5543   6.917   2.141   0.905  0.1531  0.0457 -0.7261
   15MOL   C196 5544   6.868   2.038   0.803  0.0960  0.2011  0.7617
   15MOL   C197 5545   6.719   2.053   0.809 -0.1054  0.2344 -0.6048
   15MOL   C198 5546   6.621   2.310   0.652  0.2121  0.1040  0.2603
   15MOL   H199 5547   6.484   2.208   0.789  0.2014 -0.0792 -0.8688
   15MOL   H200 5548   6.655   2.176   0.973 -2.5638  0.1781 -0.9881
   15MOL   H201 5549   6.831   2.326   0.966  2.2528  2.1230 -1.3355
   15MOL   H202 5550   6.852   2.316   0.795  1.4800  1.2197  2.5484
   15MOL   H203 5551   7.022   2.164   0.890  0.2100 -0.5695 -1.2971
   15MOL   H204 5552   6.907   2.108   1.009  1.5494 -1.7453 -1.1397
   15MOL   H205 5553   6.903   1.938   0.829  1.3952  0.2263 -0.7666
   15MOL   H206 5554   6.906   2.053   0.702  2.1439 -0.3074  1.4348
   15MOL   H207 5555   6.677   1.977   0.876 -1.1376  0.8437 -0.5409
   15MOL   H208 5556   6.672   2.044   0.711 -1.1090  1.6047 -0.2604
   15MOL   H209 5557   6.686   2.396   0.666 -0.2521  0.8440 -1.8290
   15MOL   H210 5558   6.689   2.231   0.620 -0.9703 -0.6822 -0.3814
   15MOL   C211 5559   6.509   2.303   0.548  0.7112  0.3430 -0.1635
   15MOL   C212 5560   6.543   2.384   0.418 -0.0615  0.0882  0.0550
   15MOL   C213 5561   6.554   2.532   0.433  0.5876 -0.0167  0.1506
   15MOL   C214 5562   6.613   2.577   0.294  0.4038 -0.6604 -0.4557
   15MOL   C215 5563   6.718   2.468   0.260  0.3433  0.2836 -0.3276
   15MOL   C216 5564   6.668   2.346   0.331 -0.1282 -0.0146  0.4124
   15MOL   C217 5565   6.464   2.160   0.508  0.0884 -0.9821  0.4374
   15MOL   H218 5566   6.434   2.368   0.594  0.9472  0.2563  0.3484
   15MOL   H219 5567   6.453   2.379   0.357 -0.3161  2.4275  0.1856
   15MOL   H220 5568   6.464   2.582   0.471  0.2874 -1.1450  0.9349
   15MOL   H221 5569   6.642   2.553   0.493  1.3064  1.6484 -1.4295
   15MOL   H222 5570   6.525   2.570   0.231  0.6559 -3.5507 -0.5599
   15MOL   H223 5571   6.656   2.677   0.293  1.4957 -1.1245 -1.3997
   15MOL   H224 5572   6.814   2.509   0.289 -0.7085  1.2398  1.9222
   15MOL   H225 5573   6.715   2.457   0.151 -2.0781  1.2517 -0.4057
   15MOL   H226 5574   6.636   2.267   0.263  1.1823  0.4701 -0.7798
   15MOL   H227 5575   6.742   2.302   0.398  0.8984  1.7776  0.4785
   15MOL   H228 5576   6.437   2.102   0.596  0.6469 -2.2971 -0.2449
   15MOL   H229 5577   6.556   2.109   0.477 -0.3766 -0.4066 -1.9992
   15MOL   C230 5578   6.342   2.139   0.411  0.6273 -0.0641  0.3554
   15MOL   C231 5579   6.215   2.200   0.472 -0.1997  0.5340  0.4074
   15MOL   C232 5580   6.101   2.189   0.374 -0.3489 -0.2275  1.5381
   15MOL   C233 5581   5.976   2.161   0.451  0.3907 -0.2905  0.3930
   15MOL   C234 5582   6.022   2.168   0.598 -0.3026  0.3915 -0.1260
   15MOL   C235 5583   6.172   2.141   0.601  0.2860 -0.4387 -0.1654
   15MOL   C236 5584   6.332   1.985   0.376  0.4290 -0.3122  0.5157
   15MOL   H237 5585   6.375   2.195   0.324  0.5478 -0.1077  0.2969
   15MOL   H238 5586   6.232   2.305   0.496  0.1542  0.6799 -0.4642
   15MOL   H239 5587   6.091   2.271   0.303  1.2437 -1.7562 -0.5076
   15MOL   H240 5588   6.119   2.116   0.296  1.2754  1.8354 -0.0738
   15MOL   H241 5589   5.891   2.226   0.430  0.0631 -1.0542 -0.6837
   15MOL   H242 5590   5.939   2.060   0.435 -0.8225  0.1770  0.2366
   15MOL   H243 5591   5.966   2.094   0.655 -0.6136  0.4228 -0.3956
   15MOL   H244 5592   5.990   2.259   0.648  0.5385 -0.7841  2.6640
   15MOL   H245 5593   6.197   2.037   0.619 -0.3808 -0.7862 -1.1991
   15MOL   H246 5594   6.219   2.191   0.686 -3.5532  1.9316  0.6906
   15MOL   H247 5595   6.262   1.972   0.294  1.0291 -2.7128  0.3412
   15MOL   H248 5596   6.290   1.923   0.455 -0.3569 -0.7512 -0.2382
   15MOL   C249 5597   6.461   1.909   0.332 -0.6864 -0.3809 -0.1184
   15MOL   C250 5598   6.540   1.983   0.222  0.1733  0.3794 -0.1293
   15MOL   C251 5599   6.479   1.994   0.081  0.1835  0.1477  0.0239
   15MOL   C252 5600   6.595   2.046   7.683  0.3044 -0.9388  0.4432
   15MOL   C253 5601   6.713   1.975   0.055 -0.5315 -0.1750  0.5608
   15MOL   C254 5602   6.688   1.947   0.200 -0.6939 -0.3872 -0.3325
   15MOL   C255 5603   6.436   1.754   0.306  0.1816 -0.3910  0.3573
   15MOL   H256 5604   6.537   1.915   0.410  0.5777  3.2331 -1.4950
   15MOL   H257 5605   6.543   2.091   0.234  0.8135  0.3309  0.1212
   15MOL   H258 5606   6.393   2.060   0.087  1.8152  2.3176  0.5090
   15MOL   H259 5607   6.455   1.893   0.048  0.4598 -0.7101  2.3172
   15MOL   H260 5608   6.603   2.155   7.687  0.9999 -0.9506 -0.5070
   15MOL   H261 5609   6.584   2.016   7.579 -0.6461 -1.3241  0.6511
   15MOL   H262 5610   6.806   2.030   0.053 -0.4762 -0.2872 -0.2393
   15MOL   H263 5611   6.736   1.887   7.685  1.1235  0.3871  0.3684
   15MOL   H264 5612   6.753   1.989   0.277 -0.9717  0.2975 -0.4750
   15MOL   H265 5613   6.703   1.839   0.206 -2.7475 -0.8736 -3.0119
   15MOL   H266 5614   6.377   1.754   0.215  1.6042  4.2112 -0.7063
   15MOL   H267 5615   6.533   1.706   0.289  1.0024  0.1694  3.1012
   15MOL   C268 5616   6.364   1.666   0.409 -0.4469 -0.0965 -0.2070
   15MOL   C269 5617   6.444   1.661   0.541  0.6770  0.7333  0.5037
   15MOL   C270 5618   6.413   1.534   0.627 -0.3943 -0.0300 -1.2841
   15MOL   C271 5619   6.462   1.575   0.765  0.3842  0.6618 -0.4841
   15MOL   C272 5620   6.501   1.724   0.755 -0.4756  0.6864  0.1358
   15MOL   C273 5621   6.424   1.773   0.635  0.3841 -0.9305  0.0219
   15MOL   C274 5622   6.332   1.530   0.350 -0.5411  0.2936  0.0463
   15MOL   H275 5623   6.275   1.720   0.444 -1.3716 -2.3239  1.0073
   15MOL   H276 5624   6.551   1.659   0.517  0.6856 -0.1554  0.5805
   15MOL   H277 5625   6.305   1.524   0.639 -0.5072  1.8532 -0.5555
   15MOL   H278 5626   6.456   1.436   0.603  0.4944 -0.2961  1.1602
   15MOL   H279 5627   6.379   1.562   0.836  0.2221 -0.1097 -0.8037
   15MOL   H280 5628   6.545   1.522   0.812  1.1423  1.9590 -0.3520
   15MOL   H281 5629   6.606   1.737   0.729 -0.3082  0.4010  0.6615
   15MOL   H282 5630   6.479   1.777   0.847 -0.5033 -1.1615  1.2254
   15MOL   H283 5631   6.458   1.872   0.603 -4.4228  1.7986  2.7380
   15MOL   H284 5632   6.319   1.780   0.665  0.1366 -0.6259 -0.9087
   15MOL   H285 5633   6.288   1.472   0.432  0.1201  1.7393  1.4455
   15MOL   H286 5634   6.421   1.467   0.345  0.6188  1.6495  2.6813
   15MOL   C287 5635   6.244   1.514   0.226 -0.7394 -0.0562  0.2422
   15MOL   C288 5636   6.272   1.383   0.144 -0.1248 -0.9527  0.5342
   15MOL   C289 5637   6.414   1.366   0.092  0.1472  0.3078 -0.2483
   15MOL   C290 5638   6.465   1.233   0.154  0.2068 -0.7313  0.6784
   15MOL   C291 5639   6.341   1.151   0.196  0.8500  0.2675  0.3149
   15MOL   C292 5640   6.237   1.256   0.228  0.3873 -0.3877  0.1904
   15MOL   C293 5641   6.093   1.522   0.263 -0.6303  0.1282  0.2803
   15MOL   H294 5642   6.257   1.597   0.156 -0.7374 -0.1624  0.1165
   15MOL   H295 5643   6.213   1.391   0.053 -0.6706 -1.1531  0.8666
   15MOL   H296 5644   6.412   1.348   7.675  2.2672  0.7345 -0.3892
   15MOL   H297 5645   6.485   1.448   0.109  0.7518 -0.2531 -0.0354
   15MOL   H298 5646   6.540   1.178   0.096  0.2691  1.1645 -1.1090
   15MOL   H299 5647   6.516   1.264   0.245 -0.4401  1.9792  0.1625
   15MOL   H300 5648   6.369   1.089   0.281  1.6223  0.7798  0.4375
   15MOL   H301 5649   6.298   1.090   0.117  0.5754 -2.8566  2.7728
   15MOL   H302 5650   6.251   1.279   0.333 -0.8622  2.2165 -0.1718
   15MOL   H303 5651   6.133   1.223   0.224  0.5284 -0.7723 -0.3804
   15MOL   H304 5652   6.070   1.456   0.347  2.2960  0.4911  1.4141
   15MOL   H305 5653   6.034   1.472   0.186  0.5184  0.1647 -0.6190
   15MOL   C306 5654   6.038   1.664   0.298 -0.0462  0.6669 -0.5233
   15MOL   C307 5655   5.951   1.740   0.191 -0.2254 -0.6281 -0.1158
   15MOL   C308 5656   5.947   1.899   0.215  0.1608 -1.1506  0.0499
   15MOL   C309 5657   5.998   1.959   0.087 -0.1661  0.4127  0.9423
   15MOL   C310 5658   5.969   1.846   7.674 -0.4946  0.0752  0.1862
   15MOL   C311 5659   6.019   1.722   0.052 -0.1952 -0.0730  0.2718
   15MOL   C312 5660   5.988   1.673   0.448 -0.4459 -0.4907 -0.2677
   15MOL   H313 5661   6.128   1.725   0.295 -0.2515  0.9021 -2.0703
   15MOL   H314 5662   5.848   1.704   0.181 -0.5297 -0.6047  2.6831
   15MOL   H315 5663   6.027   1.928   0.283 -0.8809  2.1469 -0.0183
   15MOL   H316 5664   5.850   1.935   0.248  1.2781  0.8577  1.3379
   15MOL   H317 5665   5.945   2.050   0.059  3.3438  2.0124 -0.8054
   15MOL   H318 5666   6.106   1.972   0.076 -0.0630 -3.2487 -3.4517
   15MOL   H319 5667   6.031   1.867   7.587  0.2088  0.6135  0.8012
   15MOL   H320 5668   5.865   1.846   7.643 -0.0214  0.2302 -1.4436
   15MOL   H321 5669   5.998   1.631   7.686 -2.1293  0.0238  0.8081
   15MOL   H322 5670   6.127   1.737   0.055 -0.5028  2.4144  0.3564
   15MOL   H323 5671   6.005   1.777   0.475  1.6522 -0.8563 -0.0945
   15MOL   H324 5672   6.059   1.628   0.518 -0.2646  0.8250  0.4045
   15MOL   C325 5673   5.849   1.637   0.488  0.9151  0.0942 -0.4301
   15MOL   C326 5674   5.827   1.655   0.643  0.8053 -0.3759 -0.2525
   15MOL   C327 5675   5.865   1.795   0.688  0.1478 -0.2801 -0.1168
   15MOL   C328 5676   5.998   1.785   0.772 -0.3310 -0.4457  0.6930
   15MOL   C329 5677   5.977   1.648   0.842  0.2404  0.0237  0.5321
   15MOL   C330 5678   5.901   1.558   0.739  0.4280  0.1684 -0.3882
   15MOL   C331 5679   5.794   1.504   0.445 -0.0576  0.3603  0.6599
   15MOL   H332 5680   5.784   1.712   0.443  0.6159  1.5127  2.2916
   15MOL   H333 5681   5.719   1.652   0.660  1.3346 -1.0597  3.3845
   15MOL   H334 5682   5.787   1.823   0.759  1.0902  0.4982  0.6275
   15MOL   H335 5683   5.858   1.865   0.604  1.5616  0.3861  0.3001
   15MOL   H336 5684   6.010   1.859   0.851  2.0028  0.8100 -0.8007
   15MOL   H337 5685   6.087   1.793   0.710 -0.6809 -0.5520  0.1813
   15MOL   H338 5686   5.929   1.669   0.937 -0.0420  2.0328 -0.0306
   15MOL   H339 5687   6.065   1.601   0.887  2.2489  0.5967 -2.5716
   15MOL   H340 5688   5.836   1.490   0.793  1.0657 -0.5128 -0.4623
   15MOL   H341 5689   5.975   1.500   0.684  1.7686  0.4785  1.0483
   15MOL   H342 5690   5.838   1.427   0.509  1.5717  0.5513 -0.2048
   15MOL   H343 5691   5.835   1.493   0.344 -1.4515  0.9101  0.0257
   15MOL   C344 5692   5.644   1.478   0.436 -0.0544 -0.2111 -0.2201
   15MOL   C345 5693   5.611   1.329   0.402 -0.6630  0.0272 -0.7445
   15MOL   C346 5694   5.660   1.217   0.502 -0.4834  0.1568  0.1510
   15MOL   C347 5695   5.673   1.088   0.414 -0.0782 -0.3231  0.3856
   15MOL   C348 5696   5.735   1.144   0.285  0.8949  0.0092  0.5932
   15MOL   C349 5697   5.675   1.279   0.262  0.3279 -0.4446 -0.8406
   15MOL   C350 5698   5.573   1.581   0.338 -0.1190 -0.2054  1.4465
   15MOL   H351 5699   5.601   1.490   0.535 -0.1696  1.8422 -0.4952
   15MOL   H352 5700   5.503   1.314   0.404 -0.4257 -1.7461  1.9369
   15MOL   H353 5701   5.594   1.194   0.586 -1.4686  1.1432 -0.3338
   15MOL   H354 5702   5.754   1.238   0.552 -0.0502 -0.6415 -0.3327
   15MOL   H355 5703   5.733   1.019   0.473  2.6465  1.7035  0.1107
   15MOL   H356 5704   5.574   1.049   0.391  0.2872 -1.4228  0.6698
   15MOL   H357 5705   5.716   1.092   0.191 -2.5820  0.6094  0.9120
   15MOL   H358 5706   5.841   1.166   0.297  1.1604 -0.7111 -0.3793
   15MOL   H359 5707   5.737   1.344   0.201 -2.3579 -0.4247 -3.6455
   15MOL   H360 5708   5.589   1.270   0.196 -1.4263 -0.5020  1.4006
   15MOL   H361 5709   5.517   1.531   0.259  1.4450 -0.4027  0.4406
   15MOL   H362 5710   5.648   1.629   0.275 -0.7513 -0.5321  0.4129
   15MOL   C363 5711   5.480   1.683   0.403 -0.5832 -0.2569  0.3763
   15MOL   C364 5712   5.436   1.797   0.303 -0.2150  0.0664 -0.0384
   15MOL   C365 5713   5.549   1.900   0.270 -0.0225  0.1379  0.3399
   15MOL   C366 5714   5.470   2.008   0.199  0.0079  0.5420 -0.4225
   15MOL   C367 5715   5.335   2.012   0.268 -0.5402 -0.2939  0.1006
   15MOL   C368 5716   5.319   1.880   0.347  0.7523 -0.0139  0.2864
   15MOL   C369 5717   5.362   1.613   0.475 -0.9206  0.4321  0.2960
   15MOL   H370 5718   5.544   1.735   0.475 -2.3419  1.0429  1.0419
   15MOL   H371 5719   5.406   1.745   0.212  0.7661 -0.4514 -0.0793
   15MOL   H372 5720   5.604   1.933   0.358  0.4624  0.3748 -0.0503
   15MOL   H373 5721   5.622   1.864   0.197 -0.7953  0.5783 -0.6644
   15MOL   H374 5722   5.527   2.101   0.200  2.3675 -0.8802 -0.5900
   15MOL   H375 5723   5.444   1.991   0.094 -2.4695 -2.8578  0.6601
   15MOL   H376 5724   5.330   2.104   0.328 -0.3287 -0.4391  0.3410
   15MOL   H377 5725   5.252   2.025   0.199 -0.9338 -0.0686  0.6104
   15MOL   H378 5726   5.220   1.845   0.319  0.9688  0.0177 -0.5287
   15MOL   H379 5727   5.312   1.900   0.454  4.8559  0.3291  0.5840
   15MOL   H380 5728   5.276   1.676   0.499 -1.7029 -1.1539  1.8027
   15MOL   H381 5729   5.403   1.568   0.565  1.4628 -0.5750 -1.2600
   15MOL   H382 5730   5.321   1.532   0.415 -1.7987  1.3891 -0.4193
   16MOL     C1 5731   3.748   5.416   5.588 -0.1806 -0.5747  0.6614
   16MOL     C2 5732   3.750   5.563   5.627  0.3329  0.6676  0.3354
   16MOL     C3 5733   3.849   5.644   5.538 -0.1556  0.0698 -0.1536
   16MOL     C4 5734   3.865   5.779   5.610 -0.1494  0.1853  0.1699
   16MOL     C5 5735   3.811   5.751   5.748  0.1969 -0.4656  0.2886
   16MOL     C6 5736   3.788   5.598   5.763 -0.0080 -1.3087  0.0266
   16MOL     C7 5737   3.653   5.325   5.676  0.4671 -0.3980  0.0354
   16MOL     H8 5738   3.719   5.410   5.483 -0.2719  1.9122  0.5011
   16MOL     H9 5739   3.655   5.606   5.596  0.3961  0.0524 -0.7187
   16MOL    H10 5740   3.938   5.591   5.505 -1.1829 -1.9991  0.3007
   16MOL    H11 5741   3.799   5.679   5.447 -2.8887 -0.1634  1.1972
   16MOL    H12 5742   3.969   5.812   5.617 -1.0338  3.7393 -1.9639
   16MOL    H13 5743   3.805   5.855   5.559 -1.8098 -0.0276  1.7539
   16MOL    H14 5744   3.876   5.792   5.826 -1.0770 -1.2224  1.7832
   16MOL    H15 5745   3.713   5.798   5.760 -0.3722 -1.8649  1.3146
   16MOL    H16 5746   3.704   5.587   5.832 -0.2489 -0.5174 -0.1363
   16MOL    H17 5747   3.877   5.547   5.799 -0.3257 -1.1493  1.0552
   16MOL    H18 5748   3.661   5.218   5.655  0.4881  0.2877 -3.6730
   16MOL    H19 5749   3.692   5.335   5.777  1.4932 -0.1677 -0.3808
   16MOL    H20 5750   3.850   5.380   5.585  0.3542  0.8802  0.9160
   16MOL    C21 5751   3.505   5.377   5.675 -0.8122  0.0621 -0.1096
   16MOL    C22 5752   3.440   5.356   5.533  0.0052  0.1688 -0.3756
   16MOL    C23 5753   3.306   5.427   5.505  0.2433 -0.2399 -0.0142
   16MOL    C24 5754   3.205   5.320   5.489  0.1647 -0.8012  0.0723
   16MOL    C25 5755   3.280   5.204   5.430 -0.1336 -0.0686 -0.2073
   16MOL    C26 5756   3.411   5.206   5.497 -0.0439  0.3137 -0.6830
   16MOL    C27 5757   3.441   5.300   5.797  0.3545 -0.7018 -0.3746
   16MOL    H28 5758   3.513   5.483   5.699 -0.9039  0.3677 -1.3944
   16MOL    H29 5759   3.503   5.397   5.455  1.2569  1.0871  1.0985
   16MOL    H30 5760   3.310   5.493   5.418  1.3024  1.3053  1.1771
   16MOL    H31 5761   3.282   5.494   5.587 -1.6998 -1.8263  0.7570
   16MOL    H32 5762   3.166   5.293   5.588  1.2014 -1.0828  0.4101
   16MOL    H33 5763   3.117   5.346   5.430  0.2902 -1.4822 -0.4181
   16MOL    H34 5764   3.285   5.203   5.321  0.5333 -0.9872 -0.1713
   16MOL    H35 5765   3.241   5.103   5.445 -0.0768 -0.0150  0.3081
   16MOL    H36 5766   3.479   5.162   5.425 -0.7783  1.0199 -1.8164
   16MOL    H37 5767   3.402   5.135   5.579 -0.3636  0.7000 -0.3745
   16MOL    H38 5768   3.334   5.296   5.775  0.2455 -1.0881  0.2319
   16MOL    H39 5769   3.467   5.195   5.796  2.3018 -0.2336 -0.0943
   16MOL    C40 5770   3.459   5.365   5.941  0.6575 -0.8460  0.3612
   16MOL    C41 5771   3.341   5.463   5.955 -1.2859 -0.1385 -0.3491
   16MOL    C42 5772   3.369   5.564   6.073 -0.2987  0.3133  0.0317
   16MOL    C43 5773   3.245   5.560   6.160 -0.7012 -0.1493  0.2726
   16MOL    C44 5774   3.133   5.503   6.076 -0.4780  0.3174 -0.1448
   16MOL    C45 5775   3.210   5.402   5.988 -0.2761 -0.1556 -0.0742
   16MOL    C46 5776   3.467   5.251   6.057  0.1980 -0.7117 -0.3740
   16MOL    H47 5777   3.550   5.425   5.935  0.2954 -0.3840 -0.5445
   16MOL    H48 5778   3.335   5.526   5.866 -2.1321  0.0627 -0.1487
   16MOL    H49 5779   3.371   5.661   6.023  2.8483  0.1387 -0.2852
   16MOL    H50 5780   3.464   5.558   6.125 -0.6919 -1.9493  0.5580
   16MOL    H51 5781   3.221   5.661   6.192 -0.1484  0.4777 -1.2376
   16MOL    H52 5782   3.261   5.492   6.244 -1.2415  1.0452  1.3551
   16MOL    H53 5783   3.053   5.477   6.145  0.2575  1.5536  1.1931
   16MOL    H54 5784   3.099   5.584   6.013  0.9484  0.0432 -1.3038
   16MOL    H55 5785   3.226   5.305   6.034  0.4386 -1.6474 -3.3535
   16MOL    H56 5786   3.161   5.378   5.894 -0.8538  1.4906 -0.2211
   16MOL    H57 5787   3.460   5.312   6.147  0.6181  0.4218 -1.0940
   16MOL    H58 5788   3.375   5.191   6.062 -1.0794  1.3425  2.6629
   16MOL    C59 5789   3.602   5.178   6.044 -0.0790  0.3655 -0.0360
   16MOL    C60 5790   3.705   5.209   6.157  0.6608 -0.0580 -0.4774
   16MOL    C61 5791   3.660   5.173   6.303 -0.5468 -0.4177  0.2906
   16MOL    C62 5792   3.694   5.297   6.386 -0.0783  0.1445  0.3726
   16MOL    C63 5793   3.787   5.381   6.297 -0.7322 -0.2528 -0.2212
   16MOL    C64 5794   3.744   5.353   6.161 -0.0216  0.5659  0.6450
   16MOL    C65 5795   3.571   5.029   6.026  0.2090  0.9531  0.1695
   16MOL    H66 5796   3.651   5.196   5.948 -0.8697  1.4416 -0.2480
   16MOL    H67 5797   3.792   5.149   6.133  0.2120 -1.1449  0.5127
   16MOL    H68 5798   3.705   5.081   6.338  1.7279  0.1190 -1.1743
   16MOL    H69 5799   3.551   5.176   6.310 -0.6996 -1.7481 -1.2917
   16MOL    H70 5800   3.738   5.269   6.481 -0.8923 -0.0526  0.6951
   16MOL    H71 5801   3.604   5.350   6.416 -0.0490  0.3654  0.0742
   16MOL    H72 5802   3.892   5.353   6.313 -0.8065 -0.2839  0.2247
   16MOL    H73 5803   3.771   5.484   6.328 -1.6795  0.0974 -1.8517
   16MOL    H74 5804   3.661   5.417   6.130  0.0530  1.8772  3.0832
   16MOL    H75 5805   3.829   5.377   6.097 -1.1258 -1.0563 -1.5343
   16MOL    H76 5806   3.477   5.018   5.973  1.0151  0.3907 -1.1686
   16MOL    H77 5807   3.545   4.987   6.123 -1.5360 -0.6818 -0.9706
   16MOL    C78 5808   3.681   4.926   5.971  0.1497  0.1590 -0.1402
   16MOL    C79 5809   3.658   4.773   6.015  0.0997  0.1942 -0.4044
   16MOL    C80 5810   3.536   4.703   5.945  0.0802 -0.1643 -0.2140
   16MOL    C81 5811   3.470   4.612   6.051 -0.3818  0.5554 -0.1766
   16MOL    C82 5812   3.499   4.682   6.180 -0.0057  0.0638  0.2194
   16MOL    C83 5813   3.635   4.743   6.167 -0.3478  0.0566 -1.0599
   16MOL    C84 5814   3.700   4.948   5.823 -0.6924 -0.2149  0.2455
   16MOL    H85 5815   3.770   4.948   6.030 -0.5808 -0.9164  1.3990
   16MOL    H86 5816   3.754   4.723   6.000  0.6445  0.7029  1.2143
   16MOL    H87 5817   3.553   4.638   5.859 -1.7726 -1.7659  0.5752
   16MOL    H88 5818   3.466   4.781   5.915 -2.4070 -2.1399  0.2066
   16MOL    H89 5819   3.519   4.515   6.062  2.1386  1.7340 -0.4066
   16MOL    H90 5820   3.364   4.594   6.039 -0.2122 -1.5268  1.3459
   16MOL    H91 5821   3.441   4.772   6.198  1.9768  1.7845 -1.6680
   16MOL    H92 5822   3.491   4.612   6.263 -1.4263 -1.2657 -0.9976
   16MOL    H93 5823   3.665   4.827   6.230 -0.8564 -1.5355  1.3648
   16MOL    H94 5824   3.707   4.668   6.200 -2.1339 -1.1165  0.2469
   16MOL    H95 5825   3.728   5.052   5.810 -3.0692  0.1586 -2.3863
   16MOL    H96 5826   3.604   4.937   5.773  0.1386  0.1935 -1.4859
   16MOL    C97 5827   3.812   4.871   5.754  0.0281  0.6476 -0.0419
   16MOL    C98 5828   3.961   4.904   5.801 -0.5507  0.0720 -0.0455
   16MOL    C99 5829   4.063   4.798   5.755 -0.4287  0.2835  0.1137
   16MOL   C100 5830   4.200   4.858   5.782 -0.1477  0.6113  0.0080
   16MOL   C101 5831   4.174   5.009   5.762 -0.8662  0.8558 -0.1080
   16MOL   C102 5832   4.022   5.032   5.746  0.2193 -0.1944  0.2188
   16MOL   C103 5833   3.793   4.862   5.601 -0.0799  0.2911 -0.2724
   16MOL   H104 5834   3.790   4.768   5.783  0.0439  0.7117  0.2038
   16MOL   H105 5835   3.955   4.901   5.910  0.3920 -0.5853  0.0005
   16MOL   H106 5836   4.043   4.710   5.817  1.8225  1.7203  2.9787
   16MOL   H107 5837   4.056   4.766   5.651 -0.8485 -0.7153  0.4388
   16MOL   H108 5838   4.281   4.814   5.724  0.2451 -0.0695  1.0510
   16MOL   H109 5839   4.222   4.848   5.889  1.5501  0.0059 -0.3861
   16MOL   H110 5840   4.231   5.042   5.675  1.6643 -0.8088  0.8369
   16MOL   H111 5841   4.218   5.063   5.846 -0.3900  0.3984 -0.0572
   16MOL   H112 5842   3.997   5.124   5.800  3.0843  0.2191  0.9273
   16MOL   H113 5843   3.999   5.054   5.641 -0.7101  2.1220  0.8731
   16MOL   H114 5844   3.734   4.944   5.563  2.2471  3.1458  2.0554
   16MOL   H115 5845   3.889   4.854   5.549 -0.4041 -0.4329 -0.7730
   16MOL   C116 5846   3.735   4.734   5.546 -0.2026 -0.0974  0.6512
   16MOL   C117 5847   3.642   4.749   5.427  0.1495  0.2278  0.2840
   16MOL   C118 5848   3.515   4.824   5.460  0.5717  0.1809 -0.5613
   16MOL   C119 5849   3.447   4.838   5.331  0.1648 -1.1018 -0.1757
   16MOL   C120 5850   3.567   4.868   5.236  0.3811  0.1156  0.1551
   16MOL   C121 5851   3.694   4.818   5.303  0.0384  1.0332  0.0747
   16MOL   C122 5852   3.845   4.620   5.510  0.5206 -0.5235  0.0535
   16MOL   H123 5853   3.676   4.680   5.621  2.4642 -0.4337  2.5680
   16MOL   H124 5854   3.616   4.648   5.394  1.9606  0.6927 -2.7141
   16MOL   H125 5855   3.465   4.764   5.536 -0.5618 -0.9886 -2.1908
   16MOL   H126 5856   3.522   4.925   5.501 -2.8396 -0.5071  2.0189
   16MOL   H127 5857   3.374   4.919   5.325  2.7285  1.2711 -0.4213
   16MOL   H128 5858   3.408   4.742   5.298  0.4788 -0.8958 -1.1583
   16MOL   H129 5859   3.568   4.977   5.231 -2.1483  0.1511 -0.5169
   16MOL   H130 5860   3.566   4.820   5.138 -0.6116 -1.0597  0.7202
   16MOL   H131 5861   3.759   4.756   5.240 -1.3826 -1.0736  0.6239
   16MOL   H132 5862   3.756   4.901   5.337  0.2796  0.7432  0.3493
   16MOL   H133 5863   3.915   4.630   5.593  0.3355  1.5049 -0.0078
   16MOL   H134 5864   3.891   4.647   5.416 -0.7093  1.4247 -0.0237
   16MOL   C135 5865   3.788   4.471   5.502  0.6276 -0.5858  0.2917
   16MOL   C136 5866   3.767   4.417   5.646 -0.2741 -0.2113  0.3886
   16MOL   C137 5867   3.892   4.403   5.737  0.4551  0.0772 -1.0547
   16MOL   C138 5868   3.844   4.314   5.852 -0.5481 -0.6897  0.5310
   16MOL   C139 5869   3.717   4.239   5.803  0.4298  0.0568  0.9400
   16MOL   C140 5870   3.695   4.284   5.653 -0.1236 -0.2789  0.8895
   16MOL   C141 5871   3.874   4.377   5.416  0.6675  0.8976  0.7865
   16MOL   H142 5872   3.688   4.479   5.461  1.7039  0.3711 -2.2588
   16MOL   H143 5873   3.699   4.481   5.702 -1.6822 -0.6640 -0.7474
   16MOL   H144 5874   3.975   4.345   5.698  0.8425  0.3649 -0.6754
   16MOL   H145 5875   3.940   4.494   5.774 -0.8041 -0.0540  0.9942
   16MOL   H146 5876   3.828   4.379   5.938  0.1002  0.8380 -0.4719
   16MOL   H147 5877   3.926   4.251   5.886 -0.9410 -1.6400 -0.2471
   16MOL   H148 5878   3.634   4.269   5.866 -1.7009 -1.5633 -1.0498
   16MOL   H149 5879   3.737   4.132   5.808 -2.0591 -0.4697  0.1315
   16MOL   H150 5880   3.743   4.207   5.593 -0.7172  0.4947 -0.6068
   16MOL   H151 5881   3.593   4.282   5.615  0.2287 -0.6730 -0.0506
   16MOL   H152 5882   3.832   4.276   5.425  0.2919  0.8126 -1.5320
   16MOL   H153 5883   3.972   4.370   5.462  0.3454 -2.3731  1.1212
   16MOL   C154 5884   3.872   4.396   5.260  0.6599  0.1902 -0.3978
   16MOL   C155 5885   3.995   4.327   5.193  0.7683  0.0648  0.2973
   16MOL   C156 5886   4.020   4.179   5.221  0.6042  0.0333  0.1744
   16MOL   C157 5887   4.160   4.156   5.164  0.3565 -0.1902  0.7776
   16MOL   C158 5888   4.242   4.266   5.212 -0.6402  0.4529  0.3044
   16MOL   C159 5889   4.134   4.382   5.236 -0.3196 -0.5353  0.5006
   16MOL   C160 5890   3.739   4.334   5.208 -0.0318 -0.3350  0.2880
   16MOL   H161 5891   3.866   4.504   5.246 -0.7890  0.2520  0.5902
   16MOL   H162 5892   3.999   4.330   5.084 -0.9918 -0.6397  0.1922
   16MOL   H163 5893   4.021   4.158   5.328 -0.7458 -0.6485  0.0573
   16MOL   H164 5894   3.948   4.106   5.184 -1.9200  1.7567  1.4808
   16MOL   H165 5895   4.198   4.059   5.195 -0.0039 -1.5053 -2.6528
   16MOL   H166 5896   4.163   4.146   5.056 -0.2962  1.3067  0.6119
   16MOL   H167 5897   4.317   4.308   5.144  0.7839  0.6044  1.9458
   16MOL   H168 5898   4.277   4.250   5.314  0.0123 -0.7001 -0.0889
   16MOL   H169 5899   4.178   4.464   5.180 -0.7647 -1.8622 -1.8753
   16MOL   H170 5900   4.134   4.410   5.341 -0.3509 -1.5989  0.7927
   16MOL   H171 5901   3.662   4.402   5.245  2.4611  1.7736  1.8466
   16MOL   H172 5902   3.723   4.236   5.252 -2.3012  0.2605  0.8562
   16MOL   C173 5903   3.713   4.328   5.057 -0.4477 -0.4513 -0.3442
   16MOL   C174 5904   3.731   4.465   4.986  0.4086  0.5250 -0.1504
   16MOL   C175 5905   3.617   4.564   5.021 -0.1806 -0.2353 -0.4087
   16MOL   C176 5906   3.603   4.654   4.896 -0.4154 -0.0495 -0.5751
   16MOL   C177 5907   3.642   4.565   4.779 -0.3796 -0.3621 -0.8632
   16MOL   C178 5908   3.737   4.462   4.835 -0.1160  0.3604 -0.0289
   16MOL   C179 5909   3.582   4.254   5.023 -0.1768  0.5090  0.5589
   16MOL   H180 5910   3.793   4.268   5.013  0.7388  0.8169  0.0319
   16MOL   H181 5911   3.827   4.510   5.009  0.3755  0.6111 -0.1799
   16MOL   H182 5912   3.649   4.617   5.111 -1.0665  1.1169 -0.8674
   16MOL   H183 5913   3.519   4.520   5.040  0.4052 -1.1534  0.5634
   16MOL   H184 5914   3.503   4.695   4.880 -0.9568 -1.7601 -1.7258
   16MOL   H185 5915   3.683   4.728   4.891  0.7990 -1.4230 -1.8804
   16MOL   H186 5916   3.688   4.620   4.697  0.9747 -0.6908 -0.3353
   16MOL   H187 5917   3.548   4.523   4.742  0.7402 -1.0586 -2.9825
   16MOL   H188 5918   3.712   4.369   4.783  1.0083 -0.1110  0.2556
   16MOL   H189 5919   3.838   4.488   4.804 -0.6481  0.8563 -1.3576
   16MOL   H190 5920   3.500   4.285   5.088  0.7609 -1.2644  2.6728
   16MOL   H191 5921   3.544   4.272   4.922 -2.6995 -0.5202  1.2780
   16MOL   C192 5922   3.607   4.094   5.038 -0.2494  0.3568 -0.5255
   16MOL   C193 5923   3.586   4.016   4.902  0.1225 -0.1264  0.5531
   16MOL   C194 5924   3.686   4.056   4.796 -0.1683  0.4231  0.1343
   16MOL   C195 5925   3.590   4.128   4.700 -0.6213 -0.1718  0.2041
   16MOL   C196 5926   3.455   4.059   4.711  1.7944 -0.2203 -0.4658
   16MOL   C197 5927   3.443   4.043   4.860 -0.3142 -0.3457 -0.2080
   16MOL   C198 5928   3.518   4.041   5.156 -0.3370 -0.6214  1.0899
   16MOL   H199 5929   3.702   4.082   5.089 -0.4451  2.0047  0.2559
   16MOL   H200 5930   3.607   3.911   4.922  1.6214 -0.1864 -1.2647
   16MOL   H201 5931   3.730   3.962   4.761  0.4558  0.8500 -0.2483
   16MOL   H202 5932   3.763   4.125   4.832 -0.2504 -0.3202  1.7607
   16MOL   H203 5933   3.577   4.231   4.731 -0.3051  0.2395 -1.0261
   16MOL   H204 5934   3.623   4.125   4.596  1.4394 -3.9560  0.8726
   16MOL   H205 5935   3.457   3.959   4.667  1.7759 -0.5191  0.2031
   16MOL   H206 5936   3.361   4.097   4.673  1.1743 -2.0817 -0.8751
   16MOL   H207 5937   3.376   3.963   4.892  0.0668 -0.1148  1.2231
   16MOL   H208 5938   3.399   4.137   4.894 -1.7393 -1.1649  0.2254
   16MOL   H209 5939   3.540   4.099   5.246  2.5220  1.0998 -0.6589
   16MOL   H210 5940   3.420   4.077   5.126 -0.0481  0.8487  1.8415
   16MOL   C211 5941   3.497   3.892   5.186 -0.0481 -0.2869  0.0943
   16MOL   C212 5942   3.622   3.820   5.250 -0.5422  1.0350  0.6388
   16MOL   C213 5943   3.729   3.773   5.160  0.6608  0.2021 -0.0205
   16MOL   C214 5944   3.851   3.751   5.256 -0.0394 -0.3070  0.8874
   16MOL   C215 5945   3.818   3.827   5.390 -0.0927 -0.0122  0.3547
   16MOL   C216 5946   3.684   3.895   5.368  0.0573  0.0525  0.6085
   16MOL   C217 5947   3.375   3.858   5.268 -0.1900 -1.1219 -0.3993
   16MOL   H218 5948   3.483   3.843   5.090 -1.0695  0.6415 -0.2413
   16MOL   H219 5949   3.584   3.726   5.290  0.1832 -0.0940 -1.2362
   16MOL   H220 5950   3.701   3.688   5.098 -0.0654  0.0247  0.5276
   16MOL   H221 5951   3.753   3.855   5.093  0.1667  0.7418  0.4558
   16MOL   H222 5952   3.864   3.644   5.273 -1.8023 -0.3589  1.9582
   16MOL   H223 5953   3.948   3.788   5.222 -1.1075  0.9814 -0.8363
   16MOL   H224 5954   3.889   3.907   5.412  0.7325 -1.3902  2.9354
   16MOL   H225 5955   3.813   3.752   5.469 -2.0641 -1.8071 -1.4127
   16MOL   H226 5956   3.622   3.888   5.457 -0.5004  0.8520  0.2961
   16MOL   H227 5957   3.697   3.997   5.330  1.1985 -0.9495 -1.8381
   16MOL   H228 5958   3.319   3.952   5.266  1.9863  0.2297 -0.2503
   16MOL   H229 5959   3.407   3.859   5.372 -1.6090 -0.7488  0.0362
   16MOL   C230 5960   3.276   3.751   5.234 -0.1252  0.3290  0.2733
   16MOL   C231 5961   3.212   3.772   5.098 -0.8558  0.5470 -0.7347
   16MOL   C232 5962   3.140   3.650   5.031  0.6002 -0.6472 -0.8855
   16MOL   C233 5963   3.048   3.714   4.936  0.6398 -0.0224 -0.1994
   16MOL   C234 5964   3.004   3.843   4.998  0.4185  0.0081  0.2224
   16MOL   C235 5965   3.105   3.877   5.096  0.0476 -1.1239  0.0635
   16MOL   C236 5966   3.178   3.729   5.355 -0.2268 -0.2943  0.0900
   16MOL   H237 5967   3.322   3.653   5.221  0.7765  0.9599 -1.3795
   16MOL   H238 5968   3.297   3.780   5.030  1.6919 -1.0155  2.1184
   16MOL   H239 5969   3.207   3.581   4.980  1.3739 -2.0627  1.9397
   16MOL   H240 5970   3.085   3.589   5.103 -4.1890  3.5323 -0.7080
   16MOL   H241 5971   3.096   3.728   4.839  1.2020 -1.6098 -0.1720
   16MOL   H242 5972   2.969   3.652   4.895  1.0242  0.7048 -2.0862
   16MOL   H243 5973   2.903   3.842   5.040  0.3455  0.7046  0.0774
   16MOL   H244 5974   3.007   3.921   4.922 -1.5177  1.5584  1.6783
   16MOL   H245 5975   3.071   3.903   5.197  0.8528  0.4730 -0.0522
   16MOL   H246 5976   3.141   3.976   5.067 -1.0201 -0.7903 -0.1383
   16MOL   H247 5977   3.089   3.683   5.312 -0.1311 -0.7798  0.4046
   16MOL   H248 5978   3.139   3.824   5.392  0.4312 -0.6258  1.6400
   16MOL   C249 5979   3.252   3.653   5.474 -0.2754  0.0345 -0.1434
   16MOL   C250 5980   3.225   3.499   5.461  0.0014  0.3589 -0.1323
   16MOL   C251 5981   3.080   3.461   5.444 -0.1630 -0.2115 -0.1315
   16MOL   C252 5982   3.076   3.324   5.497  0.3785 -0.2247 -0.7664
   16MOL   C253 5983   3.179   3.308   5.603 -0.6747 -0.2824  0.1010
   16MOL   C254 5984   3.295   3.399   5.562  0.2767 -0.2971  0.0629
   16MOL   C255 5985   3.193   3.695   5.610  0.6952  0.3819  0.6406
   16MOL   H256 5986   3.359   3.671   5.465 -0.3987  0.8876  0.1182
   16MOL   H257 5987   3.262   3.484   5.359  1.3679 -0.4013  0.4601
   16MOL   H258 5988   3.046   3.454   5.341  2.6353  0.6660 -1.1494
   16MOL   H259 5989   3.012   3.522   5.505 -0.0228 -2.5771  2.4936
   16MOL   H260 5990   3.110   3.258   5.417 -0.2094 -0.3761 -0.8948
   16MOL   H261 5991   2.974   3.301   5.528 -0.0292  1.3211 -0.9144
   16MOL   H262 5992   3.194   3.201   5.618 -3.0983 -0.5346  0.9786
   16MOL   H263 5993   3.138   3.338   5.700 -0.8637 -1.3828  0.3661
   16MOL   H264 5994   3.359   3.325   5.514 -0.8368 -0.7142 -0.7923
   16MOL   H265 5995   3.339   3.442   5.652 -2.4036  3.0315 -0.1091
   16MOL   H266 5996   3.089   3.724   5.591  0.9232  1.1479  0.5714
   16MOL   H267 5997   3.195   3.613   5.683  3.4091  0.2603  0.4636
   16MOL   C268 5998   3.273   3.824   5.654 -0.3102  0.7611 -0.6136
   16MOL   C269 5999   3.416   3.792   5.697 -0.2991  0.3359 -0.3374
   16MOL   C270 6000   3.434   3.690   5.812  0.3275 -0.3019 -0.5051
   16MOL   C271 6001   3.569   3.709   5.883 -0.1650 -0.0931  0.1838
   16MOL   C272 6002   3.600   3.858   5.863  1.0922  0.4467  0.2819
   16MOL   C273 6003   3.519   3.905   5.736  0.3380  0.2980  0.9075
   16MOL   C274 6004   3.205   3.911   5.766  0.1849  0.9197  0.0779
   16MOL   H275 6005   3.275   3.890   5.567 -0.3860  0.5343 -0.7886
   16MOL   H276 6006   3.466   3.743   5.613  0.6956 -0.4955  0.7229
   16MOL   H277 6007   3.349   3.685   5.880  0.4744  0.3631 -0.2673
   16MOL   H278 6008   3.445   3.589   5.772 -0.4815 -0.7192  0.2908
   16MOL   H279 6009   3.562   3.692   5.991 -1.3724  0.0387  0.1384
   16MOL   H280 6010   3.639   3.642   5.834  1.1709  1.6666 -0.3527
   16MOL   H281 6011   3.708   3.870   5.856  1.7240 -2.5715  3.5690
   16MOL   H282 6012   3.571   3.912   5.953  0.5364  1.4941 -0.5146
   16MOL   H283 6013   3.598   3.910   5.661 -1.3963 -0.3534 -1.0050
   16MOL   H284 6014   3.484   4.008   5.733  1.1118  0.6103  2.2704
   16MOL   H285 6015   3.277   3.976   5.815  0.1310 -0.2334  1.7328
   16MOL   H286 6016   3.174   3.845   5.847 -0.7396 -2.5176 -2.9546
   16MOL   C287 6017   3.091   4.002   5.706  0.0358  0.0142 -0.2214
   16MOL   C288 6018   2.962   4.015   5.793  0.1630  1.0046 -0.1900
   16MOL   C289 6019   2.888   3.876   5.797 -0.8304  0.5038 -0.2033
   16MOL   C290 6020   2.798   3.893   5.914  0.2111 -0.2935 -0.5470
   16MOL   C291 6021   2.859   3.999   6.016 -0.1773 -0.5866  0.5531
   16MOL   C292 6022   2.983   4.051   5.942 -0.0610 -0.2138  0.0369
   16MOL   C293 6023   3.154   4.137   5.654 -0.5297  0.2386  0.3468
   16MOL   H294 6024   3.050   3.956   5.615  2.4274 -0.5982 -1.0311
   16MOL   H295 6025   2.898   4.089   5.746 -1.0197 -1.4276 -2.5424
   16MOL   H296 6026   2.824   3.857   5.711 -0.9083 -3.6339  0.6583
   16MOL   H297 6027   2.956   3.794   5.825 -1.1151  0.4927  0.4607
   16MOL   H298 6028   2.703   3.926   5.872  0.0912  0.4490  0.2881
   16MOL   H299 6029   2.774   3.802   5.970 -1.2801 -0.0139 -0.7093
   16MOL   H300 6030   2.879   3.951   6.111 -0.3494 -0.7052  0.5288
   16MOL   H301 6031   2.793   4.085   6.032  1.2460  0.4615  0.9312
   16MOL   H302 6032   3.069   4.003   5.990  0.8232  1.7329  0.4493
   16MOL   H303 6033   3.003   4.157   5.957 -0.1102  0.2932 -3.1988
   16MOL   H304 6034   3.251   4.131   5.605  0.1533  1.0355  1.5498
   16MOL   H305 6035   3.191   4.186   5.745 -0.3149  1.4302 -0.3628
   16MOL   C306 6036   3.068   4.227   5.565 -0.4116  0.4501 -0.3978
   16MOL   C307 6037   3.125   4.368   5.525 -0.3515 -0.2111 -0.0230
   16MOL   C308 6038   3.159   4.463   5.636 -0.6201  0.5717 -0.7076
   16MOL   C309 6039   3.236   4.580   5.572 -0.3730 -0.0010 -0.2841
   16MOL   C310 6040   3.321   4.504   5.470  0.1937 -0.1590 -0.2642
   16MOL   C311 6041   3.247   4.380   5.429  0.1222 -0.3178  0.2216
   16MOL   C312 6042   3.012   4.156   5.434 -0.3424  0.7564  0.0637
   16MOL   H313 6043   2.983   4.247   5.630 -0.9325 -1.4231 -0.4642
   16MOL   H314 6044   3.048   4.417   5.465 -1.5201 -2.1928 -0.1746
   16MOL   H315 6045   3.225   4.410   5.704  1.0916  2.8917 -0.4990
   16MOL   H316 6046   3.070   4.496   5.689 -1.5704 -3.3364  0.2815
   16MOL   H317 6047   3.163   4.652   5.535 -0.8798  0.0897  0.8516
   16MOL   H318 6048   3.302   4.626   5.646 -0.4482 -0.1753 -0.1073
   16MOL   H319 6049   3.422   4.497   5.511 -0.6192 -4.1535  1.2789
   16MOL   H320 6050   3.337   4.573   5.387 -0.5509  0.1086 -0.1846
   16MOL   H321 6051   3.213   4.394   5.326 -0.8242 -1.3805  0.3758
   16MOL   H322 6052   3.303   4.288   5.447  0.7751 -0.1451 -0.8641
   16MOL   H323 6053   3.023   4.048   5.426 -1.8293  0.6813 -1.0390
   16MOL   H324 6054   3.073   4.191   5.350  2.0215 -1.5245  0.7441
   16MOL   C325 6055   2.869   4.197   5.409  0.4639 -0.5073  0.1819
   16MOL   C326 6056   2.770   4.096   5.481  0.4383  0.3270 -0.3733
   16MOL   C327 6057   2.739   3.960   5.403 -0.7431 -0.7786 -0.6689
   16MOL   C328 6058   2.585   3.962   5.402 -0.4738 -0.4150  0.3909
   16MOL   C329 6059   2.533   4.044   5.513  0.8319  0.2526  0.7258
   16MOL   C330 6060   2.636   4.157   5.512 -0.4117  0.3080 -0.3017
   16MOL   C331 6061   2.828   4.208   5.257 -0.1422  0.3823  0.9742
   16MOL   H332 6062   2.859   4.294   5.457  1.6319 -0.6276  0.6890
   16MOL   H333 6063   2.821   4.066   5.573 -0.5387 -0.7396 -0.1611
   16MOL   H334 6064   2.766   3.874   5.464  2.1187 -0.8973 -2.0652
   16MOL   H335 6065   2.788   3.942   5.308 -3.6254 -1.1447 -2.1494
   16MOL   H336 6066   2.546   3.860   5.403 -0.7411 -0.3142  0.2504
   16MOL   H337 6067   2.546   3.987   5.303 -2.8530 -2.2486  0.8341
   16MOL   H338 6068   2.534   3.992   5.609  0.4435 -1.1661 -0.0170
   16MOL   H339 6069   2.430   4.078   5.505  0.0936 -2.0723  0.0462
   16MOL   H340 6070   2.633   4.198   5.612 -2.7494  0.9234 -0.5916
   16MOL   H341 6071   2.603   4.233   5.441  0.3736  0.6528 -0.3013
   16MOL   H342 6072   2.719   4.197   5.256 -0.1562  0.5429 -0.0192
   16MOL   H343 6073   2.882   4.122   5.216  0.7506  0.8273  1.2249
   16MOL   C344 6074   2.869   4.346   5.184 -0.2145  0.7094 -0.1215
   16MOL   C345 6075   2.796   4.471   5.235  0.1056 -0.6518 -0.4468
   16MOL   C346 6076   2.642   4.466   5.232  0.4704  0.4593  0.1659
   16MOL   C347 6077   2.601   4.614   5.219 -0.2546  0.4090 -0.1477
   16MOL   C348 6078   2.713   4.673   5.138 -0.2218  0.3544 -0.4358
   16MOL   C349 6079   2.845   4.602   5.184  0.8032  0.3958  0.6125
   16MOL   C350 6080   2.855   4.324   5.026  0.2415 -0.0073 -0.2813
   16MOL   H351 6081   2.974   4.367   5.205 -0.4235 -1.0077  2.9413
   16MOL   H352 6082   2.810   4.479   5.343  1.2239 -0.2141 -0.6183
   16MOL   H353 6083   2.604   4.416   5.321  0.3297 -3.2306 -1.8535
   16MOL   H354 6084   2.603   4.406   5.150  0.2564 -0.8291  1.1979
   16MOL   H355 6085   2.507   4.623   5.165 -0.1185  2.0247 -0.1489
   16MOL   H356 6086   2.592   4.659   5.318 -0.6083 -1.5823  0.7552
   16MOL   H357 6087   2.727   4.779   5.160 -0.4569  0.5311 -1.1363
   16MOL   H358 6088   2.710   4.666   5.029 -2.1266  0.8764 -0.4185
   16MOL   H359 6089   2.902   4.585   5.093 -1.3989 -1.6321 -0.4683
   16MOL   H360 6090   2.903   4.660   5.256 -0.2828  1.0601  0.9651
   16MOL   H361 6091   2.835   4.413   4.967  2.4345 -0.3043 -1.5197
   16MOL   H362 6092   2.769   4.259   5.008 -0.1017  0.7450 -1.3989
   16MOL   C363 6093   2.972   4.238   4.947 -0.1705  0.1961  0.2648
   16MOL   C364 6094   2.922   4.197   4.810  0.5452  0.3533  0.3384
   16MOL   C365 6095   2.797   4.115   4.801  0.2437  0.3218 -0.1177
   16MOL   C366 6096   2.798   4.034   4.667  0.2003 -0.8107 -0.6185
   16MOL   C367 6097   2.941   3.995   4.654 -0.0570 -0.2323  0.0739
   16MOL   C368 6098   3.017   4.120   4.717  0.7384 -0.2347 -0.5999
   16MOL   C369 6099   3.101   4.315   4.949  0.2345  0.5498  0.1657
   16MOL   H370 6100   2.993   4.147   5.004  0.5242  0.9625  1.2434
   16MOL   H371 6101   2.900   4.280   4.743  0.1138 -0.0691 -0.0537
   16MOL   H372 6102   2.788   4.043   4.882  0.1521  0.4972  0.0285
   16MOL   H373 6103   2.710   4.181   4.804 -0.4613 -0.5929 -0.0532
   16MOL   H374 6104   2.726   3.956   4.690  0.0761 -0.4781  0.1334
   16MOL   H375 6105   2.759   4.091   4.583 -1.4643  1.6385  1.7416
   16MOL   H376 6106   2.954   3.906   4.716  2.0282  0.4683  0.7160
   16MOL   H377 6107   2.964   3.972   4.550  0.0745  0.6303 -0.0876
   16MOL   H378 6108   3.055   4.187   4.640  1.9463  0.4089  0.5139
   16MOL   H379 6109   3.101   4.085   4.779  1.1666 -0.2593 -1.1909
   16MOL   H380 6110   3.179   4.275   4.883 -1.4793 -0.5625 -1.2255
   16MOL   H381 6111   3.138   4.330   5.051  0.6744  2.5986 -0.2826
   16MOL   H382 6112   3.081   4.416   4.914 -3.6891  0.2329  1.2988
   17MOL     C1 6113   4.576   1.712   6.777 -0.4007  0.3960 -0.8701
   17MOL     C2 6114   4.595   1.867   6.775 -0.6073  0.5676  0.3283
   17MOL     C3 6115   4.587   1.920   6.923  0.1805 -0.6653  0.0964
   17MOL     C4 6116   4.454   1.997   6.926  0.7300 -0.1103 -0.2746
   17MOL     C5 6117   4.376   1.972   6.802 -0.1533  0.1859 -0.6614
   17MOL     C6 6118   4.480   1.934   6.695 -0.9846  0.3850 -0.7049
   17MOL     C7 6119   4.604   1.636   6.648 -0.5075  0.1014  0.1508
   17MOL     H8 6120   4.629   1.656   6.854  0.1029  1.4155 -0.4680
   17MOL     H9 6121   4.689   1.889   6.724  0.3751 -0.6972  1.5317
   17MOL    H10 6122   4.578   1.830   6.984 -0.6269 -0.8169 -0.2412
   17MOL    H11 6123   4.674   1.977   6.956  1.1285 -1.9922 -0.0759
   17MOL    H12 6124   4.398   1.974   7.016 -1.4359  2.2952 -0.9662
   17MOL    H13 6125   4.481   2.101   6.945 -3.3377  0.7609  1.1716
   17MOL    H14 6126   4.315   1.882   6.809 -0.5749  0.4769 -0.5899
   17MOL    H15 6127   4.313   2.056   6.772  1.1605  0.6283 -2.2604
   17MOL    H16 6128   4.518   2.031   6.662 -2.0910  0.6765 -1.1444
   17MOL    H17 6129   4.441   1.883   6.607  1.8796  0.6444 -2.1702
   17MOL    H18 6130   4.588   1.683   6.551  3.4411 -2.8383 -2.0858
   17MOL    H19 6131   4.712   1.624   6.642 -0.4447  0.5450  0.3368
   17MOL    H20 6132   4.470   1.704   6.797 -0.4957 -0.5379 -1.6721
   17MOL    C21 6133   4.534   1.501   6.647  0.1122 -0.9088 -0.0680
   17MOL    C22 6134   4.558   1.415   6.778  0.1651 -0.2524  0.7648
   17MOL    C23 6135   4.704   1.365   6.807  0.0929  0.3911  0.1339
   17MOL    C24 6136   4.685   1.267   6.922 -1.1953  0.2400  0.2282
   17MOL    C25 6137   4.566   1.186   6.874 -0.1362 -0.7508  0.0481
   17MOL    C26 6138   4.491   1.276   6.767  0.1775  0.0615  0.1596
   17MOL    C27 6139   4.390   1.522   6.590 -0.4409  0.4618 -0.3619
   17MOL    H28 6140   4.580   1.454   6.560  1.0376  0.0976 -0.1253
   17MOL    H29 6141   4.510   1.463   6.864 -2.6262 -1.0688 -0.2772
   17MOL    H30 6142   4.777   1.440   6.839  1.7581 -0.9582 -0.4528
   17MOL    H31 6143   4.748   1.315   6.722 -1.1892  0.0173 -0.3279
   17MOL    H32 6144   4.777   1.208   6.927 -1.4037 -0.1216 -0.3092
   17MOL    H33 6145   4.666   1.310   7.021  0.6112 -5.0994  3.1205
   17MOL    H34 6146   4.490   1.164   6.949 -1.4505 -0.3653 -1.1411
   17MOL    H35 6147   4.615   1.098   6.833 -0.4719 -0.0907 -1.8195
   17MOL    H36 6148   4.382   1.286   6.768  0.1362 -0.3022 -0.5659
   17MOL    H37 6149   4.491   1.241   6.664  0.0275 -1.6021  0.7239
   17MOL    H38 6150   4.341   1.428   6.618 -1.9853  0.8216 -1.7880
   17MOL    H39 6151   4.339   1.604   6.640  0.0712 -0.4016  1.6613
   17MOL    C40 6152   4.384   1.536   6.436 -0.2487  0.1827  0.3265
   17MOL    C41 6153   4.315   1.419   6.358  0.3723 -0.0325 -0.2670
   17MOL    C42 6154   4.162   1.405   6.387 -0.8197 -0.0009  0.0821
   17MOL    C43 6155   4.129   1.267   6.346  0.4135  0.6140  0.0919
   17MOL    C44 6156   4.259   1.191   6.324  0.6802  0.3033  0.4389
   17MOL    C45 6157   4.368   1.278   6.382  0.3479 -0.2183  0.0194
   17MOL    C46 6158   4.322   1.679   6.391  0.2932  0.8028  0.2307
   17MOL    H47 6159   4.484   1.537   6.392 -0.9013  2.4826 -1.2505
   17MOL    H48 6160   4.315   1.440   6.251  0.5552 -0.7441 -0.4149
   17MOL    H49 6161   4.112   1.480   6.326 -1.6887 -0.6257  0.0286
   17MOL    H50 6162   4.145   1.432   6.492  0.3477 -0.7318  0.4695
   17MOL    H51 6163   4.062   1.264   6.260 -1.7008 -0.0547  1.7002
   17MOL    H52 6164   4.069   1.221   6.425  0.8101 -1.1417 -0.6197
   17MOL    H53 6165   4.253   1.093   6.371 -1.0273  0.0835 -0.1783
   17MOL    H54 6166   4.277   1.169   6.219  1.5711 -3.0346  1.2352
   17MOL    H55 6167   4.372   1.250   6.487 -1.3646 -0.7821 -0.0431
   17MOL    H56 6168   4.467   1.253   6.342 -0.1379 -0.1341 -1.2665
   17MOL    H57 6169   4.218   1.677   6.424 -0.3787  1.7165 -1.7398
   17MOL    H58 6170   4.363   1.757   6.455 -2.2644  2.2947  0.1282
   17MOL    C59 6171   4.336   1.732   6.247 -0.3086 -0.4342 -0.2677
   17MOL    C60 6172   4.268   1.867   6.234 -0.0818 -0.6022  1.1417
   17MOL    C61 6173   4.325   1.991   6.303  0.5174 -0.3061 -0.0135
   17MOL    C62 6174   4.213   2.058   6.385  0.0584  0.4044  0.3664
   17MOL    C63 6175   4.110   1.941   6.395 -0.1055  0.7672  0.7173
   17MOL    C64 6176   4.120   1.861   6.266 -0.1594  0.0688 -0.6640
   17MOL    C65 6177   4.486   1.727   6.211  0.3776 -0.3529 -0.4669
   17MOL    H66 6178   4.288   1.659   6.183 -0.6242 -1.1356  0.7514
   17MOL    H67 6179   4.260   1.882   6.126  0.9284  1.5092  1.3464
   17MOL    H68 6180   4.350   2.060   6.223  0.8926 -1.4578 -0.9091
   17MOL    H69 6181   4.419   1.972   6.355  0.6960  2.8009  0.8717
   17MOL    H70 6182   4.175   2.147   6.334 -0.2400  0.1158  0.0873
   17MOL    H71 6183   4.250   2.085   6.485  0.0951  0.7890  0.2517
   17MOL    H72 6184   4.013   1.990   6.399 -0.4346  0.0414  1.7999
   17MOL    H73 6185   4.120   1.884   6.487 -1.4148  0.9753  1.0014
   17MOL    H74 6186   4.067   1.766   6.266 -0.5299  0.2580 -2.0083
   17MOL    H75 6187   4.073   1.917   6.184 -1.5487  1.2662  0.9224
   17MOL    H76 6188   4.530   1.628   6.218  1.0915 -0.0119  0.0267
   17MOL    H77 6189   4.542   1.783   6.286  0.7685 -1.4147  0.0456
   17MOL    C78 6190   4.511   1.771   6.064  0.2278 -0.2767 -0.3308
   17MOL    C79 6191   4.658   1.815   6.055 -0.5388  0.1750 -0.1695
   17MOL    C80 6192   4.705   1.933   6.144  0.2451 -0.6749 -0.1324
   17MOL    C81 6193   4.835   1.973   6.082  0.0665  0.3259 -0.4043
   17MOL    C82 6194   4.842   1.927   5.938  0.2558  0.2304  0.0402
   17MOL    C83 6195   4.704   1.862   5.918 -0.2068 -0.3260  0.1643
   17MOL    C84 6196   4.479   1.664   5.954 -0.0169  0.0632  0.7364
   17MOL    H85 6197   4.450   1.859   6.048  0.0082 -0.3192  0.2565
   17MOL    H86 6198   4.722   1.729   6.076  0.6686  1.1962  0.3229
   17MOL    H87 6199   4.722   1.896   6.245 -2.2148 -0.3757  0.4255
   17MOL    H88 6200   4.631   2.013   6.150  0.6064 -0.3896  0.5262
   17MOL    H89 6201   4.920   1.948   6.145 -0.6600 -1.6050 -0.1481
   17MOL    H90 6202   4.842   2.081   6.094 -1.8724  0.2016  2.4476
   17MOL    H91 6203   4.857   2.013   5.874 -0.2438  1.5410  1.6452
   17MOL    H92 6204   4.919   1.850   5.932 -1.0548 -1.1625  0.7094
   17MOL    H93 6205   4.629   1.930   5.879 -1.6280 -1.0001  1.6851
   17MOL    H94 6206   4.715   1.780   5.847 -0.4434 -0.6511  0.4999
   17MOL    H95 6207   4.467   1.570   6.008  0.3683  0.4154  1.4483
   17MOL    H96 6208   4.559   1.645   5.884 -2.2346  2.2474 -2.5288
   17MOL    C97 6209   4.345   1.695   5.880  0.3650  0.6491  0.1587
   17MOL    C98 6210   4.270   1.568   5.834  0.5323  0.0156  0.1640
   17MOL    C99 6211   4.360   1.470   5.764 -0.3207  0.2260  0.5442
   17MOL   C100 6212   4.311   1.333   5.800 -0.3856  0.4905  0.3279
   17MOL   C101 6213   4.184   1.340   5.885  0.5623 -0.2783 -0.3459
   17MOL   C102 6214   4.193   1.479   5.942  0.0780 -0.0663 -0.2478
   17MOL   C103 6215   4.366   1.786   5.761 -0.3810  0.3056 -0.3590
   17MOL   H104 6216   4.277   1.735   5.956  1.3821  2.2447  0.2615
   17MOL   H105 6217   4.200   1.592   5.754  1.5132  3.1102  0.1994
   17MOL   H106 6218   4.368   1.474   5.656  0.7654 -3.3958  0.4315
   17MOL   H107 6219   4.460   1.474   5.810 -0.5960 -1.8143  1.3580
   17MOL   H108 6220   4.390   1.291   5.862 -0.7533 -1.4645 -0.4976
   17MOL   H109 6221   4.301   1.266   5.714 -0.7696  1.7563 -0.6285
   17MOL   H110 6222   4.163   1.263   5.958  0.6003  2.1553  2.3347
   17MOL   H111 6223   4.110   1.350   5.805 -0.9636  0.0574  1.0994
   17MOL   H112 6224   4.091   1.517   5.953 -1.2399 -3.0518 -1.4958
   17MOL   H113 6225   4.246   1.488   6.036 -1.1448  0.9490  0.3613
   17MOL   H114 6226   4.427   1.870   5.793  0.0481 -0.1535  0.0536
   17MOL   H115 6227   4.428   1.744   5.682 -1.0840 -0.7416 -0.3680
   17MOL   C116 6228   4.230   1.856   5.717 -0.0406  0.3290 -0.0727
   17MOL   C117 6229   4.195   1.985   5.792  0.4169 -0.3306 -0.9031
   17MOL   C118 6230   4.285   2.108   5.754 -0.1195 -0.0628  0.4998
   17MOL   C119 6231   4.206   2.231   5.803  0.3715  0.0807 -0.0914
   17MOL   C120 6232   4.058   2.195   5.798  0.7680  0.5287  0.0139
   17MOL   C121 6233   4.049   2.040   5.776  0.3412  0.2950 -0.8582
   17MOL   C122 6234   4.236   1.871   5.566  0.9659 -0.1465 -0.1842
   17MOL   H123 6235   4.148   1.785   5.724 -1.0227  1.3886 -0.6992
   17MOL   H124 6236   4.216   1.970   5.898  1.2726 -4.4756 -1.5968
   17MOL   H125 6237   4.387   2.098   5.792 -0.7964  0.6674  2.5408
   17MOL   H126 6238   4.300   2.118   5.647  0.8146 -0.8364  0.5474
   17MOL   H127 6239   4.213   2.322   5.743 -2.1817  0.0795 -0.4701
   17MOL   H128 6240   4.227   2.252   5.907 -1.8735  1.1502  0.1734
   17MOL   H129 6241   4.010   2.242   5.713  3.1259  0.0439 -1.6397
   17MOL   H130 6242   4.012   2.228   5.891  0.1693  3.0102 -1.1109
   17MOL   H131 6243   3.982   1.989   5.845 -1.8349  0.6407 -2.6704
   17MOL   H132 6244   4.016   2.021   5.674  2.3659  0.6206 -1.6006
   17MOL   H133 6245   4.341   1.894   5.548  0.8451  0.3915 -0.2074
   17MOL   H134 6246   4.179   1.963   5.550 -1.9935 -1.9504 -0.3495
   17MOL   C135 6247   4.179   1.753   5.477  0.0547 -0.0158  0.1952
   17MOL   C136 6248   4.213   1.770   5.320 -0.4461  0.0794  0.4338
   17MOL   C137 6249   4.341   1.699   5.267 -0.4799  0.3908  0.7463
   17MOL   C138 6250   4.386   1.780   5.147  0.5280 -0.0577  0.1732
   17MOL   C139 6251   4.287   1.894   5.127 -0.3078  0.5593 -0.3502
   17MOL   C140 6252   4.232   1.912   5.268 -0.0535  0.4289 -0.1653
   17MOL   C141 6253   4.022   1.745   5.486 -0.0300 -0.2886 -0.0311
   17MOL   H142 6254   4.214   1.658   5.519 -1.1230 -1.5348 -2.1902
   17MOL   H143 6255   4.136   1.726   5.257 -0.9956  0.6377  0.7070
   17MOL   H144 6256   4.421   1.677   5.338  0.2212 -0.5656 -0.3217
   17MOL   H145 6257   4.315   1.598   5.235 -1.5003  0.9834 -0.3521
   17MOL   H146 6258   4.395   1.723   5.055  2.1340 -0.6806  0.6873
   17MOL   H147 6259   4.484   1.824   5.169  1.1997 -1.7318  0.5626
   17MOL   H148 6260   4.211   1.864   5.056 -0.3764  0.5780 -0.2853
   17MOL   H149 6261   4.328   1.988   5.091 -1.0124  1.3881  0.9887
   17MOL   H150 6262   4.297   1.965   5.338 -0.1024  1.8424 -1.1763
   17MOL   H151 6263   4.148   1.981   5.258  0.0699  0.6974  0.5992
   17MOL   H152 6264   3.983   1.797   5.399 -1.6436  0.2335  0.9778
   17MOL   H153 6265   3.987   1.813   5.564  0.7247 -1.2106  1.1254
   17MOL   C154 6266   3.956   1.604   5.499 -0.5152  0.1565 -0.7015
   17MOL   C155 6267   3.814   1.616   5.570  0.1187 -0.4545  0.3131
   17MOL   C156 6268   3.705   1.712   5.518 -0.3485  0.2499  0.9896
   17MOL   C157 6269   3.614   1.744   5.626 -0.1001 -0.0086 -0.0021
   17MOL   C158 6270   3.687   1.714   5.757  1.5032 -0.5735 -0.1970
   17MOL   C159 6271   3.823   1.646   5.723 -0.1348 -0.1470 -0.4140
   17MOL   C160 6272   3.956   1.528   5.362 -0.5236  0.1495  0.1129
   17MOL   H161 6273   4.008   1.535   5.565 -0.7290  0.0334 -0.6604
   17MOL   H162 6274   3.767   1.519   5.586 -0.8988 -0.0424 -0.1468
   17MOL   H163 6275   3.744   1.806   5.479 -0.3514  0.2999  1.1065
   17MOL   H164 6276   3.646   1.668   5.438  1.9970  0.5312 -0.9541
   17MOL   H165 6277   3.575   1.845   5.616  0.6237  0.6026  2.8190
   17MOL   H166 6278   3.524   1.683   5.619  0.2320 -0.5883  0.6058
   17MOL   H167 6279   3.630   1.645   5.819 -1.5770  3.5672  1.8631
   17MOL   H168 6280   3.694   1.794   5.831  0.0763 -2.5900  2.1988
   17MOL   H169 6281   3.837   1.553   5.778  2.6584  1.0526  0.9893
   17MOL   H170 6282   3.908   1.712   5.740  0.6262 -0.2570 -3.5032
   17MOL   H171 6283   4.062   1.512   5.345 -0.8759 -1.1863 -0.9823
   17MOL   H172 6284   3.932   1.607   5.291 -0.1131  1.3786  1.3249
   17MOL   C173 6285   3.886   1.392   5.340 -0.0843 -0.5253 -0.7030
   17MOL   C174 6286   3.963   1.272   5.390  0.3878  0.2445  0.2608
   17MOL   C175 6287   3.890   1.130   5.385 -0.0966 -0.5443 -0.2312
   17MOL   C176 6288   3.937   1.054   5.504 -0.0825  0.1274  0.0832
   17MOL   C177 6289   4.039   1.140   5.581 -0.8235 -0.1361 -0.1273
   17MOL   C178 6290   4.001   1.282   5.537  0.3997  0.2864 -0.4099
   17MOL   C179 6291   3.833   1.375   5.199 -0.4205  0.8724  0.0702
   17MOL   H180 6292   3.802   1.390   5.410  1.4576 -0.9760  1.1862
   17MOL   H181 6293   4.062   1.262   5.346  0.6876  0.3909  0.8964
   17MOL   H182 6294   3.915   1.092   5.286 -0.3305  2.4389 -1.4920
   17MOL   H183 6295   3.784   1.145   5.403 -0.0442 -1.6975  1.1431
   17MOL   H184 6296   3.849   1.041   5.567 -0.7971 -2.3183 -1.3413
   17MOL   H185 6297   3.990   0.960   5.486 -0.5163  0.3629 -2.6477
   17MOL   H186 6298   4.140   1.112   5.549 -1.6477 -2.8984 -0.4319
   17MOL   H187 6299   4.032   1.134   5.690 -0.9806 -1.4359 -0.2030
   17MOL   H188 6300   3.919   1.318   5.600  1.9359 -0.6216  2.2046
   17MOL   H189 6301   4.075   1.358   5.564  0.3941  1.6340 -3.9179
   17MOL   H190 6302   3.919   1.378   5.132 -1.0944  0.5093 -0.8199
   17MOL   H191 6303   3.804   1.271   5.183  0.4043  0.7586 -0.7232
   17MOL   C192 6304   3.717   1.474   5.160  0.7022 -0.4374  0.4045
   17MOL   C193 6305   3.577   1.411   5.173 -0.3946  0.0977 -0.1435
   17MOL   C194 6306   3.463   1.498   5.126  0.0696 -1.1211  0.7286
   17MOL   C195 6307   3.338   1.451   5.188 -0.4746  0.2776  0.2236
   17MOL   C196 6308   3.377   1.411   5.328  0.3821  0.7013  0.0419
   17MOL   C197 6309   3.533   1.387   5.314  0.3776 -0.6009  0.2992
   17MOL   C198 6310   3.752   1.512   5.010 -0.8213 -0.3150 -1.0587
   17MOL   H199 6311   3.722   1.560   5.227 -1.5257  0.5032 -0.5876
   17MOL   H200 6312   3.565   1.324   5.109 -3.0647 -0.1685  0.6346
   17MOL   H201 6313   3.464   1.490   5.017  0.9486 -0.2395  0.6665
   17MOL   H202 6314   3.492   1.601   5.143 -0.1328 -1.1760  1.3993
   17MOL   H203 6315   3.253   1.519   5.190  0.2719  1.2580 -0.8098
   17MOL   H204 6316   3.305   1.366   5.128 -1.2141  0.1580  0.7915
   17MOL   H205 6317   3.337   1.314   5.357 -1.0649  1.4044  0.4625
   17MOL   H206 6318   3.358   1.488   5.403  0.0195 -0.6713  1.3885
   17MOL   H207 6319   3.574   1.293   5.351  0.9014  0.7532  3.3109
   17MOL   H208 6320   3.575   1.472   5.368  0.2070 -0.3845  0.0954
   17MOL   H209 6321   3.818   1.435   4.970 -0.5320  1.5707 -4.3516
   17MOL   H210 6322   3.671   1.495   4.939 -1.4054  0.0952 -0.5038
   17MOL   C211 6323   3.814   1.655   4.982  0.0632 -0.2399  0.0209
   17MOL   C212 6324   3.922   1.669   4.884  0.6470 -0.7070  0.8588
   17MOL   C213 6325   4.053   1.599   4.911  0.3731 -0.7379  0.3665
   17MOL   C214 6326   4.110   1.560   4.768 -0.2348 -0.4932 -0.1983
   17MOL   C215 6327   4.009   1.617   4.669  0.0382  0.7203  0.4190
   17MOL   C216 6328   3.884   1.623   4.747  0.1197  0.3308 -0.0695
   17MOL   C217 6329   3.689   1.752   4.972 -0.8533  0.4308 -0.4791
   17MOL   H218 6330   3.861   1.677   5.078 -1.0035 -0.7754  0.6798
   17MOL   H219 6331   3.953   1.773   4.873 -0.1909 -0.3241  2.0632
   17MOL   H220 6332   4.124   1.656   4.971 -0.7993  1.1264  0.0018
   17MOL   H221 6333   4.040   1.500   4.955  2.9571 -2.7095 -2.9927
   17MOL   H222 6334   4.209   1.607   4.766 -0.1867 -0.6070 -0.4959
   17MOL   H223 6335   4.140   1.455   4.767  0.7417 -0.2196 -0.5337
   17MOL   H224 6336   4.000   1.578   4.568  1.1177 -2.6786  1.5272
   17MOL   H225 6337   4.033   1.723   4.661 -0.3431  0.8251  0.6750
   17MOL   H226 6338   3.808   1.685   4.699 -1.3255 -0.6264  0.8987
   17MOL   H227 6339   3.848   1.520   4.752  0.0710  0.2525 -1.8944
   17MOL   H228 6340   3.631   1.750   5.064  1.1518  1.3817  0.8475
   17MOL   H229 6341   3.629   1.712   4.890  0.4787 -0.3956 -1.0794
   17MOL   C230 6342   3.725   1.900   4.945  0.2657  0.1676  0.3396
   17MOL   C231 6343   3.819   1.959   5.046 -0.2324 -0.6414  0.2680
   17MOL   C232 6344   3.876   2.095   5.009 -0.1593 -0.0411 -0.1102
   17MOL   C233 6345   3.832   2.189   5.122  0.0109  0.2512  1.0948
   17MOL   C234 6346   3.826   2.096   5.243 -0.1699  0.3864  0.7465
   17MOL   C235 6347   3.768   1.963   5.190  0.0323  0.4066 -0.2841
   17MOL   C236 6348   3.594   1.991   4.910  0.7138 -0.1266  0.3365
   17MOL   H237 6349   3.791   1.901   4.858 -0.6160 -3.1614 -0.4485
   17MOL   H238 6350   3.898   1.886   5.062  0.9383  0.0391 -2.1528
   17MOL   H239 6351   3.985   2.087   5.001 -0.1383  0.5389 -0.3870
   17MOL   H240 6352   3.843   2.130   4.912 -1.4066  0.5778  0.5298
   17MOL   H241 6353   3.906   2.267   5.141 -0.3242  0.7769  0.2764
   17MOL   H242 6354   3.734   2.230   5.096  0.3006 -0.1008 -0.5778
   17MOL   H243 6355   3.774   2.134   5.331  1.0360 -1.6871  2.4090
   17MOL   H244 6356   3.929   2.066   5.260 -0.5310 -1.6664 -0.4033
   17MOL   H245 6357   3.659   1.959   5.196  0.0704 -2.2876 -0.9353
   17MOL   H246 6358   3.797   1.877   5.250  0.0675  1.4693  1.2543
   17MOL   H247 6359   3.611   2.084   4.964  0.7446  1.2794 -2.0342
   17MOL   H248 6360   3.498   1.952   4.943 -1.4659  2.7808 -2.3500
   17MOL   C249 6361   3.587   2.039   4.763 -0.3174 -0.5580 -0.5482
   17MOL   C250 6362   3.513   2.171   4.735  0.1740 -1.4862 -0.3105
   17MOL   C251 6363   3.588   2.297   4.775 -0.5230  0.7431 -0.7992
   17MOL   C252 6364   3.479   2.404   4.765  0.0265  0.4412 -0.1760
   17MOL   C253 6365   3.340   2.339   4.774 -0.5118  0.6493  0.7412
   17MOL   C254 6366   3.372   2.187   4.802 -0.3764  0.6588 -0.4233
   17MOL   C255 6367   3.539   1.920   4.679  0.1183 -0.4181 -0.2610
   17MOL   H256 6368   3.687   2.065   4.728 -1.3753  2.2344 -1.6112
   17MOL   H257 6369   3.494   2.185   4.628  3.8061  1.1073 -0.7051
   17MOL   H258 6370   3.670   2.311   4.704 -1.3812  0.9236 -1.7593
   17MOL   H259 6371   3.627   2.292   4.877 -1.6076 -0.9502 -0.4561
   17MOL   H260 6372   3.499   2.455   4.671 -1.1585 -1.0221 -1.2452
   17MOL   H261 6373   3.494   2.468   4.852  0.4072 -0.0202  0.0990
   17MOL   H262 6374   3.297   2.358   4.675 -2.0009  1.4821  1.5207
   17MOL   H263 6375   3.276   2.383   4.851 -2.4591  1.1183 -1.0882
   17MOL   H264 6376   3.302   2.115   4.758 -2.9471  0.6849  3.4065
   17MOL   H265 6377   3.378   2.167   4.909  0.4606  0.2231 -0.5477
   17MOL   H266 6378   3.562   1.819   4.712  1.5284 -0.3255 -0.9239
   17MOL   H267 6379   3.430   1.932   4.681 -0.0556 -1.2354 -2.8457
   17MOL   C268 6380   3.586   1.929   4.536 -0.4364  0.3440  0.5367
   17MOL   C269 6381   3.494   1.842   4.442  0.3780 -0.1478  0.1162
   17MOL   C270 6382   3.521   1.845   4.292  0.2660 -0.2113 -0.1361
   17MOL   C271 6383   3.405   1.781   4.237  0.0274  0.1754 -0.6481
   17MOL   C272 6384   3.288   1.792   4.329 -0.1009  0.1073 -0.0237
   17MOL   C273 6385   3.339   1.866   4.450  0.5811 -0.1865  0.4819
   17MOL   C274 6386   3.736   1.886   4.528  0.6773 -0.3758  0.2073
   17MOL   H275 6387   3.585   2.033   4.503  0.3916 -0.3256 -1.7663
   17MOL   H276 6388   3.512   1.740   4.478 -0.5704 -0.3732 -0.0463
   17MOL   H277 6389   3.517   1.952   4.271  0.9069 -0.6135 -2.4884
   17MOL   H278 6390   3.610   1.793   4.258  1.8646  1.4180  1.4316
   17MOL   H279 6391   3.389   1.816   4.135 -1.3382  0.2124 -0.4294
   17MOL   H280 6392   3.421   1.674   4.243 -1.7601 -0.0201  1.7214
   17MOL   H281 6393   3.243   1.699   4.364 -0.2549  0.9632  2.1112
   17MOL   H282 6394   3.215   1.847   4.270  1.8870  2.1013 -0.6870
   17MOL   H283 6395   3.288   1.822   4.536  1.5204 -0.8068  0.7247
   17MOL   H284 6396   3.321   1.973   4.434  2.1397 -0.2336 -1.8121
   17MOL   H285 6397   3.742   1.780   4.506  0.3389  0.1994 -2.8274
   17MOL   H286 6398   3.789   1.890   4.624  0.8441 -0.6498  0.1257
   17MOL   C287 6399   3.827   1.950   4.416 -0.1914 -0.2407 -0.4760
   17MOL   C288 6400   3.910   2.077   4.454 -0.3028  0.5176  0.3938
   17MOL   C289 6401   3.824   2.201   4.481 -0.7138  0.2151  0.0838
   17MOL   C290 6402   3.922   2.287   4.557  0.2489 -0.3142 -0.4511
   17MOL   C291 6403   4.033   2.204   4.619 -0.1589  0.0627 -0.2038
   17MOL   C292 6404   4.002   2.060   4.580 -0.4387  0.1547  0.5392
   17MOL   C293 6405   3.918   1.831   4.363 -0.2149  0.1851  0.4631
   17MOL   H294 6406   3.753   1.982   4.342 -1.0665 -0.2752  0.3765
   17MOL   H295 6407   3.967   2.111   4.367 -1.2952  2.5132  0.4885
   17MOL   H296 6408   3.784   2.249   4.392  1.2727  2.2337  0.2394
   17MOL   H297 6409   3.736   2.173   4.539  0.3667 -1.5038  0.9251
   17MOL   H298 6410   3.979   2.356   4.495  2.1525  1.4247  3.0738
   17MOL   H299 6411   3.881   2.353   4.633  1.0504 -0.9844  0.5667
   17MOL   H300 6412   4.045   2.223   4.725 -0.1347 -1.1390  0.0056
   17MOL   H301 6413   4.122   2.223   4.559  0.9452 -1.1092  1.0398
   17MOL   H302 6414   3.962   2.002   4.664 -2.8956  0.0612 -0.6655
   17MOL   H303 6415   4.101   2.023   4.553 -0.2707  1.1712 -0.2596
   17MOL   H304 6416   3.867   1.738   4.340 -0.3583  1.1781 -3.7725
   17MOL   H305 6417   3.993   1.807   4.438 -0.1783 -1.3641 -0.0464
   17MOL   C306 6418   3.992   1.865   4.232 -0.6357  0.0341 -0.2062
   17MOL   C307 6419   4.127   1.788   4.215  0.2133  0.8784  0.2176
   17MOL   C308 6420   4.248   1.854   4.291  0.6567  0.1712  0.3026
   17MOL   C309 6421   4.331   1.732   4.338 -0.0431 -0.5471 -0.0160
   17MOL   C310 6422   4.269   1.615   4.259 -0.7619 -0.1279 -0.5517
   17MOL   C311 6423   4.112   1.641   4.260 -0.1696 -0.0668 -0.2939
   17MOL   C312 6424   3.897   1.839   4.119  0.2313 -0.3666  0.5638
   17MOL   H313 6425   4.005   1.973   4.230 -1.6685  0.2728  2.9199
   17MOL   H314 6426   4.158   1.777   4.111  0.7567 -0.0780  0.4817
   17MOL   H315 6427   4.218   1.919   4.373  1.9273  0.6674  0.3759
   17MOL   H316 6428   4.299   1.920   4.220  1.9225 -1.4578 -0.3145
   17MOL   H317 6429   4.436   1.738   4.307 -0.1599  3.9877  0.0942
   17MOL   H318 6430   4.321   1.719   4.445 -2.1078  3.2275  0.3176
   17MOL   H319 6431   4.291   1.521   4.309  3.1398  0.0470 -1.7502
   17MOL   H320 6432   4.309   1.602   4.158 -0.1903 -2.7011 -0.0348
   17MOL   H321 6433   4.055   1.572   4.198  0.7115  2.6453 -4.2954
   17MOL   H322 6434   4.093   1.634   4.367  3.1056 -3.2474  0.2058
   17MOL   H323 6435   3.804   1.893   4.136  0.9680  1.3488 -0.7182
   17MOL   H324 6436   3.867   1.734   4.120  2.1563 -0.9248  0.7254
   17MOL   C325 6437   3.944   1.876   3.974 -0.4095  0.0383  0.2118
   17MOL   C326 6438   3.968   2.027   3.959  0.4121  0.2919  0.2540
   17MOL   C327 6439   3.842   2.121   3.973 -0.0253 -0.1878  0.6727
   17MOL   C328 6440   3.893   2.246   3.910  1.1393 -0.3605 -0.7371
   17MOL   C329 6441   3.973   2.200   3.790  0.2026 -0.5560  0.7326
   17MOL   C330 6442   4.038   2.068   3.828  0.0139  0.1039  0.2256
   17MOL   C331 6443   3.842   1.815   3.878 -0.0442  0.8831 -0.3323
   17MOL   H332 6444   4.036   1.821   3.955 -0.4980 -0.6654  1.8066
   17MOL   H333 6445   4.032   2.076   4.032  1.2642  0.6518 -0.7253
   17MOL   H334 6446   3.810   2.128   4.077 -1.9235 -0.8981  0.1509
   17MOL   H335 6447   3.758   2.085   3.915  0.5698 -1.1430  0.3863
   17MOL   H336 6448   3.969   2.290   3.974  0.6305 -0.0900 -0.3204
   17MOL   H337 6449   3.819   2.326   3.908  2.1464  0.5968 -0.0058
   17MOL   H338 6450   4.051   2.275   3.774  1.8837 -2.0597  1.6785
   17MOL   H339 6451   3.906   2.179   3.707  1.8161  1.4380 -1.1484
   17MOL   H340 6452   4.145   2.064   3.844 -0.2782  0.1181  2.3369
   17MOL   H341 6453   4.020   1.994   3.750 -0.4446  1.7017 -1.2145
   17MOL   H342 6454   3.854   1.857   3.778  0.7119  1.5243  0.0136
   17MOL   H343 6455   3.745   1.854   3.910  0.6188  3.3043 -1.1233
   17MOL   C344 6456   3.840   1.661   3.848  0.0507  0.0323  0.3520
   17MOL   C345 6457   3.975   1.615   3.778  0.0664 -0.2918 -0.4398
   17MOL   C346 6458   3.990   1.662   3.633  0.1278 -0.1137 -0.2704
   17MOL   C347 6459   4.115   1.587   3.593  0.5400 -0.5413  0.5020
   17MOL   C348 6460   4.107   1.444   3.655  0.0016 -0.1982 -0.0797
   17MOL   C349 6461   4.002   1.465   3.763  0.5656 -0.3052 -0.2042
   17MOL   C350 6462   3.719   1.625   3.771 -0.2376 -0.4685  0.4990
   17MOL   H351 6463   3.848   1.601   3.938 -0.1924 -1.3186 -0.5077
   17MOL   H352 6464   4.061   1.661   3.826 -0.9314  0.5867  0.5406
   17MOL   H353 6465   4.005   1.770   3.642 -0.5453 -0.1062  1.0081
   17MOL   H354 6466   3.906   1.639   3.568 -0.1948 -2.3484  0.8734
   17MOL   H355 6467   4.118   1.586   3.484  1.3478 -1.0464  0.5246
   17MOL   H356 6468   4.208   1.643   3.606  0.7049  0.2590 -3.5873
   17MOL   H357 6469   4.202   1.411   3.699  0.7047  0.0722 -1.3693
   17MOL   H358 6470   4.075   1.373   3.579  0.0078 -1.1856  0.8246
   17MOL   H359 6471   3.913   1.410   3.733  0.1945 -1.0009  2.1124
   17MOL   H360 6472   4.027   1.440   3.866  1.8576 -1.2887 -0.7381
   17MOL   H361 6473   3.732   1.520   3.743  3.9087  0.6132 -2.1063
   17MOL   H362 6474   3.720   1.681   3.677  1.4110 -0.9672  0.2077
   17MOL   C363 6475   3.576   1.626   3.837  0.2549 -0.0435 -0.1067
   17MOL   C364 6476   3.469   1.588   3.726 -0.4658 -0.3561 -0.8153
   17MOL   C365 6477   3.324   1.623   3.749  0.7331  0.0526  0.3027
   17MOL   C366 6478   3.254   1.543   3.633  0.6164 -0.6336  0.5244
   17MOL   C367 6479   3.336   1.413   3.626  0.7757 -0.4255  0.1191
   17MOL   C368 6480   3.467   1.437   3.701  0.3767 -0.4855  0.4883
   17MOL   C369 6481   3.573   1.553   3.968  0.0165  0.5182 -0.2484
   17MOL   H370 6482   3.561   1.734   3.847 -1.8519 -0.4441  1.4800
   17MOL   H371 6483   3.502   1.619   3.627  1.4256  0.6271  0.0832
   17MOL   H372 6484   3.283   1.588   3.843 -2.4752  2.0169 -0.2898
   17MOL   H373 6485   3.298   1.729   3.745 -0.1691 -0.1120  1.5198
   17MOL   H374 6486   3.146   1.529   3.636  0.6810 -1.1490  0.4782
   17MOL   H375 6487   3.277   1.604   3.545 -2.3532 -3.0313 -2.0253
   17MOL   H376 6488   3.274   1.334   3.668 -0.1405  1.1009  1.6859
   17MOL   H377 6489   3.354   1.384   3.522  0.9018 -0.8365  0.2543
   17MOL   H378 6490   3.544   1.397   3.635 -0.1928  0.9141 -1.0363
   17MOL   H379 6491   3.460   1.382   3.795  0.0105 -0.0892  0.6933
   17MOL   H380 6492   3.621   1.455   3.959 -0.2425  0.4070 -0.4145
   17MOL   H381 6493   3.479   1.546   4.024  0.5011 -0.3294  0.4773
   17MOL   H382 6494   3.642   1.609   4.031 -0.8916  0.9057  0.4246
   18MOL     C1 6495   1.572   3.400   1.829 -0.5283 -0.4677 -0.7696
   18MOL     C2 6496   1.520   3.294   1.726  0.2593 -0.9364  0.3279
   18MOL     C3 6497   1.374   3.267   1.741  0.4470  0.2593  0.3978
   18MOL     C4 6498   1.353   3.148   1.651  0.0762  0.4346 -0.6922
   18MOL     C5 6499   1.488   3.082   1.626 -0.0680 -0.3068  0.6302
   18MOL     C6 6500   1.590   3.158   1.708 -0.3356  0.0446 -0.1641
   18MOL     C7 6501   1.722   3.437   1.816 -0.3745 -0.3903 -0.3515
   18MOL     H8 6502   1.511   3.485   1.799  1.2744  2.0295  2.2633
   18MOL     H9 6503   1.525   3.349   1.632  0.9582 -2.2381 -0.4010
   18MOL    H10 6504   1.354   3.261   1.848 -2.1756 -0.6763 -0.0929
   18MOL    H11 6505   1.301   3.343   1.711 -0.7915 -0.9650  0.2237
   18MOL    H12 6506   1.292   3.077   1.707  0.5722  0.7043  0.2020
   18MOL    H13 6507   1.303   3.183   1.561  0.5652  1.8344 -0.4386
   18MOL    H14 6508   1.487   2.974   1.643  0.4451 -0.2076  1.3157
   18MOL    H15 6509   1.511   3.099   1.521  0.0295 -1.3791  0.4694
   18MOL    H16 6510   1.687   3.162   1.660 -1.2472 -1.9135 -2.2456
   18MOL    H17 6511   1.606   3.118   1.808  1.0108  1.5327  0.2392
   18MOL    H18 6512   1.790   3.362   1.857 -0.4997  0.9045  2.3486
   18MOL    H19 6513   1.756   3.441   1.713  3.4760 -0.7874  0.8390
   18MOL    H20 6514   1.543   3.364   1.928 -0.6621  0.2037 -0.5619
   18MOL    C21 6515   1.747   3.574   1.880 -0.4049  0.2075 -1.3417
   18MOL    C22 6516   1.820   3.556   2.016  0.3459  0.0429 -0.2045
   18MOL    C23 6517   1.733   3.485   2.124 -0.3408  0.3848  0.8578
   18MOL    C24 6518   1.815   3.513   2.248 -0.2206  0.0531  0.1432
   18MOL    C25 6519   1.868   3.661   2.237 -0.3936 -0.1297 -0.1806
   18MOL    C26 6520   1.870   3.690   2.087 -0.6078 -0.6739 -0.1298
   18MOL    C27 6521   1.840   3.664   1.797 -0.3702  0.1955  0.0452
   18MOL    H28 6522   1.652   3.626   1.897 -0.1642  0.8251 -1.8988
   18MOL    H29 6523   1.912   3.499   2.000  0.0600 -0.1218 -1.3145
   18MOL    H30 6524   1.723   3.377   2.106 -1.5500  0.7483 -0.8427
   18MOL    H31 6525   1.641   3.540   2.142 -0.3045  0.0888  1.9813
   18MOL    H32 6526   1.751   3.509   2.336 -0.9764  0.7481 -0.3719
   18MOL    H33 6527   1.899   3.443   2.252  1.5011  1.9570 -1.3971
   18MOL    H34 6528   1.967   3.680   2.279 -0.8040  0.1072  0.6777
   18MOL    H35 6529   1.792   3.717   2.292  0.5112 -0.0270  0.9983
   18MOL    H36 6530   1.962   3.732   2.047 -1.6284  1.6133 -0.1125
   18MOL    H37 6531   1.795   3.768   2.084 -0.2522 -0.3007  0.4902
   18MOL    H38 6532   1.861   3.758   1.848 -0.9080  0.0313  0.5796
   18MOL    H39 6533   1.935   3.611   1.804 -0.6649 -0.4126 -0.4989
   18MOL    C40 6534   1.799   3.705   1.650  0.1893 -0.2236 -0.0049
   18MOL    C41 6535   1.731   3.847   1.651  0.1398  0.3253 -0.0337
   18MOL    C42 6536   1.615   3.874   1.744 -0.7152  0.2342 -0.4653
   18MOL    C43 6537   1.532   3.990   1.678 -0.1903  0.1889  0.3290
   18MOL    C44 6538   1.566   3.992   1.527  0.2048  1.0665 -0.6926
   18MOL    C45 6539   1.672   3.885   1.509  0.2267 -0.2850 -0.0599
   18MOL    C46 6540   1.919   3.701   1.553  0.3675 -0.2350 -0.1313
   18MOL    H47 6541   1.727   3.628   1.623 -1.0911  0.2846  1.9021
   18MOL    H48 6542   1.811   3.918   1.674  0.7814 -0.0889 -0.9740
   18MOL    H49 6543   1.659   3.907   1.839  0.9981  0.1644 -1.2137
   18MOL    H50 6544   1.552   3.786   1.751 -1.0884  0.4508 -1.1189
   18MOL    H51 6545   1.571   4.085   1.714  1.3217 -0.5435  0.6543
   18MOL    H52 6546   1.428   3.971   1.704  0.5069  0.1862  3.2357
   18MOL    H53 6547   1.474   3.969   1.472  0.0515  1.3618 -0.5620
   18MOL    H54 6548   1.592   4.092   1.492  1.1552  0.6367 -1.2083
   18MOL    H55 6549   1.616   3.798   1.475 -0.2069 -0.9804  2.3165
   18MOL    H56 6550   1.741   3.919   1.432  0.2769 -3.0238 -1.2572
   18MOL    H57 6551   1.884   3.725   1.453 -1.2869 -2.5112 -0.1433
   18MOL    H58 6552   1.988   3.778   1.587 -0.6917  0.4446  0.5028
   18MOL    C59 6553   1.986   3.561   1.537 -0.7525 -0.2369  0.8499
   18MOL    C60 6554   1.891   3.472   1.455 -0.7905 -0.0714  0.1230
   18MOL    C61 6555   1.927   3.326   1.462 -0.4451 -0.2322 -0.6321
   18MOL    C62 6556   1.847   3.246   1.349 -0.1722 -0.0162 -0.1238
   18MOL    C63 6557   1.808   3.366   1.262 -0.3351  0.2034 -0.1799
   18MOL    C64 6558   1.882   3.493   1.306  0.0265 -0.3600  0.3550
   18MOL    C65 6559   2.133   3.580   1.489 -0.3827 -0.0282 -0.5868
   18MOL    H66 6560   1.991   3.511   1.633  2.0102  0.1611  0.9349
   18MOL    H67 6561   1.790   3.496   1.489 -0.8617  0.9435 -0.7961
   18MOL    H68 6562   1.902   3.290   1.563 -2.3538  2.1226 -0.2332
   18MOL    H69 6563   2.035   3.320   1.447 -0.0443  3.2440  0.3399
   18MOL    H70 6564   1.760   3.191   1.384 -0.3187 -0.3088 -0.9484
   18MOL    H71 6565   1.909   3.176   1.293 -0.2517 -0.4317  0.3003
   18MOL    H72 6566   1.700   3.369   1.273 -0.4825  0.8181 -1.6147
   18MOL    H73 6567   1.824   3.340   1.157 -0.4898 -1.9515  0.3037
   18MOL    H74 6568   1.982   3.500   1.264  0.1581  2.7398  1.0510
   18MOL    H75 6569   1.833   3.588   1.283  0.0668 -0.2690  0.6495
   18MOL    H76 6570   2.149   3.678   1.445 -2.5354  0.6059 -0.0160
   18MOL    H77 6571   2.142   3.514   1.403 -1.3231 -1.5223  0.4338
   18MOL    C78 6572   2.247   3.557   1.597 -0.1987  0.4010 -0.1380
   18MOL    C79 6573   2.388   3.547   1.542  0.2999  0.6267 -0.8971
   18MOL    C80 6574   2.428   3.667   1.453 -0.0328  0.1429 -0.0127
   18MOL    C81 6575   2.546   3.617   1.372 -0.2191  0.2991 -0.4093
   18MOL    C82 6576   2.531   3.464   1.366 -0.9046 -0.0593 -0.1491
   18MOL    C83 6577   2.409   3.417   1.450 -0.4831 -0.4175 -0.1543
   18MOL    C84 6578   2.234   3.666   1.710 -0.1161 -0.6563 -0.4910
   18MOL    H85 6579   2.228   3.460   1.642 -0.2872  0.7704  0.6262
   18MOL    H86 6580   2.454   3.551   1.628  0.3160  1.3731 -0.9361
   18MOL    H87 6581   2.461   3.760   1.498  1.6012  1.1891 -3.1689
   18MOL    H88 6582   2.342   3.688   1.388  0.2884  2.8112  0.3806
   18MOL    H89 6583   2.631   3.650   1.431 -0.6684  0.9877 -0.1454
   18MOL    H90 6584   2.541   3.674   1.279  0.9821 -1.1365 -1.3803
   18MOL    H91 6585   2.513   3.432   1.264  1.3628 -1.0927 -0.2495
   18MOL    H92 6586   2.618   3.415   1.410 -0.8502  0.5423  0.4303
   18MOL    H93 6587   2.310   3.415   1.403 -0.7027 -0.7407  0.3110
   18MOL    H94 6588   2.422   3.329   1.513 -1.6287 -0.7430 -0.3552
   18MOL    H95 6589   2.135   3.709   1.722  0.3292 -0.0986  1.4743
   18MOL    H96 6590   2.289   3.750   1.669 -2.3988  0.5011 -1.2674
   18MOL    C97 6591   2.297   3.639   1.850  0.0650  0.0255  0.3426
   18MOL    C98 6592   2.220   3.548   1.942 -0.1623 -0.3129  0.1467
   18MOL    C99 6593   2.189   3.402   1.890  0.3365  0.0979 -0.4565
   18MOL   C100 6594   2.192   3.306   2.005  0.2191  0.2279  0.3489
   18MOL   C101 6595   2.208   3.395   2.127 -0.0126 -0.0775  0.0829
   18MOL   C102 6596   2.278   3.518   2.079  0.4058  0.2047 -1.3438
   18MOL   C103 6597   2.336   3.773   1.906  0.0072 -0.3112 -0.1793
   18MOL   H104 6598   2.390   3.586   1.828 -0.6921  0.0575 -3.1751
   18MOL   H105 6599   2.126   3.598   1.963  0.8317  0.6672  2.3439
   18MOL   H106 6600   2.101   3.393   1.826 -0.6324 -0.4422  0.9319
   18MOL   H107 6601   2.270   3.370   1.824 -0.1696  0.5727 -1.3214
   18MOL   H108 6602   2.281   3.245   2.001  0.6134  0.7169  1.4101
   18MOL   H109 6603   2.101   3.245   2.008 -2.0966  3.5307  0.7534
   18MOL   H110 6604   2.250   3.344   2.213 -0.6606 -1.9121 -0.6444
   18MOL   H111 6605   2.108   3.423   2.160  0.3532  0.3835  0.7985
   18MOL   H112 6606   2.279   3.596   2.155  3.4922 -2.1421  1.1871
   18MOL   H113 6607   2.379   3.478   2.063  0.4014 -0.2020 -0.3806
   18MOL   H114 6608   2.263   3.851   1.884  2.4647  2.0705 -0.0862
   18MOL   H115 6609   2.337   3.776   2.015  0.5043 -1.1164 -0.1596
   18MOL   C116 6610   2.483   3.823   1.868  0.0900 -0.5027 -0.3645
   18MOL   C117 6611   2.496   3.974   1.851 -0.2955 -0.1378 -0.4919
   18MOL   C118 6612   2.423   4.024   1.724 -0.5564 -0.2362 -0.0355
   18MOL   C119 6613   2.371   4.167   1.751 -0.0801  0.9467  0.2071
   18MOL   C120 6614   2.333   4.161   1.903 -0.3238  0.5665 -0.4575
   18MOL   C121 6615   2.443   4.066   1.961 -0.7333 -0.1663 -0.2009
   18MOL   C122 6616   2.585   3.763   1.962 -0.3691 -0.1095 -0.0368
   18MOL   H123 6617   2.504   3.780   1.770  0.1539 -0.1586 -0.4993
   18MOL   H124 6618   2.602   3.990   1.834 -0.2836 -0.9528 -1.1933
   18MOL   H125 6619   2.483   4.022   1.633 -0.7857  1.5034 -0.2419
   18MOL   H126 6620   2.333   3.964   1.706  0.6925 -1.5311 -2.1242
   18MOL   H127 6621   2.286   4.186   1.685 -0.8687  0.2073  0.9891
   18MOL   H128 6622   2.449   4.243   1.750  2.3196 -1.3851 -3.6377
   18MOL   H129 6623   2.229   4.131   1.901 -0.0373 -0.6579  1.2213
   18MOL   H130 6624   2.340   4.262   1.944  3.4487 -0.2017  1.0272
   18MOL   H131 6625   2.531   4.127   1.982  0.5115 -1.4980 -1.3911
   18MOL   H132 6626   2.420   4.009   2.051  0.3255  0.1912  0.2965
   18MOL   H133 6627   2.540   3.677   2.011  0.1510  0.3727  1.2911
   18MOL   H134 6628   2.587   3.832   2.046 -0.1360 -1.7730  1.3585
   18MOL   C135 6629   2.717   3.733   1.882  0.4434 -0.0591 -0.1148
   18MOL   C136 6630   2.711   3.594   1.807  0.4300 -0.1721 -0.2734
   18MOL   C137 6631   2.707   3.459   1.879 -0.2891  0.1436  0.3131
   18MOL   C138 6632   2.730   3.354   1.778 -0.1969  0.3952  0.2166
   18MOL   C139 6633   2.830   3.416   1.680 -0.3748  1.6711  0.3824
   18MOL   C140 6634   2.819   3.571   1.697 -0.3557 -0.6000 -0.9323
   18MOL   C141 6635   2.837   3.747   1.986  0.0680 -0.6679  0.8737
   18MOL   H142 6636   2.734   3.811   1.807 -0.2968 -1.1964 -1.4826
   18MOL   H143 6637   2.619   3.593   1.747  1.6695  0.6094 -2.2597
   18MOL   H144 6638   2.790   3.452   1.950 -0.8325  1.5769  1.1047
   18MOL   H145 6639   2.611   3.466   1.931 -0.8479  1.9639 -0.9189
   18MOL   H146 6640   2.636   3.326   1.731 -0.8863 -0.4592  2.0680
   18MOL   H147 6641   2.751   3.254   1.816  1.6633  0.7967  0.3101
   18MOL   H148 6642   2.820   3.381   1.577  0.1163 -1.5162  1.3513
   18MOL   H149 6643   2.926   3.371   1.705 -0.9210  0.1471 -0.1714
   18MOL   H150 6644   2.915   3.606   1.735 -2.1523  2.6774  0.8049
   18MOL   H151 6645   2.788   3.623   1.607 -0.9979 -2.0034 -1.5333
   18MOL   H152 6646   2.906   3.666   1.960 -0.7633 -1.1768  0.2342
   18MOL   H153 6647   2.803   3.736   2.089 -2.4119  1.9032  0.3817
   18MOL   C154 6648   2.893   3.886   1.982 -0.0586  0.1798  0.2252
   18MOL   C155 6649   2.919   3.943   2.130  0.5378 -0.0973 -0.0374
   18MOL   C156 6650   3.002   3.853   2.222  0.3391 -0.2420  0.4128
   18MOL   C157 6651   2.949   3.874   2.365  0.7773  0.2364 -0.2783
   18MOL   C158 6652   2.845   3.993   2.357  0.0004  0.3587  0.2893
   18MOL   C159 6653   2.801   3.980   2.209 -0.0581 -0.4793  0.3259
   18MOL   C160 6654   3.024   3.903   1.893  0.5623 -0.1736  0.2635
   18MOL   H161 6655   2.816   3.955   1.946  0.9141  0.4574 -1.3432
   18MOL   H162 6656   2.980   4.033   2.119 -0.8124  0.6458 -1.7403
   18MOL   H163 6657   2.989   3.753   2.180 -0.2780 -0.8684  2.0478
   18MOL   H164 6658   3.106   3.883   2.208  0.3410 -1.1273 -1.6863
   18MOL   H165 6659   2.913   3.776   2.396  0.1781 -0.0750 -1.9081
   18MOL   H166 6660   3.029   3.893   2.435  0.5019 -1.2635  0.4779
   18MOL   H167 6661   2.909   4.079   2.380 -1.7411  1.2805  1.7914
   18MOL   H168 6662   2.763   3.998   2.428 -0.6655  0.4426 -0.4818
   18MOL   H169 6663   2.764   4.076   2.170  0.2969 -0.6236 -0.3784
   18MOL   H170 6664   2.722   3.906   2.198 -1.7116  1.2845 -0.0071
   18MOL   H171 6665   3.023   3.834   1.809 -1.7515  0.6225 -0.3990
   18MOL   H172 6666   3.113   3.868   1.945  1.6490  2.0981 -0.0022
   18MOL   C173 6667   3.059   4.053   1.854  0.5698  0.3162 -0.3484
   18MOL   C174 6668   3.017   4.080   1.709 -0.6006 -0.3969  0.0784
   18MOL   C175 6669   3.024   4.227   1.657 -0.4453  0.7034 -0.1227
   18MOL   C176 6670   2.916   4.227   1.541 -0.3168 -1.0454 -0.0367
   18MOL   C177 6671   2.848   4.095   1.528  0.0728  0.5558  0.0909
   18MOL   C178 6672   2.880   4.027   1.665  0.2343  0.2379 -0.5869
   18MOL   C179 6673   3.205   4.097   1.871 -0.2195 -0.1580 -0.9292
   18MOL   H180 6674   2.990   4.121   1.905 -0.5847 -0.3310 -1.0083
   18MOL   H181 6675   3.085   4.028   1.642  1.1154 -1.3923  2.5115
   18MOL   H182 6676   3.122   4.265   1.628  0.1224 -0.4375  0.2779
   18MOL   H183 6677   2.978   4.294   1.729  2.3833  2.0656  0.4666
   18MOL   H184 6678   2.844   4.305   1.566  1.6078  2.1560 -3.9925
   18MOL   H185 6679   2.968   4.265   1.453 -0.2906 -0.7340  0.1142
   18MOL   H186 6680   2.875   4.039   1.438 -2.2401  0.6461 -0.6974
   18MOL   H187 6681   2.743   4.124   1.521 -0.4840 -1.4195  0.0546
   18MOL   H188 6682   2.805   4.068   1.732 -0.9369  0.8564 -2.2351
   18MOL   H189 6683   2.875   3.918   1.664  1.3138  0.1901 -0.9323
   18MOL   H190 6684   3.257   4.017   1.819 -1.1331 -1.4579  0.0986
   18MOL   H191 6685   3.231   4.191   1.824  0.6939 -1.0257 -2.1843
   18MOL   C192 6686   3.260   4.118   2.022  0.5228  0.5971  0.9341
   18MOL   C193 6687   3.176   4.230   2.098 -0.4352  0.3215  0.8049
   18MOL   C194 6688   3.188   4.375   2.062  0.3270  0.4497 -0.3300
   18MOL   C195 6689   3.152   4.443   2.195  0.3057  0.1439 -0.6134
   18MOL   C196 6690   3.208   4.357   2.307  0.7557  0.4287 -0.8216
   18MOL   C197 6691   3.199   4.217   2.255 -0.0914 -0.0580 -0.3897
   18MOL   C198 6692   3.409   4.160   2.028 -0.0793  0.3365 -0.5056
   18MOL   H199 6693   3.243   4.022   2.070 -0.6451  0.3898  0.1351
   18MOL   H200 6694   3.071   4.212   2.076  0.4128 -1.3215 -2.1755
   18MOL   H201 6695   3.130   4.401   1.974 -0.6077 -2.5306 -0.6654
   18MOL   H202 6696   3.293   4.397   2.049  0.5096  0.3451  0.8725
   18MOL   H203 6697   3.186   4.547   2.204  0.1773  0.0994  0.4778
   18MOL   H204 6698   3.045   4.442   2.214  0.2347 -1.3010 -1.0580
   18MOL   H205 6699   3.153   4.363   2.401 -1.6222  0.7829 -2.1928
   18MOL   H206 6700   3.313   4.389   2.312  0.8431  0.5662 -3.0511
   18MOL   H207 6701   3.114   4.164   2.299 -0.4033  1.4159  0.8427
   18MOL   H208 6702   3.275   4.141   2.272 -0.9149 -0.3430  2.3255
   18MOL   H209 6703   3.437   4.238   1.958  2.0987 -1.8047 -2.0764
   18MOL   H210 6704   3.445   4.203   2.122  0.4163 -0.1760 -0.4590
   18MOL   C211 6705   3.512   4.047   1.998 -0.2135  0.6691 -0.1610
   18MOL   C212 6706   3.524   3.938   2.113 -0.5092 -0.2220 -0.3567
   18MOL   C213 6707   3.639   3.840   2.088 -0.1013 -0.0249 -0.0709
   18MOL   C214 6708   3.685   3.804   2.227  0.3742 -0.4521  0.0669
   18MOL   C215 6709   3.601   3.884   2.330 -0.1648  0.9787  0.2806
   18MOL   C216 6710   3.548   4.002   2.252  0.0986  0.0220  0.2159
   18MOL   C217 6711   3.495   3.985   1.857  0.0282  0.4477  0.0389
   18MOL   H218 6712   3.601   4.109   1.993 -1.1052  1.8997 -1.2029
   18MOL   H219 6713   3.440   3.870   2.125  0.1841 -0.9372  0.5229
   18MOL   H220 6714   3.617   3.748   2.034  0.5096 -0.0249 -0.3242
   18MOL   H221 6715   3.722   3.892   2.040 -0.5556  1.7288  1.0336
   18MOL   H222 6716   3.671   3.698   2.249  2.1946 -0.3489  1.8944
   18MOL   H223 6717   3.785   3.838   2.255  0.3617  1.0331 -1.6201
   18MOL   H224 6718   3.652   3.907   2.424  0.2981  0.4130  0.1706
   18MOL   H225 6719   3.520   3.823   2.368  1.7985 -1.8568  0.0457
   18MOL   H226 6720   3.467   4.060   2.297  0.0609 -0.9130  1.3727
   18MOL   H227 6721   3.629   4.075   2.249 -1.7309  2.2348  2.3562
   18MOL   H228 6722   3.438   4.060   1.802 -0.4373 -0.4702 -0.7441
   18MOL   H229 6723   3.435   3.895   1.863 -0.9386  1.1839  1.7715
   18MOL   C230 6724   3.620   3.979   1.762 -0.3592  0.1880 -0.2184
   18MOL   C231 6725   3.601   4.038   1.625 -0.1594 -0.3707 -0.2055
   18MOL   C232 6726   3.487   3.981   1.537 -0.5346  0.1383 -0.0477
   18MOL   C233 6727   3.398   4.102   1.501 -0.6149 -0.6836 -0.0024
   18MOL   C234 6728   3.491   4.227   1.513  0.4525 -0.1876  0.3522
   18MOL   C235 6729   3.581   4.193   1.634  0.1975 -0.7973  0.6104
   18MOL   C236 6730   3.663   3.833   1.738  0.1503 -0.4754  0.3564
   18MOL   H237 6731   3.695   4.023   1.829  0.1630  1.0421 -1.3471
   18MOL   H238 6732   3.690   4.035   1.562 -0.9773  0.5495 -1.4312
   18MOL   H239 6733   3.525   3.943   1.443  1.2661 -1.0853  1.1392
   18MOL   H240 6734   3.430   3.906   1.592 -0.3800 -2.6151 -3.4913
   18MOL   H241 6735   3.335   4.101   1.412 -1.8168 -0.7768  0.8400
   18MOL   H242 6736   3.321   4.117   1.577 -0.3029 -2.8410  0.7572
   18MOL   H243 6737   3.436   4.319   1.535 -1.8901 -0.8562 -2.3341
   18MOL   H244 6738   3.544   4.235   1.418  0.8304 -2.1580  0.3786
   18MOL   H245 6739   3.525   4.225   1.722  0.5904  2.5841 -0.3052
   18MOL   H246 6740   3.667   4.259   1.643 -0.2416 -0.3808  1.9148
   18MOL   H247 6741   3.588   3.788   1.673 -0.0895 -1.6968  1.4548
   18MOL   H248 6742   3.665   3.764   1.823 -2.3030  2.0427  2.5772
   18MOL   C249 6743   3.804   3.814   1.673 -0.2501 -0.8257 -0.9182
   18MOL   C250 6744   3.795   3.684   1.598 -0.3886  0.4312 -0.1061
   18MOL   C251 6745   3.934   3.643   1.539  0.1983  0.0866 -0.0422
   18MOL   C252 6746   3.931   3.652   1.388 -0.5803 -0.2778  0.3051
   18MOL   C253 6747   3.789   3.614   1.357  0.1166  0.0482  0.1877
   18MOL   C254 6748   3.713   3.693   1.465  0.3672  0.1160  0.6737
   18MOL   C255 6749   3.915   3.821   1.782  0.1509 -0.2655 -0.0078
   18MOL   H256 6750   3.805   3.890   1.595  0.5173 -1.6029 -1.6820
   18MOL   H257 6751   3.758   3.606   1.664 -0.3649 -0.3289 -0.9702
   18MOL   H258 6752   3.942   3.541   1.576 -0.2323  0.2130  0.4095
   18MOL   H259 6753   4.024   3.692   1.577 -0.4929  1.2879  0.0867
   18MOL   H260 6754   3.987   3.570   1.341 -0.4354 -1.5506  2.6217
   18MOL   H261 6755   3.975   3.740   1.341  1.3630 -0.2948  1.9983
   18MOL   H262 6756   3.767   3.507   1.368  1.6213 -0.3183 -0.2505
   18MOL   H263 6757   3.767   3.649   1.256 -3.4142 -1.6023  0.2963
   18MOL   H264 6758   3.611   3.655   1.478  0.3996 -0.5888 -1.0356
   18MOL   H265 6759   3.702   3.788   1.414  1.5079 -0.6805 -1.0683
   18MOL   H266 6760   3.867   3.859   1.872 -0.0655 -1.7466  0.5213
   18MOL   H267 6761   3.948   3.725   1.821  0.2486 -0.3859 -0.3780
   18MOL   C268 6762   4.038   3.919   1.755  0.6014  0.0414 -0.3402
   18MOL   C269 6763   4.165   3.890   1.846  0.6081  0.6003  0.4388
   18MOL   C270 6764   4.219   3.743   1.843  0.0637 -0.5117  0.3796
   18MOL   C271 6765   4.277   3.721   1.981  0.1168 -0.2784  0.2743
   18MOL   C272 6766   4.214   3.822   2.081 -0.0065 -0.7298 -0.0021
   18MOL   C273 6767   4.116   3.904   1.994  0.1978 -0.5119  0.9907
   18MOL   C274 6768   3.986   4.069   1.748 -0.2029 -0.1483 -0.0284
   18MOL   H275 6769   4.077   3.893   1.657 -1.0872  0.0887 -1.0406
   18MOL   H276 6770   4.248   3.958   1.827 -0.1167  0.5849 -3.1155
   18MOL   H277 6771   4.147   3.667   1.811  0.9611 -1.5656  0.8214
   18MOL   H278 6772   4.294   3.734   1.764 -0.2814 -0.0260 -0.0055
   18MOL   H279 6773   4.243   3.622   2.012  1.1736 -0.4005  1.0773
   18MOL   H280 6774   4.384   3.729   1.999  0.2065 -1.3071  0.2399
   18MOL   H281 6775   4.297   3.886   2.112 -1.8822  1.7312 -0.0136
   18MOL   H282 6776   4.164   3.781   2.169 -0.8689  0.2186 -0.0590
   18MOL   H283 6777   4.108   4.011   2.012 -1.1880 -0.2081 -1.1743
   18MOL   H284 6778   4.021   3.861   2.024 -0.0702 -1.3533 -0.9939
   18MOL   H285 6779   3.947   4.090   1.848  0.2903 -3.1328  0.8392
   18MOL   H286 6780   3.898   4.074   1.684 -2.0193 -1.1716  2.3274
   18MOL   C287 6781   4.081   4.177   1.705 -0.5538 -0.3464 -0.0719
   18MOL   C288 6782   4.129   4.146   1.562 -0.1410 -0.3864 -0.6014
   18MOL   C289 6783   4.020   4.147   1.451  0.8880  0.4078  0.3668
   18MOL   C290 6784   4.090   4.204   1.323 -0.2159 -0.3191 -0.6007
   18MOL   C291 6785   4.239   4.237   1.360  0.5024  0.0207  0.0558
   18MOL   C292 6786   4.239   4.252   1.507  0.4619 -0.1318 -0.4344
   18MOL   C293 6787   4.011   4.317   1.722  0.1590  0.2281 -0.7582
   18MOL   H294 6788   4.174   4.177   1.762 -2.3344  2.1009  3.0019
   18MOL   H295 6789   4.189   4.055   1.553  1.0751  0.3054  0.3300
   18MOL   H296 6790   3.986   4.046   1.426  2.9183 -0.4327  0.8238
   18MOL   H297 6791   3.933   4.208   1.472  0.2360 -0.8854  1.5327
   18MOL   H298 6792   4.087   4.136   1.237  2.2973 -2.1835  0.7124
   18MOL   H299 6793   4.037   4.293   1.289 -1.2352 -0.0168  1.6805
   18MOL   H300 6794   4.277   4.320   1.301 -0.4280  1.1376  0.9976
   18MOL   H301 6795   4.298   4.147   1.345 -0.8744 -0.9269  0.2875
   18MOL   H302 6796   4.198   4.352   1.525  0.2635 -0.8221  3.4177
   18MOL   H303 6797   4.332   4.235   1.562  1.8851  2.3730 -1.9449
   18MOL   H304 6798   3.912   4.322   1.678 -0.3208 -0.5877  0.1922
   18MOL   H305 6799   4.068   4.393   1.670  1.5438 -0.4380 -0.2494
   18MOL   C306 6800   4.014   4.365   1.871 -1.3306 -0.8459  0.0556
   18MOL   C307 6801   4.070   4.511   1.897 -0.2548  0.1726 -0.0127
   18MOL   C308 6802   4.220   4.515   1.871 -0.5632  0.3981 -0.0869
   18MOL   C309 6803   4.259   4.658   1.824 -0.5719  0.9787  0.1288
   18MOL   C310 6804   4.121   4.733   1.826  0.4099  0.1202  0.3115
   18MOL   C311 6805   4.014   4.633   1.817 -0.1820  0.0606 -0.3965
   18MOL   C312 6806   3.867   4.351   1.928  0.5297 -0.5957 -0.7186
   18MOL   H313 6807   4.067   4.290   1.930  0.6226 -1.1172 -1.9736
   18MOL   H314 6808   4.060   4.533   2.003 -2.5012  0.9370 -0.3522
   18MOL   H315 6809   4.251   4.446   1.792 -1.1376  2.0513 -1.8125
   18MOL   H316 6810   4.267   4.491   1.966 -0.7839  2.2604  0.5247
   18MOL   H317 6811   4.339   4.705   1.881  2.0807 -2.7468 -0.3308
   18MOL   H318 6812   4.306   4.666   1.726 -1.6169  0.5070 -0.4073
   18MOL   H319 6813   4.115   4.804   1.744  2.4642 -1.2266 -1.0496
   18MOL   H320 6814   4.101   4.797   1.913  0.7037 -0.8643  1.1109
   18MOL   H321 6815   3.923   4.673   1.860 -0.4400 -1.9193  0.9308
   18MOL   H322 6816   3.995   4.605   1.713  1.0746 -3.6771  0.2935
   18MOL   H323 6817   3.826   4.253   1.903  1.5323 -1.2563  0.1321
   18MOL   H324 6818   3.814   4.411   1.854 -1.8385 -2.6045 -0.7101
   18MOL   C325 6819   3.829   4.394   2.066  0.4232  0.4213  0.4448
   18MOL   C326 6820   3.860   4.282   2.173  0.1822 -0.4390 -0.9421
   18MOL   C327 6821   3.815   4.311   2.321 -0.5212  0.1984  0.2693
   18MOL   C328 6822   3.905   4.232   2.419 -0.6524 -0.1210  0.1076
   18MOL   C329 6823   4.005   4.149   2.325 -0.6188 -0.7829  0.3040
   18MOL   C330 6824   4.002   4.229   2.194  0.2825 -0.2456 -0.0464
   18MOL   C331 6825   3.671   4.440   2.066  0.0880 -0.4670 -0.4044
   18MOL   H332 6826   3.887   4.480   2.097 -1.2945  1.5127  0.6734
   18MOL   H333 6827   3.790   4.206   2.137 -0.1865 -0.3089 -0.5114
   18MOL   H334 6828   3.711   4.280   2.332 -0.2322 -1.7541 -2.1895
   18MOL   H335 6829   3.810   4.418   2.345 -1.5573 -0.0549  1.2341
   18MOL   H336 6830   3.849   4.167   2.486  0.8976  0.2234  1.7697
   18MOL   H337 6831   3.961   4.307   2.474  2.6866 -1.5006 -1.1959
   18MOL   H338 6832   3.960   4.051   2.310  1.8473 -2.1042  1.1018
   18MOL   H339 6833   4.103   4.126   2.368 -0.1921 -0.9969 -0.7808
   18MOL   H340 6834   4.037   4.172   2.109  1.6393  0.3204  0.1164
   18MOL   H341 6835   4.074   4.311   2.199 -0.3345  0.2088  2.0171
   18MOL   H342 6836   3.624   4.423   2.163 -1.2744 -3.0227 -1.4634
   18MOL   H343 6837   3.612   4.368   2.010  1.5073 -1.1423 -1.0487
   18MOL   C344 6838   3.652   4.596   2.059 -0.3036 -0.3219  0.0999
   18MOL   C345 6839   3.689   4.657   2.194 -0.1486 -0.1395 -0.4764
   18MOL   C346 6840   3.598   4.641   2.315  0.2359  0.3404 -0.4440
   18MOL   C347 6841   3.657   4.736   2.410  0.3491 -0.6799  0.1581
   18MOL   C348 6842   3.710   4.851   2.330 -0.3293  0.7056  0.4258
   18MOL   C349 6843   3.724   4.801   2.183  0.1872 -0.5161  0.2451
   18MOL   C350 6844   3.514   4.644   2.018  0.7676 -0.0765  0.3737
   18MOL   H351 6845   3.723   4.634   1.987 -0.1550 -0.0888  0.3663
   18MOL   H352 6846   3.786   4.622   2.229  0.7610  1.1749 -1.6150
   18MOL   H353 6847   3.590   4.534   2.337  1.0697  0.3701  0.0053
   18MOL   H354 6848   3.497   4.678   2.293  0.6616  1.2747 -0.8440
   18MOL   H355 6849   3.604   4.758   2.503  2.5145  1.9621  0.8574
   18MOL   H356 6850   3.747   4.681   2.440  0.1200 -1.8913 -1.3462
   18MOL   H357 6851   3.807   4.887   2.363  0.0609 -0.9850  1.1574
   18MOL   H358 6852   3.650   4.942   2.319 -1.1707  0.4789  2.8592
   18MOL   H359 6853   3.660   4.858   2.116  0.5287 -0.7822 -0.3140
   18MOL   H360 6854   3.826   4.800   2.144  0.7612 -2.6342  1.7225
   18MOL   H361 6855   3.496   4.752   2.015  0.4336 -0.1840 -2.2273
   18MOL   H362 6856   3.444   4.595   2.086 -1.4299  1.5040 -0.6650
   18MOL   C363 6857   3.466   4.600   1.880  0.4207 -0.0472  0.0897
   18MOL   C364 6858   3.319   4.644   1.855  0.4688 -0.2291 -0.3327
   18MOL   C365 6859   3.252   4.586   1.728  0.0921 -0.0997 -0.2054
   18MOL   C366 6860   3.132   4.682   1.707 -0.1055  0.1170  0.9816
   18MOL   C367 6861   3.176   4.821   1.765 -0.4677  0.2999 -0.6141
   18MOL   C368 6862   3.302   4.796   1.851  0.0459 -0.7377  0.8202
   18MOL   C369 6863   3.563   4.642   1.771 -0.1783  0.1602  0.1966
   18MOL   H370 6864   3.464   4.492   1.873  1.7611  0.0058 -1.3535
   18MOL   H371 6865   3.262   4.608   1.941  2.4532  1.0820  1.5548
   18MOL   H372 6866   3.311   4.582   1.637 -1.4140 -1.7162 -1.1277
   18MOL   H373 6867   3.208   4.489   1.748 -1.0023  0.0847 -1.6306
   18MOL   H374 6868   3.120   4.690   1.599  2.1137 -1.3790  0.5884
   18MOL   H375 6869   3.037   4.641   1.739  1.7545 -4.1501  1.4150
   18MOL   H376 6870   3.207   4.889   1.686 -0.2567  1.4441  0.4408
   18MOL   H377 6871   3.103   4.872   1.827 -1.0148 -0.1766 -0.8557
   18MOL   H378 6872   3.284   4.853   1.942 -0.9877  1.4229 -0.6759
   18MOL   H379 6873   3.393   4.831   1.802 -0.1571  0.6140  1.4031
   18MOL   H380 6874   3.582   4.749   1.783 -0.3147  0.1806  0.2324
   18MOL   H381 6875   3.540   4.623   1.667  0.6006  1.8891 -0.3028
   18MOL   H382 6876   3.662   4.598   1.783  0.1457  0.9539  0.4653
   19MOL     C1 6877   0.333   5.978   7.420 -0.0443  0.0972  0.0853
   19MOL     C2 6878   0.266   5.855   7.355 -0.0202  0.3892 -0.1474
   19MOL     C3 6879   0.142   5.814   7.426 -0.3418  0.3362  0.3853
   19MOL     C4 6880   0.137   5.664   7.415  0.5342  0.5089 -0.1677
   19MOL     C5 6881   0.253   5.622   7.331 -0.0920  0.1657 -0.3861
   19MOL     C6 6882   0.355   5.734   7.356 -0.2303  0.3623  0.2296
   19MOL     C7 6883   0.243   6.095   7.420 -0.0499  0.1857  0.4153
   19MOL     H8 6884   0.348   5.948   7.524  0.6733 -0.6996 -0.2409
   19MOL     H9 6885   0.246   5.864   7.248 -2.0574  0.8149  0.2540
   19MOL    H10 6886   0.134   5.842   7.531 -0.3779 -0.2079  0.5342
   19MOL    H11 6887   0.063   5.853   7.363  1.0177  0.1418 -1.4875
   19MOL    H12 6888   0.123   5.611   7.509 -0.7181 -1.6404 -1.5161
   19MOL    H13 6889   0.053   5.639   7.349  1.7268 -2.2826 -0.6824
   19MOL    H14 6890   0.284   5.520   7.354 -0.3399  0.0159 -0.7158
   19MOL    H15 6891   0.234   5.617   7.224 -0.9074 -1.3602 -0.1831
   19MOL    H16 6892   0.428   5.723   7.276  1.1489 -1.6049  1.6863
   19MOL    H17 6893   0.403   5.724   7.454  1.7592  0.8528 -0.6536
   19MOL    H18 6894   0.156   6.064   7.479  1.8485 -2.0385  2.1461
   19MOL    H19 6895   0.288   6.174   7.481 -2.8535 -0.4530  3.4732
   19MOL    H20 6896   0.424   6.003   7.364  1.3213 -0.3116  2.0797
   19MOL    C21 6897   0.204   6.154   7.286 -0.4654 -0.0918  0.5265
   19MOL    C22 6898   0.083   6.247   7.301  0.9266  0.2002 -0.4714
   19MOL    C23 6899   7.650   6.177   7.369 -0.4972  0.4810 -0.6571
   19MOL    C24 6900   7.546   6.287   7.341 -0.3063  0.0146 -0.3656
   19MOL    C25 6901   7.564   6.350   7.206  0.1319 -0.0696  0.1204
   19MOL    C26 6902   0.022   6.318   7.179 -0.3077 -0.2953  0.1045
   19MOL    C27 6903   0.322   6.222   7.212  0.7016 -0.5901 -0.2639
   19MOL    H28 6904   0.158   6.073   7.230  0.2408 -0.7964  0.9465
   19MOL    H29 6905   0.107   6.332   7.366  2.4836 -1.4231  1.1406
   19MOL    H30 6906   7.657   6.154   7.475 -0.7687  3.2857 -0.0037
   19MOL    H31 6907   7.627   6.088   7.310  1.2344 -1.9711  2.1820
   19MOL    H32 6908   7.444   6.257   7.363 -0.6424  1.0738 -0.4854
   19MOL    H33 6909   7.579   6.371   7.402 -0.2674 -1.8503  2.2924
   19MOL    H34 6910   7.532   6.452   7.189  2.2681  0.5219 -0.6072
   19MOL    H35 6911   7.500   6.284   7.148  0.4558  1.0369 -1.5265
   19MOL    H36 6912   0.089   6.399   7.148  1.3162 -1.5751  0.1905
   19MOL    H37 6913   0.029   6.253   7.091  1.7916 -2.4797  1.8149
   19MOL    H38 6914   0.341   6.321   7.253  1.4371 -1.4277  1.4270
   19MOL    H39 6915   0.414   6.173   7.244 -0.5499 -1.8016  1.5958
   19MOL    C40 6916   0.321   6.219   7.058  0.1732 -0.1197 -0.0428
   19MOL    C41 6917   0.430   6.309   6.992  0.7489 -0.7420 -0.3328
   19MOL    C42 6918   0.414   6.454   7.040  0.1427  0.2360 -0.0082
   19MOL    C43 6919   0.487   6.526   6.931  0.9961 -0.4244  0.4848
   19MOL    C44 6920   0.497   6.443   6.808  0.2770  0.3192  0.2670
   19MOL    C45 6921   0.421   6.318   6.842 -0.3052  0.9458  0.7128
   19MOL    C46 6922   0.345   6.075   7.009 -0.0818  0.5960 -0.9622
   19MOL    H47 6923   0.225   6.248   7.014  0.7383  3.2012  0.8383
   19MOL    H48 6924   0.532   6.288   7.026  0.6424  1.7264  1.6810
   19MOL    H49 6925   0.450   6.480   7.139  2.0658 -1.1210 -0.3095
   19MOL    H50 6926   0.310   6.485   7.045 -0.1799 -0.8835  0.3738
   19MOL    H51 6927   0.581   6.567   6.968 -0.9850  3.3226  1.5507
   19MOL    H52 6928   0.434   6.619   6.912 -0.0048 -1.0330  0.2695
   19MOL    H53 6929   0.459   6.494   6.719 -1.1809 -1.5597 -0.2044
   19MOL    H54 6930   0.602   6.413   6.801  0.5208  0.9682  1.0463
   19MOL    H55 6931   0.320   6.338   6.806  0.0241  1.4518  0.0694
   19MOL    H56 6932   0.456   6.236   6.779  0.9238  1.1165  1.1576
   19MOL    H57 6933   0.449   6.070   6.978  0.5346 -0.4313  1.1385
   19MOL    H58 6934   0.332   6.006   7.092  1.6911  1.4753  0.0901
   19MOL    C59 6935   0.263   6.025   6.893 -0.3649 -0.2584  0.0645
   19MOL    C60 6936   0.325   5.906   6.824  0.0351 -0.6069  0.4666
   19MOL    C61 6937   0.373   5.789   6.913  0.0620  0.5889 -0.3462
   19MOL    C62 6938   0.448   5.697   6.811 -0.4651  0.0822 -0.2389
   19MOL    C63 6939   0.484   5.786   6.689 -0.6723  0.2057  0.2146
   19MOL    C64 6940   0.446   5.928   6.733 -0.3323  0.1230  0.1462
   19MOL    C65 6941   0.120   6.002   6.934  0.6073 -0.2014 -0.3714
   19MOL    H66 6942   0.266   6.112   6.827  1.4729 -0.7813 -0.5642
   19MOL    H67 6943   0.254   5.870   6.750 -2.7065 -0.6035  3.0174
   19MOL    H68 6944   0.288   5.733   6.951 -0.4808  0.2946 -1.9493
   19MOL    H69 6945   0.439   5.810   6.997 -0.7692  1.5872  0.0684
   19MOL    H70 6946   0.394   5.615   6.765 -1.5703  1.8399 -2.1970
   19MOL    H71 6947   0.543   5.657   6.845 -1.0683 -1.0358  0.1371
   19MOL    H72 6948   0.425   5.752   6.604  0.0569 -0.8597  0.1194
   19MOL    H73 6949   0.585   5.770   6.651 -0.6930  1.4303 -0.3746
   19MOL    H74 6950   0.528   5.973   6.789 -1.9652  2.1376  0.9738
   19MOL    H75 6951   0.432   5.990   6.644 -1.8477 -0.8248 -0.2888
   19MOL    H76 6952   0.104   6.057   7.027 -1.9217  1.0204 -1.5011
   19MOL    H77 6953   0.112   5.897   6.963 -0.9525  0.4504  1.6320
   19MOL    C78 6954   0.010   6.022   6.823 -0.3816 -0.4527 -0.3635
   19MOL    C79 6955   7.569   5.934   6.841 -0.0783  0.0428 -0.1983
   19MOL    C80 6956   7.506   5.952   6.979 -0.4963  0.0920 -0.2389
   19MOL    C81 6957   7.437   5.829   7.004 -0.6044 -0.0560  0.3255
   19MOL    C82 6958   7.520   5.710   6.941 -0.0260  0.1561 -0.3328
   19MOL    C83 6959   7.584   5.783   6.819  0.5637 -0.1503  0.2793
   19MOL    C84 6960   7.676   6.170   6.773  0.0746  0.0130  0.6936
   19MOL    H85 6961   0.061   5.979   6.737 -1.6718 -1.2562 -0.7509
   19MOL    H86 6962   7.504   5.965   6.759  1.5636  1.2610 -1.0652
   19MOL    H87 6963   7.439   6.034   7.004 -0.9067 -1.0136  2.4735
   19MOL    H88 6964   7.575   5.960   7.063 -4.3255  1.3992  2.9413
   19MOL    H89 6965   7.336   5.836   6.964  0.1447  1.9768 -1.2482
   19MOL    H90 6966   7.416   5.805   7.109 -2.6049  1.7637  0.3740
   19MOL    H91 6967   7.597   5.671   7.008  1.3768 -0.4278 -2.2215
   19MOL    H92 6968   7.460   5.628   6.902  1.4423 -0.1350 -2.0947
   19MOL    H93 6969   7.688   5.752   6.820  0.4165 -0.7040 -0.8050
   19MOL    H94 6970   7.539   5.750   6.725  0.2849 -2.4343  1.1841
   19MOL    H95 6971   0.078   6.228   6.770 -0.1338  0.3039 -0.4703
   19MOL    H96 6972   7.619   6.225   6.847 -0.0943 -0.9033  1.2459
   19MOL    C97 6973   7.594   6.186   6.644 -0.4325  0.2130  0.8518
   19MOL    C98 6974   7.679   6.140   6.522  0.3413 -0.6707  0.0506
   19MOL    C99 6975   7.611   6.138   6.384  0.3601  0.4078  0.0217
   19MOL   C100 6976   0.036   6.123   6.290 -0.5248 -0.0688  0.2770
   19MOL   C101 6977   0.150   6.208   6.351 -0.0232  0.1781 -0.0283
   19MOL   C102 6978   0.131   6.206   6.499  0.1642 -0.9258 -0.4534
   19MOL   C103 6979   7.551   6.339   6.631  0.7755 -0.5416  0.0842
   19MOL   H104 6980   7.501   6.128   6.637 -0.1849  0.0273 -1.2928
   19MOL   H105 6981   7.687   6.032   6.534 -0.6939 -1.0173 -2.1196
   19MOL   H106 6982   7.535   6.061   6.375 -0.7825  1.3205  1.5803
   19MOL   H107 6983   7.558   6.231   6.365 -0.2283 -0.2400 -1.6072
   19MOL   H108 6984   0.004   6.163   6.194  0.2738  3.7138  1.5209
   19MOL   H109 6985   0.065   6.019   6.276 -0.3312 -0.3789  2.6376
   19MOL   H110 6986   0.150   6.311   6.317  0.4523  0.0819 -0.3261
   19MOL   H111 6987   0.250   6.169   6.334 -0.4797 -1.6346  1.2856
   19MOL   H112 6988   0.203   6.148   6.556  0.1465 -0.4449  0.0629
   19MOL   H113 6989   0.129   6.312   6.525  0.1501 -1.1521  0.5021
   19MOL   H114 6990   7.626   6.399   6.683  1.3263  0.0274 -1.3440
   19MOL   H115 6991   7.557   6.386   6.533  2.8718  1.2631  1.0456
   19MOL   C116 6992   7.418   6.368   6.703 -0.1669 -0.7665  0.2212
   19MOL   C117 6993   7.396   6.499   6.771  0.3388 -0.2817  0.4356
   19MOL   C118 6994   7.273   6.509   6.867 -0.2927  0.4686  0.8819
   19MOL   C119 6995   7.297   6.643   6.937  0.4437 -0.0931 -0.1630
   19MOL   C120 6996   7.455   6.649   6.949 -0.0141  0.6023  0.4890
   19MOL   C121 6997   7.519   6.550   6.859  0.4563  0.1048 -0.4256
   19MOL   C122 6998   7.301   6.329   6.602 -0.5870 -0.4274  0.3685
   19MOL   H123 6999   7.411   6.292   6.780  0.5867 -2.4389 -1.3118
   19MOL   H124 7000   7.381   6.574   6.693  0.0969 -0.7848  0.0021
   19MOL   H125 7001   7.175   6.501   6.819 -0.7127 -1.0166  1.9304
   19MOL   H126 7002   7.274   6.426   6.938 -2.9425  0.4804  0.9716
   19MOL   H127 7003   7.240   6.643   7.030 -0.6319  0.5024 -0.8125
   19MOL   H128 7004   7.263   6.726   6.875  0.2116 -0.5028 -0.5916
   19MOL   H129 7005   7.480   6.631   7.054  3.6779  0.0719 -0.4241
   19MOL   H130 7006   7.484   6.752   6.932 -1.9499  1.5114  2.4175
   19MOL   H131 7007   7.601   6.596   6.804  1.1693  0.7209  1.1370
   19MOL   H132 7008   7.551   6.456   6.904  1.2945  1.4641  1.9093
   19MOL   H133 7009   7.218   6.306   6.668 -1.5696  0.7353 -0.4413
   19MOL   H134 7010   7.335   6.239   6.551 -0.8592  0.6362 -1.7138
   19MOL   C135 7011   7.240   6.434   6.506 -0.4457 -0.1818 -0.3854
   19MOL   C136 7012   7.098   6.381   6.472 -0.3094  0.5413 -0.3133
   19MOL   C137 7013   6.990   6.402   6.577  0.2959 -0.0505  0.3244
   19MOL   C138 7014   6.908   6.263   6.577 -0.0620 -0.4632  0.4333
   19MOL   C139 7015   6.949   6.196   6.447 -0.1918  0.6896  0.1662
   19MOL   C140 7016   7.091   6.236   6.419 -0.5003  0.2065  0.1629
   19MOL   C141 7017   7.317   6.460   6.380  0.1896 -0.8366 -0.2568
   19MOL   H142 7018   7.226   6.532   6.552 -0.6820 -0.7680  0.8118
   19MOL   H143 7019   7.058   6.425   6.380  0.4482 -0.9726 -1.3776
   19MOL   H144 7020   7.009   6.425   6.682 -0.6268  3.2486 -0.1671
   19MOL   H145 7021   6.930   6.486   6.544  0.9040 -0.0953 -0.9266
   19MOL   H146 7022   6.800   6.272   6.592 -0.2164  1.6278 -1.5946
   19MOL   H147 7023   6.937   6.205   6.665 -0.3050 -1.1697  0.0535
   19MOL   H148 7024   6.892   6.223   6.358  2.1723 -0.4486 -1.7605
   19MOL   H149 7025   6.935   6.090   6.469  0.2009  0.7417  0.6838
   19MOL   H150 7026   7.148   6.166   6.481 -0.7355  0.8194  1.0788
   19MOL   H151 7027   7.124   6.227   6.316 -0.4217  1.5353  0.0672
   19MOL   H152 7028   7.263   6.401   6.307 -1.7272 -0.3946  0.7826
   19MOL   H153 7029   7.414   6.410   6.379  0.0081 -1.3367  2.3891
   19MOL   C154 7030   7.335   6.607   6.328  0.0617  0.2261 -0.5917
   19MOL   C155 7031   7.454   6.617   6.233  0.5856 -0.1528 -0.7939
   19MOL   C156 7032   7.451   6.534   6.103  0.5179  0.8668 -0.2737
   19MOL   C157 7033   7.596   6.557   6.053 -0.2942 -0.0375 -0.0931
   19MOL   C158 7034   7.678   6.554   6.179  0.6940 -0.0613 -0.0393
   19MOL   C159 7035   7.594   6.598   6.292  0.3224 -0.7309  0.2434
   19MOL   C160 7036   7.194   6.670   6.275  0.1850 -0.6599 -0.0729
   19MOL   H161 7037   7.367   6.668   6.412 -0.6676  0.7006 -0.6521
   19MOL   H162 7038   7.454   6.724   6.211  0.7174 -0.1528 -0.8004
   19MOL   H163 7039   7.432   6.428   6.116  2.3061  0.5747  0.1350
   19MOL   H164 7040   7.374   6.570   6.036  0.4802  0.3962 -0.4813
   19MOL   H165 7041   7.627   6.471   5.993  0.8283 -1.5017  2.5287
   19MOL   H166 7042   7.592   6.653   6.002  1.4998 -1.3863 -2.9450
   19MOL   H167 7043   0.079   6.613   6.166 -1.0718  2.5682 -0.7633
   19MOL   H168 7044   0.022   6.453   6.202 -0.4247 -0.3699  0.2923
   19MOL   H169 7045   7.620   6.698   6.328  1.6250 -0.0463 -2.4294
   19MOL   H170 7046   7.595   6.532   6.378 -1.5575 -2.5201 -1.0779
   19MOL   H171 7047   7.110   6.627   6.330 -0.0495  0.9962  0.8804
   19MOL   H172 7048   7.195   6.634   6.172  0.3207 -4.5425  1.2049
   19MOL   C173 7049   7.187   6.822   6.283 -0.4355  0.4842  0.0458
   19MOL   C174 7050   7.116   6.873   6.414  0.8679  0.0691  0.0523
   19MOL   C175 7051   6.969   6.845   6.429  0.1102  0.5260 -0.2638
   19MOL   C176 7052   6.919   6.955   6.523 -0.2583 -0.2717 -0.2758
   19MOL   C177 7053   7.038   7.037   6.567 -0.4511  0.2682  0.1544
   19MOL   C178 7054   7.134   7.028   6.447  0.2506 -0.0000  0.2309
   19MOL   C179 7055   7.117   6.883   6.155  0.3337 -0.1399 -0.3031
   19MOL   H180 7056   7.287   6.865   6.275 -0.2106  0.3793  2.0034
   19MOL   H181 7057   7.163   6.818   6.496  1.4177  0.4455 -0.0040
   19MOL   H182 7058   6.961   6.747   6.475 -2.0198  1.4269  1.3533
   19MOL   H183 7059   6.912   6.836   6.337 -0.5659  0.3224  0.1692
   19MOL   H184 7060   6.861   7.024   6.462 -1.2399 -1.1658 -0.3595
   19MOL   H185 7061   6.850   6.922   6.601 -0.6926 -1.8855 -1.3209
   19MOL   H186 7062   7.078   7.004   6.663 -0.6024 -0.9316 -0.1952
   19MOL   H187 7063   7.006   7.141   6.573  0.4290  0.5997 -0.8801
   19MOL   H188 7064   7.084   7.077   6.364 -1.0498  1.4618  1.8117
   19MOL   H189 7065   7.238   7.048   6.472 -0.0535  2.2209 -0.1676
   19MOL   H190 7066   7.012   6.855   6.157  0.5036 -0.7727 -0.0701
   19MOL   H191 7067   7.127   6.989   6.179  0.7434 -0.4076  0.7342
   19MOL   C192 7068   7.172   6.875   6.013 -0.4530  0.2432 -0.0029
   19MOL   C193 7069   7.305   6.960   6.002 -0.2189 -0.5749  0.1607
   19MOL   C194 7070   7.287   7.105   5.961  0.1827  0.0421 -0.4718
   19MOL   C195 7071   7.379   7.136   5.848 -0.7128 -0.0525 -0.2169
   19MOL   C196 7072   7.473   7.017   5.834  0.1470  0.3440 -0.0598
   19MOL   C197 7073   7.390   6.898   5.885  0.4286  0.0626 -0.4945
   19MOL   C198 7074   7.070   6.898   5.903  0.2569  0.0666 -0.2455
   19MOL   H199 7075   7.205   6.772   6.002 -0.9214 -0.0386  1.2596
   19MOL   H200 7076   7.360   6.955   6.096  0.6924 -0.4540 -0.3603
   19MOL   H201 7077   7.316   7.172   6.043 -1.7890 -3.1662  2.9936
   19MOL   H202 7078   7.188   7.126   5.923  0.5857  0.3263 -1.3755
   19MOL   H203 7079   7.305   7.138   5.768 -1.3558 -2.7888  0.2334
   19MOL   H204 7080   7.427   7.232   5.864  2.1878 -1.9876  3.4266
   19MOL   H205 7081   7.569   7.035   5.882 -0.6074  1.8446  0.9419
   19MOL   H206 7082   7.505   6.988   5.734  2.1526  2.3068 -0.0206
   19MOL   H207 7083   7.458   6.819   5.918 -0.6098 -1.1899 -1.3274
   19MOL   H208 7084   7.330   6.845   5.811  1.3152 -0.7134 -0.6614
   19MOL   H209 7085   7.041   7.003   5.902  0.5518  0.1514 -1.5661
   19MOL   H210 7086   7.120   6.884   5.807 -0.5173  0.7168 -0.7455
   19MOL   C211 7087   6.945   6.798   5.894 -0.8859 -0.5892 -1.1250
   19MOL   C212 7088   6.827   6.855   5.808  0.1618  0.1696 -0.4978
   19MOL   C213 7089   6.746   6.974   5.874  0.0682 -0.3261  0.3025
   19MOL   C214 7090   6.682   7.050   5.759 -0.0239  0.3739  0.2455
   19MOL   C215 7091   6.754   7.008   5.632  0.0637  0.4154  0.4418
   19MOL   C216 7092   6.867   6.918   5.676 -0.1166 -0.5761  0.8062
   19MOL   C217 7093   6.988   6.653   5.859 -0.1146 -0.0134 -0.4803
   19MOL   H218 7094   6.897   6.782   5.991  3.4875  2.3259  1.7065
   19MOL   H219 7095   6.754   6.778   5.783  0.1327  0.7531 -2.2644
   19MOL   H220 7096   6.680   6.943   5.955  0.7197  1.3633  1.5060
   19MOL   H221 7097   6.818   7.041   5.921  1.4944 -1.6826  0.0960
   19MOL   H222 7098   6.575   7.032   5.771  0.0499  1.2411  2.5485
   19MOL   H223 7099   6.692   7.159   5.767 -1.5296  0.5459 -0.0325
   19MOL   H224 7100   6.794   7.089   5.570  0.3076  1.2602  1.6963
   19MOL   H225 7101   6.685   6.959   5.564 -1.7343 -0.5149  2.8822
   19MOL   H226 7102   6.885   6.841   5.601  1.1624  0.1995  0.3023
   19MOL   H227 7103   6.950   6.988   5.688  1.2235 -1.8138 -0.9767
   19MOL   H228 7104   7.066   6.612   5.923 -0.6884  0.5906  0.6067
   19MOL   H229 7105   7.043   6.656   5.765  0.7580 -0.4398  0.0095
   19MOL   C230 7106   6.880   6.546   5.860 -0.4676 -0.1653 -0.4546
   19MOL   C231 7107   6.810   6.508   5.997 -0.0668  0.4307 -0.0433
   19MOL   C232 7108   6.900   6.501   6.125 -0.2442  0.6001 -0.1210
   19MOL   C233 7109   6.794   6.512   6.234  0.6138  0.1534  0.4212
   19MOL   C234 7110   6.678   6.614   6.191  0.5334 -0.1702  0.1324
   19MOL   C235 7111   6.687   6.594   6.038 -0.0108 -0.3677 -0.7306
   19MOL   C236 7112   6.909   6.425   5.765  0.2556 -0.7008 -0.5594
   19MOL   H237 7113   6.798   6.586   5.800 -2.0412 -0.5033  1.4003
   19MOL   H238 7114   6.772   6.406   5.986  4.3850 -1.3874  0.3093
   19MOL   H239 7115   6.969   6.417   6.135 -1.8825 -0.9833 -1.8744
   19MOL   H240 7116   6.964   6.589   6.134  0.0183  0.2770  1.3532
   19MOL   H241 7117   6.754   6.410   6.237  1.9862 -0.3622  1.3236
   19MOL   H242 7118   6.841   6.524   6.331  0.8158 -1.1486  0.4913
   19MOL   H243 7119   6.702   6.712   6.234 -0.1134 -0.1199  0.3826
   19MOL   H244 7120   6.579   6.598   6.233  1.2806 -2.2065  1.1884
   19MOL   H245 7121   6.700   6.693   5.994 -2.4545  1.1980  1.8810
   19MOL   H246 7122   6.596   6.545   6.006 -1.7933  2.5936 -0.3506
   19MOL   H247 7123   6.948   6.335   5.813  0.9822 -0.3970 -0.5668
   19MOL   H248 7124   6.990   6.448   5.695  0.2310 -0.4740 -0.5140
   19MOL   C249 7125   6.795   6.375   5.665 -0.6700 -0.5779 -0.9047
   19MOL   C250 7126   6.805   6.229   5.620  0.4014  0.5075  0.3160
   19MOL   C251 7127   6.765   6.112   5.712 -0.0902 -0.0088 -1.2086
   19MOL   C252 7128   6.808   5.978   5.644  0.0601 -0.5298 -0.5629
   19MOL   C253 7129   6.922   6.015   5.549 -0.1136 -0.3872 -0.0480
   19MOL   C254 7130   6.933   6.165   5.557  0.3837  0.0159  0.5655
   19MOL   C255 7131   6.793   6.479   5.543 -0.1385  0.1792  0.7218
   19MOL   H256 7132   6.699   6.377   5.715  1.7966  0.3435  4.1308
   19MOL   H257 7133   6.733   6.223   5.538 -0.2865  0.0443  0.9376
   19MOL   H258 7134   6.657   6.110   5.719  0.0779 -0.7082  2.4134
   19MOL   H259 7135   6.801   6.133   5.814  1.4116  2.9370 -2.2724
   19MOL   H260 7136   6.722   5.932   5.595 -0.7010 -0.7751  0.9848
   19MOL   H261 7137   6.836   5.900   5.715 -1.5389  0.0035  0.6860
   19MOL   H262 7138   6.898   5.973   5.451  3.0786  1.4742 -1.7160
   19MOL   H263 7139   7.015   5.976   5.589 -0.1714 -0.8269 -0.3373
   19MOL   H264 7140   6.954   6.221   5.466 -0.8459 -1.0248 -0.3837
   19MOL   H265 7141   7.011   6.190   5.629  0.0919  1.3976  0.4200
   19MOL   H266 7142   6.823   6.583   5.560  1.1784 -0.1036  0.2496
   19MOL   H267 7143   6.861   6.444   5.465  0.0052  0.1446  0.8620
   19MOL   C268 7144   6.649   6.493   5.483  0.3341 -0.4130 -0.1660
   19MOL   C269 7145   6.654   6.501   5.328  0.6593  0.4010 -0.1941
   19MOL   C270 7146   6.700   6.383   5.249  0.4491 -0.9233 -0.9636
   19MOL   C271 7147   6.765   6.440   5.119  0.0756  0.0112  0.3968
   19MOL   C272 7148   6.742   6.587   5.129  0.6547 -0.2089  0.1008
   19MOL   C273 7149   6.728   6.620   5.274 -0.2113  0.1436 -0.0713
   19MOL   C274 7150   6.563   6.604   5.546  0.6519  0.0393 -0.0600
   19MOL   H275 7151   6.591   6.405   5.510 -0.7957  0.2208 -0.4777
   19MOL   H276 7152   6.549   6.522   5.305 -0.0738 -2.0880  0.7554
   19MOL   H277 7153   6.774   6.317   5.295 -0.9050 -1.6201  0.2394
   19MOL   H278 7154   6.611   6.324   5.230  1.5099 -3.2130  0.8213
   19MOL   H279 7155   6.870   6.415   5.128 -0.1791 -1.0095  0.5201
   19MOL   H280 7156   6.722   6.403   5.026 -1.1365 -0.1625  1.0140
   19MOL   H281 7157   6.642   6.594   5.085  1.8891 -1.4541 -3.0550
   19MOL   H282 7158   6.800   6.646   5.058 -0.7894 -0.9551 -1.7448
   19MOL   H283 7159   6.678   6.713   5.301 -0.9440 -0.4059  0.4829
   19MOL   H284 7160   6.820   6.633   5.332 -0.1187 -0.0361 -0.1823
   19MOL   H285 7161   6.607   6.701   5.521  0.2567  0.0776 -0.6315
   19MOL   H286 7162   6.579   6.604   5.653 -1.0609 -1.3847  0.2187
   19MOL   C287 7163   6.409   6.598   5.521 -0.5898 -0.1130  0.0548
   19MOL   C288 7164   6.334   6.546   5.647 -0.3822 -0.0461  0.2792
   19MOL   C289 7165   6.179   6.552   5.657  0.0792  0.3347 -0.1232
   19MOL   C290 7166   6.138   6.451   5.765  1.2359 -0.8875  0.4550
   19MOL   C291 7167   6.269   6.384   5.811 -0.3630 -0.8589  0.0281
   19MOL   C292 7168   6.367   6.409   5.694 -1.1110  0.3672 -0.1154
   19MOL   C293 7169   6.359   6.729   5.464  0.0769 -0.2810 -0.2024
   19MOL   H294 7170   6.386   6.516   5.453 -0.2776 -0.5202  0.4358
   19MOL   H295 7171   6.368   6.616   5.724  0.3886  1.5019 -1.4304
   19MOL   H296 7172   6.141   6.653   5.673  0.0778 -0.0650  2.5185
   19MOL   H297 7173   6.145   6.523   5.558  0.0397  0.3716 -0.1206
   19MOL   H298 7174   6.088   6.505   5.846 -0.2840  0.9548 -1.6657
   19MOL   H299 7175   6.067   6.377   5.729 -0.3503  1.7001 -1.9429
   19MOL   H300 7176   6.262   6.281   5.846  0.5308 -1.0759 -0.4092
   19MOL   H301 7177   6.292   6.440   5.902 -2.0875 -1.3032  0.7548
   19MOL   H302 7178   6.353   6.330   5.621  0.3995  0.5764 -0.6509
   19MOL   H303 7179   6.471   6.402   5.726 -1.6210  0.5247  1.6536
   19MOL   H304 7180   6.395   6.810   5.526  0.9347 -2.3077  2.0183
   19MOL   H305 7181   6.255   6.744   5.493  0.0846 -2.8844  1.3885
   19MOL   C306 7182   6.374   6.769   5.318  0.5779  0.0252  0.9949
   19MOL   C307 7183   6.255   6.708   5.227 -0.5114  0.2564 -0.1680
   19MOL   C308 7184   6.251   6.556   5.212 -0.0252  0.5049 -0.0415
   19MOL   C309 7185   6.110   6.506   5.235  0.3556  0.5839  0.1500
   19MOL   C310 7186   6.029   6.626   5.284  0.2410  0.8400 -0.6072
   19MOL   C311 7187   6.109   6.753   5.258 -0.0096  0.3288 -0.2998
   19MOL   C312 7188   6.370   6.928   5.302  0.2711 -0.4923 -0.0270
   19MOL   H313 7189   6.469   6.736   5.276  0.0891 -1.4057  0.9844
   19MOL   H314 7190   6.276   6.746   5.126 -3.0830 -0.4361 -1.0033
   19MOL   H315 7191   6.341   6.512   5.258  1.6091  1.8394 -1.8863
   19MOL   H316 7192   6.268   6.541   5.106  2.1417 -2.2817  0.6211
   19MOL   H317 7193   6.062   6.470   5.144 -1.8251 -0.1608  1.5484
   19MOL   H318 7194   6.100   6.417   5.298  3.7109 -1.3611 -1.9443
   19MOL   H319 7195   6.015   6.627   5.392  1.1570 -2.3056 -0.4129
   19MOL   H320 7196   5.929   6.631   5.243 -0.5222  0.2320  1.1284
   19MOL   H321 7197   6.068   6.809   5.174  0.0926  0.2015 -0.4353
   19MOL   H322 7198   6.097   6.830   5.334  1.3388  0.4316 -0.1683
   19MOL   H323 7199   6.462   6.967   5.347  0.5955 -1.5561  0.2591
   19MOL   H324 7200   6.290   6.965   5.366 -0.1616 -1.0086 -0.2662
   19MOL   C325 7201   6.338   7.002   5.161 -0.0987  0.3210  0.3117
   19MOL   C326 7202   6.449   6.970   5.059  0.3967 -0.6217 -0.0149
   19MOL   C327 7203   6.589   7.033   5.087  0.2469  0.3906  0.5026
   19MOL   C328 7204   6.667   7.023   4.958 -0.1682  0.5858  0.3263
   19MOL   C329 7205   6.550   7.039   4.855  0.0779  0.2357  0.2644
   19MOL   C330 7206   6.412   7.001   4.911 -0.3861 -0.3156  0.0344
   19MOL   C331 7207   6.320   7.154   5.190 -0.0263  0.1303 -0.4616
   19MOL   H332 7208   6.246   6.962   5.118 -0.8351 -0.6827  2.6978
   19MOL   H333 7209   6.473   6.863   5.063 -1.8876 -1.1518  0.2472
   19MOL   H334 7210   6.634   6.984   5.174  0.1361 -2.1316 -0.8206
   19MOL   H335 7211   6.591   7.140   5.111 -0.7420  0.1122  1.8932
   19MOL   H336 7212   6.715   6.926   4.948 -0.0753  0.4034  2.3591
   19MOL   H337 7213   6.752   7.092   4.954  0.5789 -0.4348 -1.7508
   19MOL   H338 7214   6.577   6.979   4.767  1.1686  0.6225  0.3199
   19MOL   H339 7215   6.537   7.140   4.818  0.8075  0.0019 -0.6554
   19MOL   H340 7216   6.370   6.911   4.867  0.6968 -1.0548  0.4962
   19MOL   H341 7217   6.342   7.083   4.896 -0.1378  0.2812  1.9256
   19MOL   H342 7218   6.334   7.207   5.097  1.5922 -1.2974 -1.0501
   19MOL   H343 7219   6.403   7.187   5.252 -0.5499  1.3259 -0.3996
   19MOL   C344 7220   6.176   7.189   5.259 -0.6241 -0.2837  0.5862
   19MOL   C345 7221   6.072   7.240   5.151 -0.3641  0.6394  0.1672
   19MOL   C346 7222   5.933   7.253   5.213  0.2891 -0.3721 -0.1331
   19MOL   C347 7223   5.829   7.191   5.118  0.4621  0.1256 -0.0454
   19MOL   C348 7224   5.912   7.098   5.037  0.1528 -0.3293  0.6594
   19MOL   C349 7225   6.045   7.164   5.024 -0.6317 -0.3470  0.5360
   19MOL   C350 7226   6.192   7.282   5.379  0.4098 -0.1843  0.0285
   19MOL   H351 7227   6.132   7.095   5.289 -0.6585 -1.8316 -3.8834
   19MOL   H352 7228   6.114   7.338   5.127  0.1576 -0.1776 -2.3702
   19MOL   H353 7229   5.911   7.356   5.238 -0.2165 -0.9605  1.9466
   19MOL   H354 7230   5.939   7.196   5.306  1.8313  2.5828  1.6327
   19MOL   H355 7231   5.755   7.129   5.168 -1.2465  0.9015 -1.5803
   19MOL   H356 7232   5.785   7.262   5.048 -1.4233  0.8574  1.8260
   19MOL   H357 7233   5.868   7.060   4.944  0.3561 -1.3559  0.9774
   19MOL   H358 7234   5.929   7.016   5.106 -0.2125 -0.1658  0.9430
   19MOL   H359 7235   6.130   7.099   5.003 -1.0304 -0.2489 -1.5166
   19MOL   H360 7236   6.042   7.246   4.953  1.3600  1.2458  2.2228
   19MOL   H361 7237   6.099   7.333   5.403  1.6271  2.2315 -0.1803
   19MOL   H362 7238   6.246   7.370   5.343 -3.2947  1.5965 -1.4653
   19MOL   C363 7239   6.255   7.225   5.506 -0.3473 -0.4733 -0.7409
   19MOL   C364 7240   6.296   7.345   5.602 -0.5985 -0.3532  0.4334
   19MOL   C365 7241   6.411   7.432   5.544 -0.0736  0.1043  0.5169
   19MOL   C366 7242   6.497   7.487   5.662 -0.3065 -0.0398 -0.6267
   19MOL   C367 7243   6.456   7.414   5.785 -0.5635 -0.4988 -0.1316
   19MOL   C368 7244   6.365   7.298   5.733 -0.4983 -0.4709  0.1497
   19MOL   C369 7245   6.165   7.133   5.578 -0.0956 -0.6131 -0.2506
   19MOL   H370 7246   6.342   7.171   5.469 -0.2935  0.3648 -1.8328
   19MOL   H371 7247   6.217   7.418   5.621 -1.2551 -0.9814  0.1451
   19MOL   H372 7248   6.479   7.369   5.486 -0.3941  0.0458  0.2025
   19MOL   H373 7249   6.373   7.518   5.490  2.7150  0.5425 -0.8502
   19MOL   H374 7250   6.603   7.480   5.637 -0.1721  1.1880 -0.3897
   19MOL   H375 7251   6.469   7.591   5.674 -3.2605 -0.9562  0.8304
   19MOL   H376 7252   6.549   7.383   5.832 -2.3116 -1.9900  2.4830
   19MOL   H377 7253   6.407   7.478   5.859 -0.1740  0.3387 -0.6012
   19MOL   H378 7254   6.296   7.275   5.815  0.3951 -1.7904  0.5596
   19MOL   H379 7255   6.423   7.210   5.704 -1.1811  0.4006 -4.1725
   19MOL   H380 7256   6.070   7.187   5.579  0.4728  0.3875  0.0301
   19MOL   H381 7257   6.192   7.110   5.681 -2.2566  2.0128  0.9344
   19MOL   H382 7258   6.134   7.046   5.520 -0.8067 -0.0167 -0.7731
   20MOL     C1 7259   5.384   7.093   4.872  0.3681  0.2096  0.4111
   20MOL     C2 7260   5.459   6.963   4.831  0.3194  0.5399  0.3770
   20MOL     C3 7261   5.526   6.974   4.692  0.7706  0.0145  0.5130
   20MOL     C4 7262   5.491   6.851   4.613  1.0430  0.2733 -0.5109
   20MOL     C5 7263   5.442   6.753   4.718  0.2371  0.3411  0.3260
   20MOL     C6 7264   5.371   6.840   4.821  0.8489 -0.0697  0.2336
   20MOL     C7 7265   5.478   7.211   4.916 -0.5959 -0.1644 -0.1710
   20MOL     H8 7266   5.302   7.115   4.804 -0.0395 -1.7273  0.2493
   20MOL     H9 7267   5.533   6.931   4.904 -0.6963 -0.9896  0.7812
   20MOL    H10 7268   5.483   7.062   4.642 -1.3921 -1.2251  0.1359
   20MOL    H11 7269   5.633   6.987   4.705  0.6351 -0.0717  1.7634
   20MOL    H12 7270   5.415   6.866   4.537 -1.0166  0.2865  1.4719
   20MOL    H13 7271   5.577   6.809   4.561  1.8339 -2.4437  2.7579
   20MOL    H14 7272   5.382   6.678   4.667  3.1283 -0.3486 -2.1719
   20MOL    H15 7273   5.527   6.701   4.760  1.4114  0.5687 -1.7206
   20MOL    H16 7274   5.354   6.802   4.922  0.9830  0.4602  0.4613
   20MOL    H17 7275   5.275   6.873   4.781  0.7547  1.0191  1.3118
   20MOL    H18 7276   5.519   7.183   5.013  0.6121 -1.7178 -1.0946
   20MOL    H19 7277   5.554   7.231   4.840  1.3237 -0.1257  1.7125
   20MOL    H20 7278   5.331   7.057   4.960 -0.0085  1.8027  0.8523
   20MOL    C21 7279   5.401   7.337   4.941 -0.4715 -0.3078 -0.0947
   20MOL    C22 7280   5.327   7.385   4.814 -0.7427  0.1190  0.2735
   20MOL    C23 7281   5.411   7.393   4.687  0.3862  0.5773  0.0306
   20MOL    C24 7282   5.363   7.509   4.600 -0.0758 -0.4374  0.0783
   20MOL    C25 7283   5.251   7.579   4.688  0.7101  0.4593  0.2125
   20MOL    C26 7284   5.287   7.534   4.835 -0.1195  0.3685  0.4741
   20MOL    C27 7285   5.299   7.319   5.061  0.7468 -0.6841  0.0336
   20MOL    H28 7286   5.481   7.406   4.968 -0.2696 -1.2686  1.8980
   20MOL    H29 7287   5.237   7.328   4.790 -0.9136  0.0250  1.1394
   20MOL    H30 7288   5.407   7.299   4.631  1.6333  0.1577  0.6456
   20MOL    H31 7289   5.517   7.413   4.702  0.4543  0.1368  0.1454
   20MOL    H32 7290   5.443   7.579   4.579  0.6567 -1.7227 -1.5435
   20MOL    H33 7291   5.323   7.482   4.502  0.6942  0.3652 -0.4642
   20MOL    H34 7292   5.150   7.548   4.661 -1.6253  3.8311  4.4181
   20MOL    H35 7293   5.258   7.686   4.673  3.6138  0.2935  0.1878
   20MOL    H36 7294   5.206   7.548   4.908  1.2764 -0.7948  2.2920
   20MOL    H37 7295   5.372   7.593   4.868 -0.1677  0.3786  0.5804
   20MOL    H38 7296   5.194   7.340   5.039 -0.3552 -1.9418  3.6488
   20MOL    H39 7297   5.304   7.216   5.096  1.3456 -0.7746 -0.3077
   20MOL    C40 7298   5.331   7.412   5.183 -0.2764 -0.3952 -0.0249
   20MOL    C41 7299   5.201   7.425   5.276 -0.3129 -0.5074 -0.2708
   20MOL    C42 7300   5.135   7.298   5.322 -0.2646 -0.2579 -0.1141
   20MOL    C43 7301   4.993   7.331   5.360  0.1303 -0.1871  0.3570
   20MOL    C44 7302   4.956   7.464   5.297  0.1949 -0.0953  0.3376
   20MOL    C45 7303   5.088   7.514   5.233 -0.4200 -0.2546  0.1311
   20MOL    C46 7304   5.466   7.376   5.248 -0.2696 -0.3361  0.1293
   20MOL    H47 7305   5.340   7.511   5.139 -2.8014 -0.7045 -1.3110
   20MOL    H48 7306   5.232   7.484   5.362  1.7130  0.0131 -1.3338
   20MOL    H49 7307   5.185   7.240   5.400 -0.8344  0.1588  0.5645
   20MOL    H50 7308   5.119   7.244   5.229 -1.1164  0.3020 -0.2870
   20MOL    H51 7309   4.986   7.341   5.468 -1.9899 -0.6893  0.2912
   20MOL    H52 7310   4.913   7.263   5.332 -0.3452 -0.2196  1.7449
   20MOL    H53 7311   4.873   7.462   5.227  0.6548  1.3064 -0.2793
   20MOL    H54 7312   4.929   7.535   5.375  2.9236  1.2894  0.1064
   20MOL    H55 7313   5.070   7.493   5.127  0.9033 -0.5218 -0.0470
   20MOL    H56 7314   5.106   7.621   5.232  2.7066 -0.7183 -3.2432
   20MOL    H57 7315   5.457   7.273   5.284  1.8924  0.5971  3.6434
   20MOL    H58 7316   5.546   7.386   5.175  0.7847 -0.8938  1.1954
   20MOL    C59 7317   5.509   7.464   5.367  0.3987 -0.1665  0.2492
   20MOL    C60 7318   5.625   7.403   5.447 -0.1705  0.3782  0.3885
   20MOL    C61 7319   5.613   7.258   5.481 -0.0852 -0.1405 -0.2112
   20MOL    C62 7320   5.684   7.244   5.621 -0.6379  0.3078  0.2539
   20MOL    C63 7321   5.734   7.381   5.668 -0.1346  0.0404 -0.4187
   20MOL    C64 7322   5.651   7.477   5.579 -0.6122  0.4807 -0.5222
   20MOL    C65 7323   5.550   7.610   5.329 -0.8718  0.1401  0.4456
   20MOL    H66 7324   5.428   7.447   5.438  0.7123  1.4737  1.0278
   20MOL    H67 7325   5.712   7.427   5.386 -1.9746  1.6977 -1.7435
   20MOL    H68 7326   5.641   7.185   5.405 -0.3535 -0.1339 -0.3153
   20MOL    H69 7327   5.508   7.240   5.506 -1.2092  0.3502 -4.2841
   20MOL    H70 7328   5.769   7.176   5.614 -0.5430  0.3243  1.2148
   20MOL    H71 7329   5.619   7.205   5.700 -0.4389 -0.3971  0.0748
   20MOL    H72 7330   5.843   7.387   5.662 -0.1473 -0.4906 -1.2172
   20MOL    H73 7331   5.708   7.406   5.771 -1.1650 -2.0922 -0.1342
   20MOL    H74 7332   5.560   7.503   5.633 -0.3233 -0.2815  0.3379
   20MOL    H75 7333   5.705   7.571   5.583 -0.8646  0.5623  1.2372
   20MOL    H76 7334   5.612   7.597   5.240  0.1963  1.2557  1.0220
   20MOL    H77 7335   5.632   7.650   5.388 -0.1489 -2.4120  1.2717
   20MOL    C78 7336   5.434   0.031   5.325  0.6339  0.1452 -0.2715
   20MOL    C79 7337   5.377   0.061   5.471  0.1854 -1.1700 -0.5873
   20MOL    C80 7338   5.246   0.155   5.471  0.2366 -0.9059 -0.9416
   20MOL    C81 7339   5.253   0.228   5.604 -0.5844  0.0678  0.9988
   20MOL    C82 7340   5.403   0.225   5.654 -0.2750  0.2134  0.3360
   20MOL    C83 7341   5.478   0.134   5.557  0.0527 -0.4037  0.3454
   20MOL    C84 7342   5.485   0.153   5.251 -1.0781 -0.2756 -0.4146
   20MOL    H85 7343   5.346   7.688   5.269 -0.9504  1.6874  1.2664
   20MOL    H86 7344   5.333   7.663   5.520  0.7519 -0.1332  1.8366
   20MOL    H87 7345   5.157   0.094   5.452 -0.5263 -0.0590 -0.1490
   20MOL    H88 7346   5.231   0.228   5.392 -1.7564 -0.0525  0.1844
   20MOL    H89 7347   5.184   0.176   5.670 -1.5072  1.6947  1.3481
   20MOL    H90 7348   5.204   0.325   5.591  0.4210  0.3733 -0.6044
   20MOL    H91 7349   5.443   0.325   5.667 -0.9475  0.5972 -0.4103
   20MOL    H92 7350   5.394   0.183   5.754  0.9066  0.0076  0.3521
   20MOL    H93 7351   5.534   0.208   5.500  0.0298 -1.5743 -1.2004
   20MOL    H94 7352   5.549   0.069   5.609  0.0749 -0.6679 -0.0171
   20MOL    H95 7353   5.593   0.146   5.262 -1.1769  0.0684  0.8596
   20MOL    H96 7354   5.458   0.249   5.295 -0.8697 -0.0817 -0.7103
   20MOL    C97 7355   5.457   0.182   5.095 -0.4150 -0.2165  0.1552
   20MOL    C98 7356   5.314   0.197   5.037 -0.2090 -0.1779 -0.4378
   20MOL    C99 7357   5.213   0.286   5.122  0.2565  0.0427 -0.0830
   20MOL   C100 7358   5.126   0.361   5.020 -0.7295 -0.1788 -0.0494
   20MOL   C101 7359   5.177   0.306   4.887  0.3457 -0.4536  0.5113
   20MOL   C102 7360   5.315   0.265   4.897  0.6467  0.2844 -0.9717
   20MOL   C103 7361   5.548   0.095   5.000 -0.0456  0.1966 -0.2837
   20MOL   H104 7362   5.497   0.283   5.082  2.1182 -0.9635  1.8180
   20MOL   H105 7363   5.270   0.097   5.043 -0.4557  0.0288  1.7960
   20MOL   H106 7364   5.149   0.230   5.190  1.8268 -2.1111 -0.3327
   20MOL   H107 7365   5.269   0.349   5.191 -0.9929 -0.8178  1.7598
   20MOL   H108 7366   5.157   0.466   5.017 -2.2187  0.2380 -1.9921
   20MOL   H109 7367   5.019   0.363   5.042 -0.8702 -1.3094 -0.5711
   20MOL   H110 7368   5.171   0.380   4.807 -0.8330 -0.1777  0.8333
   20MOL   H111 7369   5.126   0.215   4.854  0.2190 -1.3457  3.0942
   20MOL   H112 7370   5.333   0.188   4.822 -0.0349  0.8102 -1.6831
   20MOL   H113 7371   5.384   0.348   4.879  1.6094 -0.6109 -1.4439
   20MOL   H114 7372   5.536   7.687   5.047  3.7129 -0.9313 -1.4752
   20MOL   H115 7373   5.508   0.084   4.899 -2.7741 -1.4816  0.9066
   20MOL   C116 7374   5.699   0.125   4.993 -0.2260 -0.6734  0.0500
   20MOL   C117 7375   5.771   0.015   4.923 -0.0936 -0.1006  0.5159
   20MOL   C118 7376   5.784   7.571   4.997  0.2240 -0.1250  0.2656
   20MOL   C119 7377   5.817   7.460   4.892  0.3400 -0.8046 -0.7119
   20MOL   C120 7378   5.819   7.534   4.756 -0.4892 -0.7496  0.0879
   20MOL   C121 7379   5.738   7.664   4.777 -0.2336 -0.1973 -0.1202
   20MOL   C122 7380   5.732   0.266   4.934 -0.0440 -0.0993 -0.3217
   20MOL   H123 7381   5.742   0.117   5.093 -1.1338 -0.3374  0.4755
   20MOL   H124 7382   5.876   0.043   4.909 -0.5151  1.2663  0.0529
   20MOL   H125 7383   5.850   7.561   5.083  0.2149 -1.7317  0.1010
   20MOL   H126 7384   5.682   7.545   5.024  0.5176 -0.7232  0.8159
   20MOL   H127 7385   5.731   7.393   4.888  0.4678 -0.9981 -0.2431
   20MOL   H128 7386   5.909   7.410   4.922  0.8642  1.2850  1.3826
   20MOL   H129 7387   5.782   7.473   4.673 -1.3694  1.4476 -1.1836
   20MOL   H130 7388   5.921   7.557   4.724 -0.4033 -0.1507  0.7947
   20MOL   H131 7389   5.767   0.044   4.698 -0.1964 -0.6352 -0.5018
   20MOL   H132 7390   5.632   7.640   4.768 -0.3564  1.0146 -2.2547
   20MOL   H133 7391   5.649   0.336   4.948 -1.4351 -1.6466 -0.6043
   20MOL   H134 7392   5.716   0.246   4.828 -1.8964  1.3212 -0.3553
   20MOL   C135 7393   5.872   0.321   4.966  0.2992  0.2367  0.3565
   20MOL   C136 7394   5.871   0.431   5.082  0.2456 -0.4430  0.1465
   20MOL   C137 7395   5.834   0.377   5.224  0.2444 -1.0934 -0.7191
   20MOL   C138 7396   5.767   0.501   5.278 -0.6035  0.7384  0.4666
   20MOL   C139 7397   5.684   0.559   5.166  0.5026 -0.2924  0.6041
   20MOL   C140 7398   5.777   0.549   5.046  0.2801  0.7664 -0.0389
   20MOL   C141 7399   5.940   0.381   4.836 -0.1998  0.9166  0.1475
   20MOL   H142 7400   5.944   0.247   5.001  1.1665  1.4310  1.1875
   20MOL   H143 7401   5.965   0.487   5.084 -1.0680  1.8258 -0.5851
   20MOL   H144 7402   5.755   0.302   5.218 -0.0243 -0.9529  0.8303
   20MOL   H145 7403   5.925   0.339   5.271  1.0361  2.6863  1.0120
   20MOL   H146 7404   5.826   0.575   5.331 -0.8195  0.6137  0.8780
   20MOL   H147 7405   5.694   0.458   5.345  1.5353 -1.2007  1.6078
   20MOL   H148 7406   5.656   0.664   5.171  0.4048 -0.1928 -1.4561
   20MOL   H149 7407   5.596   0.495   5.155  2.3228 -3.2735  2.6073
   20MOL   H150 7408   5.725   0.528   4.952  1.7694  1.5324 -1.0426
   20MOL   H151 7409   5.821   0.648   5.032  2.8995 -0.4036 -0.4341
   20MOL   H152 7410   5.875   0.453   4.788  0.0930 -0.4647 -2.4027
   20MOL   H153 7411   5.929   0.304   4.760 -1.2489  0.6577  0.5535
   20MOL   C154 7412   6.092   0.417   4.838 -0.0203 -0.4041 -0.6154
   20MOL   C155 7413   6.182   0.336   4.740 -0.4952 -0.1755 -0.1198
   20MOL   C156 7414   6.143   0.362   4.591 -0.3526 -0.5680  0.7532
   20MOL   C157 7415   6.096   0.232   4.529  0.0708  0.7859 -1.0326
   20MOL   C158 7416   6.165   0.126   4.607 -0.0966  0.2251 -0.5484
   20MOL   C159 7417   6.171   0.179   4.748  0.1212 -0.8031  0.5367
   20MOL   C160 7418   6.113   0.574   4.841 -0.1946 -0.6237  0.2304
   20MOL   H161 7419   6.130   0.378   4.933 -0.1757  1.6472  0.3170
   20MOL   H162 7420   6.287   0.361   4.751 -0.3927 -0.9915  0.7805
   20MOL   H163 7421   6.068   0.441   4.591  0.6791  0.4264  0.5529
   20MOL   H164 7422   6.234   0.392   4.538  0.6410 -3.1762  0.9111
   20MOL   H165 7423   5.992   0.231   4.562 -0.0756 -0.1935 -1.4923
   20MOL   H166 7424   6.107   0.223   4.421 -0.5609 -0.8961 -0.9687
   20MOL   H167 7425   6.265   0.100   4.572 -0.6566 -2.8291 -0.0128
   20MOL   H168 7426   6.112   0.031   4.613 -1.7038  1.2630  2.9200
   20MOL   H169 7427   6.260   0.132   4.789  2.2575  0.7872 -2.0774
   20MOL   H170 7428   6.091   0.138   4.810  1.2711 -2.5863  0.8841
   20MOL   H171 7429   6.117   0.603   4.946 -1.5889  2.6213 -0.5629
   20MOL   H172 7430   6.028   0.622   4.793  0.1451  0.2240  0.4566
   20MOL   C173 7431   6.244   0.633   4.773 -0.3487  0.3534  0.3361
   20MOL   C174 7432   6.359   0.663   4.876  0.6094 -0.3397 -0.4199
   20MOL   C175 7433   6.488   0.706   4.811 -0.5815  0.0743 -0.7757
   20MOL   C176 7434   6.602   0.670   4.909  0.4234 -0.2938  0.5006
   20MOL   C177 7435   6.539   0.583   5.016  0.6618  0.6586  0.3643
   20MOL   C178 7436   6.404   0.545   4.952  0.3502  0.1962 -0.4275
   20MOL   C179 7437   6.201   0.764   4.707 -0.2092 -0.3592 -0.2669
   20MOL   H180 7438   6.276   0.576   4.686  0.9523  0.1871  0.9193
   20MOL   H181 7439   6.327   0.743   4.943  0.1833 -0.0724 -0.9357
   20MOL   H182 7440   6.491   0.813   4.790  0.4808  0.2912  0.4104
   20MOL   H183 7441   6.510   0.650   4.720 -0.3174 -0.2275 -0.5282
   20MOL   H184 7442   6.673   0.601   4.862  0.3228  0.8062 -1.3122
   20MOL   H185 7443   6.666   0.753   4.938 -0.0658  1.0020 -1.9939
   20MOL   H186 7444   6.520   0.654   5.097  2.1969  1.3611  0.1238
   20MOL   H187 7445   6.600   0.505   5.061 -0.8293 -0.1114  1.0900
   20MOL   H188 7446   6.417   0.465   4.879  2.3251 -0.1880  0.3091
   20MOL   H189 7447   6.330   0.515   5.027  0.6728 -1.3366 -0.7110
   20MOL   H190 7448   6.149   0.829   4.777  0.3277 -1.5244  1.2463
   20MOL   H191 7449   6.292   0.822   4.691 -0.8195  0.4879 -0.7540
   20MOL   C192 7450   6.126   0.754   4.573  0.3578  0.7054  0.5563
   20MOL   C193 7451   6.227   0.721   4.451 -0.2023  0.2988  0.4645
   20MOL   C194 7452   6.304   0.835   4.395 -0.1718  0.7784  1.3234
   20MOL   C195 7453   6.342   0.803   4.250  0.3545 -0.6559  0.5279
   20MOL   C196 7454   6.223   0.719   4.199 -0.0831 -0.4405  0.6945
   20MOL   C197 7455   6.152   0.666   4.323  0.6408 -0.3291  0.0858
   20MOL   C198 7456   6.033   0.872   4.552 -0.1337 -0.1608  0.3013
   20MOL   H199 7457   6.051   0.675   4.578 -1.6701  2.5187 -0.2076
   20MOL   H200 7458   6.292   0.644   4.494 -0.6383  0.8698  2.1971
   20MOL   H201 7459   6.402   0.848   4.442  1.3402  0.5258 -1.6341
   20MOL   H202 7460   6.241   0.924   4.401 -1.3524  0.2827 -2.6208
   20MOL   H203 7461   6.367   0.886   4.185 -2.9355  1.9343  2.3717
   20MOL   H204 7462   6.430   0.740   4.262  0.3156 -1.5189 -3.2029
   20MOL   H205 7463   6.258   0.630   4.148  3.0487 -0.0934  2.0897
   20MOL   H206 7464   6.154   0.772   4.134  2.0290  1.2585 -0.2511
   20MOL   H207 7465   6.155   0.557   4.325  0.0822 -0.3491 -0.2205
   20MOL   H208 7466   6.045   0.682   4.333  0.6238  0.0506 -0.7078
   20MOL   H209 7467   6.082   0.967   4.575 -0.5931 -0.2179  1.5319
   20MOL   H210 7468   6.017   0.888   4.445  1.2061  1.8845  0.3795
   20MOL   C211 7469   5.886   0.870   4.609 -0.1942 -0.0315  0.1642
   20MOL   C212 7470   5.881   0.908   4.757 -0.6668 -0.0515  0.3868
   20MOL   C213 7471   5.911   1.058   4.802  0.0751  0.4902 -0.2427
   20MOL   C214 7472   5.839   1.080   4.942 -0.1441 -0.3624  0.1563
   20MOL   C215 7473   5.755   0.956   4.970  0.6695  0.7653 -0.4593
   20MOL   C216 7474   5.745   0.878   4.832  0.1684  0.4850 -0.2743
   20MOL   C217 7475   5.786   0.952   4.525 -0.1833  0.1084  0.0974
   20MOL   H218 7476   5.857   0.766   4.596  1.5603 -0.5965  0.6320
   20MOL   H219 7477   5.955   0.851   4.812  0.5463  0.0682 -1.0831
   20MOL   H220 7478   6.018   1.078   4.801  0.2205 -0.2858 -0.0919
   20MOL   H221 7479   5.874   1.137   4.736 -0.1876  1.5702  1.1680
   20MOL   H222 7480   5.918   1.094   5.016 -1.6088 -1.6442  2.0115
   20MOL   H223 7481   5.778   1.170   4.941  0.7266  0.2819 -4.0151
   20MOL   H224 7482   5.655   0.977   5.008  0.5840  1.5158 -1.0912
   20MOL   H225 7483   5.800   0.880   5.035  1.9463  0.0133 -2.1819
   20MOL   H226 7484   5.737   0.772   4.853 -2.0268  0.3743 -1.5379
   20MOL   H227 7485   5.651   0.906   4.783  0.1777  2.7292  0.9166
   20MOL   H228 7486   5.829   1.051   4.516 -1.4747  0.5403 -1.6532
   20MOL   H229 7487   5.693   0.969   4.579 -0.3961 -3.7829  1.1200
   20MOL   C230 7488   5.754   0.876   4.390  0.1363  0.7605  0.7953
   20MOL   C231 7489   5.746   0.978   4.268 -1.0360  0.2367 -0.0612
   20MOL   C232 7490   5.866   1.080   4.254 -0.9054  0.2895  0.8697
   20MOL   C233 7491   5.905   1.097   4.103  0.3770 -0.4702  0.2993
   20MOL   C234 7492   5.780   1.035   4.041 -0.4223  0.2293 -0.0835
   20MOL   C235 7493   5.734   0.924   4.129 -0.5228 -0.3606 -0.0035
   20MOL   C236 7494   5.621   0.788   4.396  0.7499 -0.6213 -0.0052
   20MOL   H237 7495   5.837   0.814   4.355  0.0331 -0.6266  2.8781
   20MOL   H238 7496   5.653   1.029   4.289 -1.0517  1.3053 -2.6221
   20MOL   H239 7497   5.844   1.176   4.302 -0.3891  1.6534 -1.5063
   20MOL   H240 7498   5.953   1.045   4.310 -0.4094  0.3152  0.1314
   20MOL   H241 7499   5.921   1.199   4.069  3.0730 -0.9733 -0.0407
   20MOL   H242 7500   5.993   1.041   4.071  2.3392  2.5938  0.1650
   20MOL   H243 7501   5.785   1.006   3.936 -0.6930  1.7098 -0.5254
   20MOL   H244 7502   5.701   1.111   4.043 -1.4017 -0.7675 -0.2173
   20MOL   H245 7503   5.795   0.835   4.114 -0.3357 -0.1025 -0.7906
   20MOL   H246 7504   5.631   0.895   4.111 -0.7255  1.6942 -2.4647
   20MOL   H247 7505   5.585   0.774   4.294 -1.9917  1.8162  0.5327
   20MOL   H248 7506   5.549   0.857   4.441  0.9986 -0.5653  0.3033
   20MOL   C249 7507   5.624   0.652   4.476 -0.6346 -1.4069  0.0716
   20MOL   C250 7508   5.721   0.555   4.399  0.5015  0.5484  0.9480
   20MOL   C251 7509   5.679   0.508   4.255 -0.4847 -0.4174  0.0224
   20MOL   C252 7510   5.751   0.371   4.227 -0.3241 -0.5067  0.3744
   20MOL   C253 7511   5.790   0.315   4.360 -0.2406  0.3255  0.4694
   20MOL   C254 7512   5.745   0.414   4.469 -0.4395  0.2653  0.4938
   20MOL   C255 7513   5.491   0.583   4.500  0.5055  0.1183 -0.4345
   20MOL   H256 7514   5.658   0.663   4.579  0.5593  1.0097 -0.5450
   20MOL   H257 7515   5.818   0.604   4.387  0.0448  1.9439  2.7902
   20MOL   H258 7516   5.715   0.571   4.173  1.8482 -1.1973  0.4328
   20MOL   H259 7517   5.573   0.493   4.234 -0.1203 -0.4370 -1.9797
   20MOL   H260 7518   5.836   0.388   4.161 -0.6691  1.1182  0.3114
   20MOL   H261 7519   5.688   0.304   4.169  1.9223 -1.4305 -1.0574
   20MOL   H262 7520   5.898   0.309   4.365 -0.1033  1.4066 -0.8000
   20MOL   H263 7521   5.755   0.214   4.379  2.8113 -0.0608  4.6930
   20MOL   H264 7522   5.820   0.413   4.548  0.8600  2.2935 -0.6827
   20MOL   H265 7523   5.652   0.372   4.506 -0.9244 -1.3984 -2.4250
   20MOL   H266 7524   5.469   0.538   4.403  2.4067 -0.0544 -0.7922
   20MOL   H267 7525   5.516   0.507   4.573  0.8875  0.1105 -0.5741
   20MOL   C268 7526   5.372   0.671   4.559 -0.0123 -0.4013  0.1632
   20MOL   C269 7527   5.404   0.737   4.694 -0.4546  0.4894 -0.8970
   20MOL   C270 7528   5.424   0.637   4.811  0.5728  0.8075  0.1193
   20MOL   C271 7529   5.408   0.724   4.944  0.5301  0.1705  0.2869
   20MOL   C272 7530   5.340   0.853   4.899 -0.7046 -0.2304 -0.2505
   20MOL   C273 7531   5.312   0.845   4.754  0.3599  0.0392 -0.1073
   20MOL   C274 7532   5.243   0.582   4.565  0.2263  0.7177  0.6566
   20MOL   H275 7533   5.347   0.743   4.481 -0.2964 -2.2620 -1.5010
   20MOL   H276 7534   5.503   0.783   4.688 -0.0239 -0.4381 -1.1113
   20MOL   H277 7535   5.342   0.565   4.812 -0.1848  1.6647  0.6936
   20MOL   H278 7536   5.519   0.582   4.808  1.0404  1.5981  0.2826
   20MOL   H279 7537   5.364   0.653   5.014  0.3978 -0.4004 -0.3664
   20MOL   H280 7538   5.498   0.748   5.000 -0.3702 -1.2603  2.4110
   20MOL   H281 7539   5.400   0.940   4.924  0.2498 -0.7691 -0.6658
   20MOL   H282 7540   5.246   0.870   4.952 -1.0009  1.8583 -1.4155
   20MOL   H283 7541   5.340   0.941   4.710  0.1667 -0.3187 -1.0342
   20MOL   H284 7542   5.209   0.814   4.735  1.1122 -1.3251 -2.0958
   20MOL   H285 7543   5.173   0.605   4.646  0.5812 -0.3899  1.2832
   20MOL   H286 7544   5.263   0.479   4.595 -1.1210  0.3959  0.5087
   20MOL   C287 7545   5.161   0.564   4.435 -0.0942  0.8782 -0.0243
   20MOL   C288 7546   5.067   0.436   4.443 -0.9962  0.5244  0.4259
   20MOL   C289 7547   5.129   0.292   4.460 -0.0276 -0.5604 -0.3066
   20MOL   C290 7548   5.011   0.206   4.500  0.2379  0.7134 -0.3259
   20MOL   C291 7549   4.927   0.294   4.596 -0.1567  0.0156 -0.7139
   20MOL   C292 7550   4.959   0.442   4.547  0.5090  0.3465  0.0514
   20MOL   C293 7551   5.089   0.699   4.406  0.7657  0.3803  0.2932
   20MOL   H294 7552   5.214   0.542   4.343 -2.2990 -3.3680 -0.4094
   20MOL   H295 7553   5.025   0.432   4.342  0.6623  1.3769 -0.3121
   20MOL   H296 7554   5.183   0.266   4.369  1.0520  2.5739 -0.6197
   20MOL   H297 7555   5.209   0.290   4.534 -0.2415  0.3065 -0.0484
   20MOL   H298 7556   4.945   0.173   4.419  1.2550  0.1712 -0.9387
   20MOL   H299 7557   5.043   0.114   4.548  1.2205  0.8489 -0.7286
   20MOL   H300 7558   4.958   0.288   4.701  0.1916 -1.4823 -0.8912
   20MOL   H301 7559   4.822   0.268   4.604 -0.4586  1.5968  0.9967
   20MOL   H302 7560   4.979   0.510   4.630 -1.4805 -1.7584  2.3413
   20MOL   H303 7561   4.861   0.480   4.519 -0.0345 -1.8548 -1.2199
   20MOL   H304 7562   5.161   0.769   4.362  1.5781  0.4012  1.6226
   20MOL   H305 7563   5.061   0.740   4.503 -0.4358  1.0992 -0.3480
   20MOL   C306 7564   4.981   0.698   4.291 -0.2138  0.7845 -0.0815
   20MOL   C307 7565   4.879   0.808   4.320 -0.1568  0.0681  0.1409
   20MOL   C308 7566   4.766   0.815   4.219 -0.5377 -0.2537  0.5912
   20MOL   C309 7567   4.644   0.891   4.286 -0.7967  0.2313 -0.0902
   20MOL   C310 7568   4.676   0.883   4.441 -0.0566  0.2367 -0.2676
   20MOL   C311 7569   4.805   0.791   4.452  0.6092 -0.3530  0.6553
   20MOL   C312 7570   5.045   0.712   4.149  0.0174  0.2262 -0.2392
   20MOL   H313 7571   4.916   0.611   4.299  0.6398 -0.1270 -2.7896
   20MOL   H314 7572   4.939   0.900   4.321 -0.3228  0.1954 -0.8697
   20MOL   H315 7573   4.729   0.716   4.195  0.9647 -0.6721 -0.0873
   20MOL   H316 7574   4.793   0.865   4.126 -1.4332 -2.7998 -1.0726
   20MOL   H317 7575   4.630   0.993   4.248  0.0071  0.8406  1.2249
   20MOL   H318 7576   4.554   0.833   4.267 -0.1516 -0.8922  0.2912
   20MOL   H319 7577   4.600   0.851   4.512  1.8036 -2.1002  0.7538
   20MOL   H320 7578   4.698   0.985   4.473 -0.3677  0.5373 -0.9975
   20MOL   H321 7579   4.859   0.823   4.541 -1.2219  1.4969  1.1148
   20MOL   H322 7580   4.774   0.686   4.455 -0.0816 -0.2174 -1.0077
   20MOL   H323 7581   5.140   0.763   4.162 -0.5657  1.0330  0.8692
   20MOL   H324 7582   4.991   0.776   4.080 -0.8381 -1.1050 -0.8413
   20MOL   C325 7583   5.060   0.580   4.075 -0.1075  0.1488 -0.2659
   20MOL   C326 7584   5.172   0.591   3.967  0.3127 -0.0669 -0.5320
   20MOL   C327 7585   5.319   0.574   4.024 -0.4195 -0.1458  0.1687
   20MOL   C328 7586   5.404   0.687   3.963  0.7085  0.2840  0.2990
   20MOL   C329 7587   5.326   0.739   3.839 -0.0490  0.2595 -0.0443
   20MOL   C330 7588   5.179   0.724   3.884 -0.3066  0.2421 -0.2760
   20MOL   C331 7589   4.921   0.539   4.013 -0.3706 -0.1864 -0.1343
   20MOL   H332 7590   5.101   0.507   4.146  1.7915  0.6606 -0.7982
   20MOL   H333 7591   5.176   0.520   3.884 -0.8642  0.3247 -0.9251
   20MOL   H334 7592   5.371   0.485   3.988  0.9357 -0.1143  1.9936
   20MOL   H335 7593   5.323   0.577   4.133 -3.2286  1.4701  0.2836
   20MOL   H336 7594   5.507   0.656   3.945  0.8808 -0.5430  2.6106
   20MOL   H337 7595   5.415   0.771   4.032 -1.7884  1.3689 -0.5635
   20MOL   H338 7596   5.362   0.668   3.764 -1.8621 -1.8807  1.0449
   20MOL   H339 7597   5.365   0.839   3.821  0.1328 -0.0154 -1.1858
   20MOL   H340 7598   5.114   0.728   3.797 -1.3388 -0.7398  0.4236
   20MOL   H341 7599   5.148   0.813   3.938 -2.1457  1.5908 -3.4082
   20MOL   H342 7600   4.893   0.633   3.965 -4.5080 -1.3913 -0.2442
   20MOL   H343 7601   4.852   0.516   4.094 -0.8036  0.6046 -0.2696
   20MOL   C344 7602   4.910   0.412   3.919  0.0628  0.0091 -0.3012
   20MOL   C345 7603   4.760   0.389   3.878  0.2981 -0.1740  0.2955
   20MOL   C346 7604   4.743   0.288   3.765  0.0507 -0.0435 -0.9596
   20MOL   C347 7605   4.599   0.309   3.709  0.7078 -0.2816  0.3718
   20MOL   C348 7606   4.581   0.462   3.715 -0.3936 -0.1660  0.1259
   20MOL   C349 7607   4.686   0.511   3.816  0.6480 -0.4262 -0.4797
   20MOL   C350 7608   4.972   0.290   3.987  0.7913 -0.2953  0.8932
   20MOL   H351 7609   4.965   0.438   3.828 -1.7605  0.5980 -1.2672
   20MOL   H352 7610   4.697   0.358   3.961 -1.7785  1.7996 -0.4796
   20MOL   H353 7611   4.757   0.186   3.800  0.5989  0.4785  0.3512
   20MOL   H354 7612   4.812   0.307   3.683  0.8914  0.2477 -0.1815
   20MOL   H355 7613   4.583   0.273   3.607  1.0011  1.9767 -0.5025
   20MOL   H356 7614   4.535   0.259   3.781 -1.0244  1.1555 -0.1172
   20MOL   H357 7615   4.477   0.490   3.732  0.0251  1.5776 -0.0827
   20MOL   H358 7616   4.604   0.491   3.612 -0.2725 -1.7640 -0.3060
   20MOL   H359 7617   4.757   0.574   3.761  0.8471 -1.4601 -1.4362
   20MOL   H360 7618   4.636   0.567   3.894  1.2359 -1.7058  0.8414
   20MOL   H361 7619   4.903   0.208   3.965  0.6608  0.2075 -0.6335
   20MOL   H362 7620   4.959   0.302   4.095 -1.1373 -1.1609  0.7731
   20MOL   C363 7621   5.118   0.246   3.949 -0.5541  0.4621  0.3731
   20MOL   C364 7622   5.166   0.153   4.059 -0.3793  0.0087  0.4467
   20MOL   C365 7623   5.311   0.108   4.043 -0.6052  0.3784 -0.4143
   20MOL   C366 7624   5.325   7.672   4.133  0.1042 -0.6871 -0.4281
   20MOL   C367 7625   5.186   7.608   4.125  0.4989 -0.0037  0.2194
   20MOL   C368 7626   5.088   0.019   4.073 -0.2091 -0.0062  0.1839
   20MOL   C369 7627   5.138   0.195   3.809  0.5074  0.0842 -0.2295
   20MOL   H370 7628   5.189   0.329   3.957 -0.9261  0.8619 -0.4315
   20MOL   H371 7629   5.162   0.209   4.152 -3.0800  1.7903 -0.7076
   20MOL   H372 7630   5.317   0.073   3.941 -2.1064 -1.7651  0.1999
   20MOL   H373 7631   5.383   0.188   4.062  0.7997 -0.7178 -1.0232
   20MOL   H374 7632   5.408   7.610   4.100  1.0923 -0.2482  1.1928
   20MOL   H375 7633   5.346   0.018   4.234 -0.2821 -1.0516 -0.2181
   20MOL   H376 7634   5.182   7.512   4.075  1.0839  0.0546  0.0683
   20MOL   H377 7635   5.159   7.590   4.230  0.8367 -1.6575  0.0267
   20MOL   H378 7636   5.004   0.025   4.143  0.0253  0.6230  0.4155
   20MOL   H379 7637   5.050   7.685   3.974  0.4119  2.2328 -0.6262
   20MOL   H380 7638   5.086   0.103   3.783  2.7495 -1.9272  2.1818
   20MOL   H381 7639   5.236   0.183   3.763 -0.5096 -1.0847 -2.1803
   20MOL   H382 7640   5.097   0.271   3.742 -1.8327 -2.2046 -1.4838
   21MOL     C1 7641   0.450   3.929   1.260 -0.1745  0.2696 -0.0284
   21MOL     C2 7642   0.527   3.841   1.158  0.0498  0.3337  0.1317
   21MOL     C3 7643   0.664   3.891   1.095  0.0134  0.3966 -1.0422
   21MOL     C4 7644   0.672   3.832   0.955  0.3665  0.2269  0.9927
   21MOL     C5 7645   0.536   3.762   0.928  0.0663  0.3648 -1.0096
   21MOL     C6 7646   0.439   3.806   1.037  0.0276  0.1835 -0.6099
   21MOL     C7 7647   0.544   3.975   1.377  0.6947  0.7964  0.3504
   21MOL     H8 7648   0.418   4.025   1.220  0.5027  0.2388 -0.6491
   21MOL     H9 7649   0.564   3.752   1.208 -1.9496 -0.6023  0.0010
   21MOL    H10 7650   0.672   3.999   1.082  1.9773  0.2665 -1.1184
   21MOL    H11 7651   0.753   3.853   1.145 -1.5415 -1.8315  0.1327
   21MOL    H12 7652   0.685   3.912   0.882  0.2002 -0.9158 -0.3140
   21MOL    H13 7653   0.759   3.766   0.952  0.8282  0.8840 -1.5145
   21MOL    H14 7654   0.495   3.781   0.829  1.4817  0.1583 -1.6445
   21MOL    H15 7655   0.539   3.653   0.930  0.9982  0.4006 -0.5405
   21MOL    H16 7656   0.371   3.722   1.048 -0.9572  1.0184 -0.1095
   21MOL    H17 7657   0.385   3.894   1.000 -2.9425 -0.9670  0.8122
   21MOL    H18 7658   0.570   3.887   1.436 -0.7003 -1.6068 -2.4613
   21MOL    H19 7659   0.634   4.023   1.338  0.0715  1.8723  0.2022
   21MOL    H20 7660   0.361   3.878   1.298 -1.1752  2.4207  0.6081
   21MOL    C21 7661   0.491   4.095   1.464 -0.1360  0.4458 -0.0971
   21MOL    C22 7662   0.561   4.095   1.612 -0.8145  0.7384  0.1524
   21MOL    C23 7663   0.717   4.091   1.606  0.3536  0.1472  0.4122
   21MOL    C24 7664   0.760   3.951   1.654 -0.2619 -0.6719  0.7809
   21MOL    C25 7665   0.647   3.915   1.749 -0.1485  0.1113 -0.1252
   21MOL    C26 7666   0.524   3.983   1.707  0.2416  0.0479 -0.0078
   21MOL    C27 7667   0.505   4.234   1.394 -0.5105  0.6033  0.5824
   21MOL    H28 7668   0.383   4.083   1.472 -0.5189  1.2033 -3.3469
   21MOL    H29 7669   0.535   4.193   1.651  2.7229  1.2906  1.2312
   21MOL    H30 7670   0.755   4.176   1.661  3.0609 -0.0917 -1.0028
   21MOL    H31 7671   0.741   4.093   1.499 -0.5908 -2.2756  0.1140
   21MOL    H32 7672   0.751   3.882   1.570 -0.9958  1.3442 -0.8629
   21MOL    H33 7673   0.860   3.943   1.698 -0.8195  1.2831  2.4695
   21MOL    H34 7674   0.672   3.954   1.848 -3.0382  0.6155  0.4484
   21MOL    H35 7675   0.637   3.808   1.767 -1.3561  0.3393  0.5902
   21MOL    H36 7676   0.473   4.036   1.787 -0.4924  1.3644 -1.3034
   21MOL    H37 7677   0.451   3.915   1.662  1.4468 -1.3634  0.1254
   21MOL    H38 7678   0.592   4.292   1.424  1.9226 -3.5597  2.0506
   21MOL    H39 7679   0.522   4.212   1.289  0.4741  2.2322  0.3794
   21MOL    C40 7680   0.377   4.329   1.413  0.1670  0.8606  0.2509
   21MOL    C41 7681   0.416   4.481   1.432  0.1928  0.1382  0.1443
   21MOL    C42 7682   0.531   4.511   1.536  0.2391 -0.1992  0.2006
   21MOL    C43 7683   0.496   4.630   1.623 -0.2844 -0.1562 -0.6648
   21MOL    C44 7684   0.374   4.684   1.567  0.2127  0.9807 -0.6934
   21MOL    C45 7685   0.308   4.560   1.500  0.1710 -0.2004 -0.4219
   21MOL    C46 7686   0.272   4.299   1.314 -0.9057 -0.0798 -0.3585
   21MOL    H47 7687   0.325   4.309   1.506 -0.7252  2.5173  0.1268
   21MOL    H48 7688   0.444   4.532   1.339 -1.4172  0.5209 -0.1423
   21MOL    H49 7689   0.620   4.533   1.476 -0.7409 -0.9928 -1.5741
   21MOL    H50 7690   0.553   4.422   1.595 -2.8522  0.1452  1.9351
   21MOL    H51 7691   0.576   4.703   1.634  0.8470 -1.4769  0.0247
   21MOL    H52 7692   0.484   4.614   1.731 -1.6434 -0.5816 -0.8707
   21MOL    H53 7693   0.312   4.731   1.643  0.6557 -0.7141  0.7658
   21MOL    H54 7694   0.404   4.747   1.483  1.8115  1.5139  0.2531
   21MOL    H55 7695   0.253   4.498   1.571 -0.0585 -0.0919 -0.5040
   21MOL    H56 7696   0.233   4.597   1.430  0.3124  2.6389  0.8295
   21MOL    H57 7697   0.263   4.193   1.289 -0.5019  0.7189 -4.3594
   21MOL    H58 7698   0.180   4.328   1.364  0.0758 -1.3282  2.2462
   21MOL    C59 7699   0.261   4.382   1.180 -1.0889  0.4312 -0.1239
   21MOL    C60 7700   0.396   4.371   1.105  0.1313 -0.5446  0.4135
   21MOL    C61 7701   0.405   4.488   0.997  0.2215  0.1594  1.3446
   21MOL    C62 7702   0.488   4.433   0.875  0.8273 -0.3603 -0.2232
   21MOL    C63 7703   0.465   4.279   0.878 -0.1370  0.9338  0.4199
   21MOL    C64 7704   0.430   4.243   1.026  0.7117  0.1573  0.4209
   21MOL    C65 7705   0.139   4.353   1.088  0.5192  0.0218 -0.1838
   21MOL    H66 7706   0.258   4.486   1.210  1.0280  0.3286  0.5000
   21MOL    H67 7707   0.485   4.397   1.162  0.9330  0.5066 -1.2964
   21MOL    H68 7708   0.457   4.568   1.048  1.5786 -0.0996  0.3886
   21MOL    H69 7709   0.309   4.513   0.951  1.2868 -0.3389 -1.2144
   21MOL    H70 7710   0.592   4.461   0.890  0.3399  0.9618  0.7563
   21MOL    H71 7711   0.440   4.471   0.784  0.4895 -1.6110 -0.5737
   21MOL    H72 7712   0.536   4.217   0.824 -1.9153 -0.5877 -0.2547
   21MOL    H73 7713   0.376   4.268   0.816 -0.6870 -0.4578  1.4339
   21MOL    H74 7714   0.346   4.174   1.024  1.3655 -0.6228 -1.1503
   21MOL    H75 7715   0.503   4.179   1.075  0.4571 -0.9399 -0.6008
   21MOL    H76 7716   0.119   4.247   1.103  1.7688 -0.2153 -0.1484
   21MOL    H77 7717   0.155   4.359   0.980  1.2536  1.5570 -0.0012
   21MOL    C78 7718   0.010   4.433   1.120 -0.6814 -0.2184  0.5963
   21MOL    C79 7719   0.022   4.583   1.067 -0.6728  0.3980 -0.1785
   21MOL    C80 7720   7.616   4.684   1.145  0.3317  0.7037  0.1853
   21MOL    C81 7721   7.610   4.802   1.052 -0.1403 -0.7335  0.1085
   21MOL    C82 7722   7.633   4.757   0.910  0.2102 -0.0476 -0.2686
   21MOL    C83 7723   0.004   4.619   0.924  1.0173  0.3534  0.5943
   21MOL    C84 7724   7.563   4.365   1.070 -0.1336 -0.1716 -0.7426
   21MOL    H85 7725   7.689   4.445   1.227  1.3848  2.9654  0.5514
   21MOL    H86 7726   0.125   4.612   1.090  0.8012 -2.9167 -2.1936
   21MOL    H87 7727   7.656   4.693   1.246  0.4213  0.9001  0.1324
   21MOL    H88 7728   7.513   4.648   1.153  0.3215  0.3509 -1.3909
   21MOL    H89 7729   0.004   4.865   1.082 -0.5984  0.2915 -0.7427
   21MOL    H90 7730   7.522   4.865   1.062 -1.6339 -2.6421 -0.6404
   21MOL    H91 7731   7.544   4.758   0.847 -1.6847 -0.2183  2.3461
   21MOL    H92 7732   0.008   4.834   0.867 -1.0481  0.5222 -1.1833
   21MOL    H93 7733   7.599   4.570   0.900  0.9161  0.9400 -0.2000
   21MOL    H94 7734   0.069   4.579   0.846  0.2161  0.4390 -0.1212
   21MOL    H95 7735   7.568   4.363   0.961 -1.0187  1.6356 -0.8335
   21MOL    H96 7736   7.488   4.438   1.103  1.3098  0.8417  0.3582
   21MOL    C97 7737   7.524   4.233   1.143  0.1558  0.7837 -0.6614
   21MOL    C98 7738   7.371   4.201   1.144 -0.3327 -0.0966  0.3985
   21MOL    C99 7739   7.286   4.285   1.237 -0.2144  0.1851 -1.0960
   21MOL   C100 7740   7.150   4.288   1.173 -0.2530  0.3878  0.2282
   21MOL   C101 7741   7.182   4.300   1.022  1.0044 -0.1371  0.1267
   21MOL   C102 7742   7.307   4.213   1.000 -0.1893 -0.2616  0.5600
   21MOL   C103 7743   7.582   4.223   1.293 -0.3897 -0.6667  0.4348
   21MOL   H104 7744   7.573   4.153   1.088  2.0096  0.6963  1.0397
   21MOL   H105 7745   7.368   4.095   1.168 -0.6398 -0.6914 -2.0572
   21MOL   H106 7746   7.282   4.237   1.335  3.3972  1.0449 -0.4409
   21MOL   H107 7747   7.330   4.382   1.260  1.3275 -0.4257 -1.3759
   21MOL   H108 7748   7.094   4.373   1.210  1.2756  2.5326 -2.2095
   21MOL   H109 7749   7.099   4.193   1.190 -0.7121  0.4166 -0.8984
   21MOL   H110 7750   7.187   4.407   0.998 -1.8725  0.4130  1.7267
   21MOL   H111 7751   7.105   4.259   0.957  0.4455  3.0886 -1.3825
   21MOL   H112 7752   7.272   4.113   0.973  2.3954 -1.5022  1.6285
   21MOL   H113 7753   7.369   4.257   0.921  2.9766 -0.2499  2.9323
   21MOL   H114 7754   0.001   4.235   1.291 -0.4116 -0.2833  1.4683
   21MOL   H115 7755   7.557   4.311   1.353  0.7811 -0.0735  0.0701
   21MOL   C116 7756   7.544   4.100   1.372  0.7218 -0.4006 -0.3411
   21MOL   C117 7757   7.605   3.966   1.303 -0.5188  0.0741  0.3471
   21MOL   C118 7758   0.074   3.960   1.296  0.1112  0.3560  0.6623
   21MOL   C119 7759   0.088   3.799   1.290  0.6667  0.4141  0.2163
   21MOL   C120 7760   7.674   3.740   1.375 -0.1524  0.2781 -0.2604
   21MOL   C121 7761   7.555   3.827   1.352 -0.4643 -0.1590  0.3537
   21MOL   C122 7762   7.611   4.119   1.515  0.6302 -0.0562 -0.0111
   21MOL   H123 7763   7.436   4.091   1.380  0.8261 -1.7316 -0.3537
   21MOL   H124 7764   7.575   3.966   1.198  1.1298  1.3796 -0.1555
   21MOL   H125 7765   0.115   4.011   1.208 -1.0941  0.0730 -0.0731
   21MOL   H126 7766   0.132   3.982   1.386  1.0851  0.2711  0.0647
   21MOL   H127 7767   0.184   3.756   1.319 -0.0651 -3.4810 -2.7679
   21MOL   H128 7768   0.081   3.769   1.186 -0.7145 -0.6942  0.6298
   21MOL   H129 7769   0.004   3.750   1.482 -0.3496  1.7237 -0.3499
   21MOL   H130 7770   7.664   3.636   1.347 -1.6103  0.7963 -1.7554
   21MOL   H131 7771   7.486   3.788   1.277  0.5521  1.2163 -1.3353
   21MOL   H132 7772   7.499   3.843   1.444  0.3852  2.3315  0.4827
   21MOL   H133 7773   0.010   4.180   1.502  0.5215  0.4283  1.4563
   21MOL   H134 7774   7.655   4.028   1.557  0.8639  0.6305  1.2617
   21MOL   C135 7775   7.528   4.189   1.620 -0.3694  0.1043 -0.5283
   21MOL   C136 7776   7.627   4.236   1.736  0.1146  0.3629 -0.2416
   21MOL   C137 7777   0.052   4.337   1.712 -0.0156  0.2156  0.2820
   21MOL   C138 7778   0.166   4.303   1.804  0.1605 -0.0436 -0.6109
   21MOL   C139 7779   0.121   4.192   1.889  0.6509 -0.4140  0.7044
   21MOL   C140 7780   0.015   4.126   1.802 -0.3564 -0.5256 -0.4084
   21MOL   C141 7781   7.402   4.114   1.671 -0.1392  0.3130 -0.2430
   21MOL   H142 7782   7.486   4.284   1.585  0.3489  0.0947 -1.4283
   21MOL   H143 7783   7.575   4.281   1.821  0.4668 -1.4874  0.9786
   21MOL   H144 7784   0.087   4.335   1.609  2.7516  2.5232  1.0907
   21MOL   H145 7785   0.009   4.435   1.732  1.0090  0.7622 -0.1365
   21MOL   H146 7786   0.184   4.391   1.865 -0.4976  1.0804 -1.9904
   21MOL   H147 7787   0.257   4.278   1.749  2.8718  0.5685  3.4242
   21MOL   H148 7788   0.089   4.237   1.983  1.5442  0.0024  0.8171
   21MOL   H149 7789   0.205   4.136   1.930  0.9100 -1.7777 -1.6388
   21MOL   H150 7790   0.078   4.065   1.736 -1.3667 -1.8001 -0.2224
   21MOL   H151 7791   7.633   4.060   1.850  1.1679  0.3336  3.2130
   21MOL   H152 7792   7.421   4.085   1.774  0.8184  1.7542  0.0038
   21MOL   H153 7793   7.400   4.019   1.617  0.1271 -0.5882  1.3169
   21MOL   C154 7794   7.268   4.184   1.659  0.9525  0.3096  0.0908
   21MOL   C155 7795   7.153   4.082   1.662 -0.8823  0.8811 -0.4666
   21MOL   C156 7796   7.135   4.002   1.781 -0.4343 -0.4501  0.0437
   21MOL   C157 7797   7.040   3.892   1.730  0.3756 -0.0003  0.9462
   21MOL   C158 7798   7.101   3.856   1.591  0.5191  0.6439  0.7398
   21MOL   C159 7799   7.146   3.986   1.538  0.6445 -0.2946  0.0704
   21MOL   C160 7800   7.252   4.296   1.768  0.0118 -0.6181  0.0909
   21MOL   H161 7801   7.259   4.229   1.560  2.1196  0.8032  0.1972
   21MOL   H162 7802   7.058   4.136   1.665  0.4482  3.1631  2.1103
   21MOL   H163 7803   7.228   3.958   1.817 -0.2823  0.0431  0.2546
   21MOL   H164 7804   7.086   4.055   1.862 -0.8717  1.9164 -1.7006
   21MOL   H165 7805   7.042   3.816   1.808 -0.2538 -1.5138 -0.4856
   21MOL   H166 7806   6.939   3.929   1.715  0.4892 -1.1287 -3.1042
   21MOL   H167 7807   7.037   3.804   1.520  2.2581 -1.1678  0.4416
   21MOL   H168 7808   7.182   3.783   1.593  1.7606  1.9275 -1.5392
   21MOL   H169 7809   7.089   4.035   1.459 -0.4168  0.4372  1.2746
   21MOL   H170 7810   7.241   3.961   1.490  1.1980  1.3231  0.2727
   21MOL   H171 7811   7.339   4.362   1.761 -0.6956  0.1857 -1.2768
   21MOL   H172 7812   7.284   4.241   1.857  0.5199 -1.2373 -0.4698
   21MOL   C173 7813   7.120   4.378   1.785  0.2742 -0.0771 -0.3005
   21MOL   C174 7814   7.066   4.474   1.685  0.7147  0.3470 -0.0719
   21MOL   C175 7815   6.971   4.415   1.574 -0.0950 -0.1245 -0.0204
   21MOL   C176 7816   6.960   4.529   1.478 -0.5207  0.0899  0.0314
   21MOL   C177 7817   7.099   4.603   1.479  0.4093  0.4670 -0.1805
   21MOL   C178 7818   7.175   4.547   1.600 -0.6100  0.2260 -0.1159
   21MOL   C179 7819   7.137   4.463   1.914  0.3668  0.3716  0.2821
   21MOL   H180 7820   7.038   4.307   1.796  1.0467 -0.8394  0.6572
   21MOL   H181 7821   7.008   4.554   1.731  0.8720  2.1003 -2.7620
   21MOL   H182 7822   6.876   4.376   1.609 -0.8438  1.4622 -0.2571
   21MOL   H183 7823   7.015   4.335   1.515 -0.6631 -0.3902 -0.0853
   21MOL   H184 7824   6.923   4.491   1.383  1.1068 -0.9089 -0.2272
   21MOL   H185 7825   6.878   4.591   1.514 -0.6685  0.3210 -0.6962
   21MOL   H186 7826   7.085   4.711   1.479 -0.7602  0.3257 -1.0388
   21MOL   H187 7827   7.155   4.581   1.389 -0.0711  1.0052 -0.6093
   21MOL   H188 7828   7.242   4.472   1.559  1.2710  1.1652  1.1989
   21MOL   H189 7829   7.232   4.618   1.660 -1.0958  1.3416 -0.9646
   21MOL   H190 7830   7.210   4.417   1.981 -0.7145 -0.8422  0.6426
   21MOL   H191 7831   7.178   4.559   1.882 -2.5025  1.2038 -1.0733
   21MOL   C192 7832   7.006   4.481   2.000 -0.3367  0.9839  0.8983
   21MOL   C193 7833   7.034   4.610   2.091 -0.1542 -0.4270 -0.1849
   21MOL   C194 7834   7.053   4.737   2.009 -0.8757  0.2154  0.5890
   21MOL   C195 7835   7.126   4.837   2.101 -0.3296  0.4143 -0.4140
   21MOL   C196 7836   7.177   4.752   2.224 -0.0780  0.1817  0.1273
   21MOL   C197 7837   7.155   4.607   2.187  0.0632 -0.2987 -0.1008
   21MOL   C198 7838   6.972   4.358   2.074 -0.0946 -0.4838 -0.5674
   21MOL   H199 7839   6.927   4.509   1.930  1.7285  0.2018 -1.8337
   21MOL   H200 7840   6.938   4.617   2.143  0.4107  2.7876  0.5626
   21MOL   H201 7841   6.957   4.776   1.974 -0.0562  1.1525 -0.6410
   21MOL   H202 7842   7.122   4.739   1.925 -2.0883 -0.3824 -0.4396
   21MOL   H203 7843   7.208   4.878   2.043  0.9709 -2.1002 -0.4199
   21MOL   H204 7844   7.055   4.907   2.145 -1.7753 -0.3724 -1.4324
   21MOL   H205 7845   7.127   4.762   2.320  1.8554 -1.1417  1.3266
   21MOL   H206 7846   7.284   4.763   2.242 -0.3903  2.5416  0.6391
   21MOL   H207 7847   7.137   4.547   2.275  0.2523  0.0234  0.1589
   21MOL   H208 7848   7.247   4.579   2.135 -0.8865 -0.0027 -1.9773
   21MOL   H209 7849   7.008   4.269   2.024  0.8189 -1.3333  1.5503
   21MOL   H210 7850   7.030   4.358   2.167  1.0007 -2.3864 -1.2272
   21MOL   C211 7851   6.819   4.320   2.103 -0.5644 -0.3830  0.1102
   21MOL   C212 7852   6.733   4.247   1.984  0.2505 -0.0851 -0.1880
   21MOL   C213 7853   6.785   4.112   1.928 -0.6366 -0.1612  0.5889
   21MOL   C214 7854   6.672   4.027   1.875  0.2055  0.0885 -0.5085
   21MOL   C215 7855   6.553   4.130   1.881  0.0349  0.2761 -0.6460
   21MOL   C216 7856   6.581   4.227   1.989  0.3875 -0.5144  0.1738
   21MOL   C217 7857   6.814   4.234   2.237  0.8947  0.2034  0.7068
   21MOL   H218 7858   6.773   4.418   2.118  1.3926  0.7252 -0.9681
   21MOL   H219 7859   6.746   4.312   1.898 -0.8752  0.9880  0.4449
   21MOL   H220 7860   6.832   4.126   1.831 -1.4363  0.0733  0.2263
   21MOL   H221 7861   6.864   4.069   1.990 -1.7685  0.0773  2.2583
   21MOL   H222 7862   6.685   3.980   1.777  1.1092  2.4859 -1.5772
   21MOL   H223 7863   6.643   3.944   1.940 -2.4913  0.6704 -0.8754
   21MOL   H224 7864   6.462   4.071   1.894 -0.3376  0.9339 -0.2666
   21MOL   H225 7865   6.552   4.187   1.788  0.1721  2.5365  0.7246
   21MOL   H226 7866   6.516   4.314   1.979 -2.8247 -2.9240 -0.7680
   21MOL   H227 7867   6.556   4.184   2.086  1.8368  0.9287  1.2197
   21MOL   H228 7868   6.887   4.154   2.224  0.6845 -0.2733  2.3242
   21MOL   H229 7869   6.717   4.184   2.234 -0.0320  1.9905  0.2172
   21MOL   C230 7870   6.846   4.311   2.367 -0.0422 -0.6516  0.0032
   21MOL   C231 7871   6.952   4.247   2.458 -0.3830 -0.4951 -0.2259
   21MOL   C232 7872   7.046   4.339   2.551  0.0594 -0.4656  0.1770
   21MOL   C233 7873   7.074   4.254   2.674  0.1608  0.4909 -0.2502
   21MOL   C234 7874   7.031   4.111   2.636  0.8272 -0.5520 -0.8905
   21MOL   C235 7875   6.910   4.131   2.551  0.4714 -0.5822 -0.0486
   21MOL   C236 7876   6.705   4.330   2.451 -0.2131  0.7261  0.6512
   21MOL   H237 7877   6.880   4.411   2.343 -0.9482 -0.4164 -0.3425
   21MOL   H238 7878   7.024   4.212   2.384  1.6604  2.2245  0.3954
   21MOL   H239 7879   7.142   4.363   2.506  0.0912  1.1638  1.0637
   21MOL   H240 7880   6.993   4.432   2.575 -0.2582 -0.7574  0.6160
   21MOL   H241 7881   7.172   4.266   2.719 -0.3698 -0.6143  1.2223
   21MOL   H242 7882   7.006   4.297   2.748 -0.5957 -1.6621  0.3487
   21MOL   H243 7883   7.025   4.053   2.729  0.7789 -1.5688 -1.5165
   21MOL   H244 7884   7.115   4.067   2.581  2.4456 -2.2375  2.7006
   21MOL   H245 7885   6.836   4.166   2.623  1.2619  1.1328 -0.0430
   21MOL   H246 7886   6.875   4.036   2.511 -1.2803 -0.0541  0.2043
   21MOL   H247 7887   6.733   4.356   2.554 -0.8807  0.5517  0.8789
   21MOL   H248 7888   6.657   4.233   2.456 -1.1922  1.1720 -0.1684
   21MOL   C249 7889   6.597   4.425   2.391  0.7125  0.2437  0.3608
   21MOL   C250 7890   6.644   4.570   2.408  0.8094  0.1674 -0.2159
   21MOL   C251 7891   6.633   4.649   2.546 -0.3334  0.2344  0.2767
   21MOL   C252 7892   6.666   4.797   2.513 -0.4982  0.5017 -0.9210
   21MOL   C253 7893   6.621   4.812   2.362 -0.0232 -0.3033 -0.8586
   21MOL   C254 7894   6.569   4.675   2.315  0.2827  0.6295 -0.3603
   21MOL   C255 7895   6.468   4.405   2.466  0.4357  0.3503 -0.4874
   21MOL   H256 7896   6.569   4.417   2.286 -0.5445  0.6565  0.6603
   21MOL   H257 7897   6.747   4.571   2.371  1.0825  0.1730  0.5256
   21MOL   H258 7898   6.707   4.609   2.616 -0.9972 -1.0729  0.2292
   21MOL   H259 7899   6.534   4.641   2.589 -0.4861 -0.1661 -0.1458
   21MOL   H260 7900   6.773   4.813   2.530 -0.0762 -2.0141 -0.9983
   21MOL   H261 7901   6.623   4.871   2.581  1.3512  0.8472 -0.0859
   21MOL   H262 7902   6.702   4.857   2.304 -0.8841 -1.0806 -2.7029
   21MOL   H263 7903   6.546   4.892   2.354  1.0930  0.9537  0.9972
   21MOL   H264 7904   6.581   4.657   2.208  1.9202 -1.9121  0.2089
   21MOL   H265 7905   6.464   4.681   2.341  0.4496 -1.4813  0.9421
   21MOL   H266 7906   6.490   4.368   2.566 -2.2352  2.0584  0.7848
   21MOL   H267 7907   6.416   4.500   2.480 -1.9365 -1.0897  0.9438
   21MOL   C268 7908   6.371   4.308   2.394 -0.1476  0.0133  0.4011
   21MOL   C269 7909   6.293   4.391   2.280  0.0341 -0.5993  0.5732
   21MOL   C270 7910   6.207   4.507   2.332  0.3664 -0.0200  0.2366
   21MOL   C271 7911   6.114   4.543   2.216 -0.4763 -0.1339 -0.2134
   21MOL   C272 7912   6.109   4.418   2.122 -0.0776 -0.5631  0.5435
   21MOL   C273 7913   6.199   4.312   2.188 -0.4998  0.1714  0.0731
   21MOL   C274 7914   6.281   4.234   2.499  0.0691  0.4036  0.0929
   21MOL   H275 7915   6.424   4.234   2.334 -1.5569 -0.8977  0.2496
   21MOL   H276 7916   6.379   4.420   2.220 -0.8709 -1.0899 -0.9783
   21MOL   H277 7917   6.155   4.465   2.418  1.7399  2.2955  2.2561
   21MOL   H278 7918   6.273   4.583   2.376 -1.3731  0.5107  1.9949
   21MOL   H279 7919   6.018   4.582   2.250  0.2260  0.8645  0.6228
   21MOL   H280 7920   6.160   4.628   2.166 -0.5024 -0.7242 -1.2707
   21MOL   H281 7921   6.139   4.435   2.018 -0.9236 -2.1816  0.0106
   21MOL   H282 7922   6.006   4.384   2.113 -0.2229 -0.7536  2.7513
   21MOL   H283 7923   6.246   4.244   2.118  0.1583  0.8026 -0.0979
   21MOL   H284 7924   6.132   4.247   2.245  0.6717 -1.1350 -0.0315
   21MOL   H285 7925   6.180   4.228   2.459  0.5852 -1.1826 -1.0307
   21MOL   H286 7926   6.268   4.281   2.596 -2.6623 -0.4131  0.1670
   21MOL   C287 7927   6.318   4.082   2.517  0.1474 -0.4778 -0.4803
   21MOL   C288 7928   6.444   4.061   2.607  0.0905 -0.1817 -0.3310
   21MOL   C289 7929   6.441   4.126   2.742  0.3259  0.2873 -0.3574
   21MOL   C290 7930   6.563   4.062   2.817 -0.1264  0.1566 -1.4290
   21MOL   C291 7931   6.555   3.919   2.780 -0.1437  0.2541 -0.8161
   21MOL   C292 7932   6.484   3.917   2.640  0.1803 -0.6964  0.2016
   21MOL   C293 7933   6.195   4.001   2.575  1.8054  0.1030  0.1571
   21MOL   H294 7934   6.341   4.042   2.418 -1.2329 -0.4784 -0.8230
   21MOL   H295 7935   6.521   4.106   2.544 -1.5092  1.6889 -1.0153
   21MOL   H296 7936   6.464   4.232   2.734  0.2019  0.2884 -0.6836
   21MOL   H297 7937   6.350   4.115   2.802  0.4821  2.7571  0.3646
   21MOL   H298 7938   6.659   4.096   2.778  1.2250  0.7059  2.2122
   21MOL   H299 7939   6.558   4.088   2.922 -1.3607 -0.1160 -1.4150
   21MOL   H300 7940   6.497   3.865   2.855  0.0193 -0.0013 -0.8741
   21MOL   H301 7941   6.653   3.872   2.767 -0.1545 -0.0502  0.1297
   21MOL   H302 7942   6.405   3.842   2.632 -0.7017  0.4201 -1.8981
   21MOL   H303 7943   6.554   3.887   2.562 -0.2399  0.1143 -0.4831
   21MOL   H304 7944   6.114   4.068   2.602  0.1640 -1.3374 -1.0786
   21MOL   H305 7945   6.217   3.957   2.672  1.4277  0.6311  0.4895
   21MOL   C306 7946   6.159   3.890   2.470 -0.0692  0.2396 -0.0114
   21MOL   C307 7947   6.081   3.770   2.534  0.0735 -0.0342 -0.2892
   21MOL   C308 7948   6.156   3.682   2.635 -0.4995  0.1710  0.2544
   21MOL   C309 7949   6.041   3.619   2.719  0.2420  0.0366 -0.1695
   21MOL   C310 7950   5.907   3.666   2.662  0.4324 -0.3373 -0.1983
   21MOL   C311 7951   5.937   3.787   2.585 -0.2588 -0.6040  1.2538
   21MOL   C312 7952   6.092   3.959   2.352 -0.5276 -0.4768  0.3657
   21MOL   H313 7953   6.256   3.853   2.439  0.8148  1.9249  0.6638
   21MOL   H314 7954   6.065   3.704   2.449 -1.1763  1.0492 -0.9003
   21MOL   H315 7955   6.229   3.741   2.691  0.1886  0.1015 -0.5623
   21MOL   H316 7956   6.225   3.611   2.590  0.2857  1.4215 -0.5408
   21MOL   H317 7957   6.056   3.511   2.726 -0.8465 -0.0193  1.5831
   21MOL   H318 7958   6.043   3.654   2.822 -0.8679 -0.1570 -0.0752
   21MOL   H319 7959   5.827   3.682   2.735 -1.1253  1.5275 -2.2537
   21MOL   H320 7960   5.882   3.583   2.595 -2.1484  0.4451 -0.2805
   21MOL   H321 7961   5.868   3.808   2.503  1.7447  2.1401  0.2086
   21MOL   H322 7962   5.910   3.880   2.636 -0.9464 -0.7797  1.2260
   21MOL   H323 7963   6.160   4.032   2.307 -1.9416  0.3283 -0.4814
   21MOL   H324 7964   6.020   4.029   2.394 -0.8616 -0.2733 -0.5464
   21MOL   C325 7965   6.017   3.875   2.239  0.6490 -0.3452 -0.4335
   21MOL   C326 7966   6.124   3.785   2.171  0.1885  0.1901 -0.2239
   21MOL   C327 7967   6.224   3.851   2.067 -1.1377  1.2663  0.5786
   21MOL   C328 7968   6.273   3.734   1.973 -0.9463 -0.1475  0.3964
   21MOL   C329 7969   6.177   3.621   2.002 -0.0831  0.1628 -0.0604
   21MOL   C330 7970   6.063   3.673   2.086 -0.5080  0.9968  0.0549
   21MOL   C331 7971   5.932   3.967   2.145  0.2637  0.0214 -0.0660
   21MOL   H332 7972   5.941   3.810   2.282  1.0994 -0.7316 -0.2147
   21MOL   H333 7973   6.189   3.736   2.244 -1.1480  0.7442  1.3554
   21MOL   H334 7974   6.304   3.905   2.116  0.6297  0.5350 -1.4386
   21MOL   H335 7975   6.173   3.928   2.009  0.0466  1.3941 -0.3050
   21MOL   H336 7976   6.378   3.707   1.981 -0.1142  2.3177 -1.5002
   21MOL   H337 7977   6.263   3.751   1.866  2.7973 -2.0835 -0.3311
   21MOL   H338 7978   6.221   3.538   2.057 -1.0630 -0.5419 -0.3298
   21MOL   H339 7979   6.153   3.571   1.908 -0.6660  0.2973  0.0137
   21MOL   H340 7980   6.020   3.596   2.151 -1.0330 -0.0290 -1.4882
   21MOL   H341 7981   5.980   3.700   2.021  1.1760 -0.4286 -2.7611
   21MOL   H342 7982   5.905   3.922   2.050  0.1215 -0.5894  0.2618
   21MOL   H343 7983   6.004   4.045   2.121 -1.1601  1.4991  0.3323
   21MOL   C344 7984   5.804   4.032   2.205  0.3148  0.4902 -0.1822
   21MOL   C345 7985   5.671   3.950   2.205 -0.1873  0.7595  0.1123
   21MOL   C346 7986   5.670   3.819   2.273  0.6078  0.9272 -0.1914
   21MOL   C347 7987   5.531   3.760   2.234  0.5937  0.2381 -0.2402
   21MOL   C348 7988   5.512   3.810   2.093 -0.3563  0.3739 -0.4344
   21MOL   C349 7989   5.616   3.918   2.068 -0.3258  0.4007 -0.1302
   21MOL   C350 7990   5.769   4.167   2.131 -0.6784 -0.7606 -0.6889
   21MOL   H351 7991   5.822   4.052   2.311  3.6226  0.6245 -0.7299
   21MOL   H352 7992   5.599   4.014   2.257  0.3705  1.2505  0.2856
   21MOL   H353 7993   5.684   3.819   2.381 -0.4873 -0.5664 -0.0220
   21MOL   H354 7994   5.739   3.749   2.226 -1.8032 -0.5295 -1.6660
   21MOL   H355 7995   5.538   3.651   2.241  0.7228  0.3468  1.4352
   21MOL   H356 7996   5.449   3.791   2.298  0.6292  2.3510 -1.1844
   21MOL   H357 7997   5.416   3.856   2.073 -0.5873  0.3609  0.5929
   21MOL   H358 7998   5.526   3.724   2.028  0.7151 -0.8497  1.3635
   21MOL   H359 7999   5.695   3.879   2.004 -0.5852  0.5234 -0.5210
   21MOL   H360 8000   5.566   4.009   2.035 -2.2579 -1.4674 -2.4598
   21MOL   H361 8001   5.747   4.149   2.025  3.1942  0.1289 -1.7354
   21MOL   H362 8002   5.858   4.229   2.119  0.1391 -2.3688 -3.4430
   21MOL   C363 8003   5.679   4.277   2.201 -0.5978 -0.1483 -0.2599
   21MOL   C364 8004   5.714   4.310   2.354 -0.3406 -0.4725  0.1330
   21MOL   C365 8005   5.606   4.405   2.420 -0.2756 -0.7176  0.2560
   21MOL   C366 8006   5.673   4.461   2.544 -0.2638  0.0925 -0.6574
   21MOL   C367 8007   5.828   4.435   2.526  0.7626 -0.5668 -0.1317
   21MOL   C368 8008   5.849   4.380   2.378 -0.0506 -0.4652 -0.0594
   21MOL   C369 8009   5.673   4.404   2.118 -0.5903  0.3182  0.3862
   21MOL   H370 8010   5.577   4.239   2.203 -1.3864  1.8790 -0.6608
   21MOL   H371 8011   5.714   4.215   2.407  1.9664 -0.7377 -0.2799
   21MOL   H372 8012   5.563   4.490   2.367 -2.0173 -2.1952 -0.7765
   21MOL   H373 8013   5.521   4.342   2.446 -0.2121 -1.0896 -0.4508
   21MOL   H374 8014   5.643   4.566   2.556 -0.7449 -0.2546  1.5134
   21MOL   H375 8015   5.633   4.417   2.636 -0.2803  1.4053 -0.0165
   21MOL   H376 8016   5.891   4.525   2.523 -1.5598  1.0664 -1.6183
   21MOL   H377 8017   5.857   4.359   2.598  2.8790 -0.7148 -1.1149
   21MOL   H378 8018   5.929   4.305   2.379  0.6579  0.1756 -3.4219
   21MOL   H379 8019   5.871   4.466   2.314 -0.3660  0.5904  1.2317
   21MOL   H380 8020   5.770   4.451   2.136 -0.5610  0.2696  0.3629
   21MOL   H381 8021   5.587   4.464   2.145 -1.5619 -1.2703  0.8707
   21MOL   H382 8022   5.673   4.397   2.009  0.7063  1.1643  0.3196
   22MOL     C1 8023   5.961   5.293   4.200  0.2970  0.0323  0.3852
   22MOL     C2 8024   5.970   5.443   4.174 -0.0091 -0.5954  0.6705
   22MOL     C3 8025   6.094   5.516   4.230  0.1021  0.1194  0.1730
   22MOL     C4 8026   6.054   5.660   4.253 -0.0131  0.2965  0.0458
   22MOL     C5 8027   5.904   5.668   4.251 -0.5124  0.4808  0.0627
   22MOL     C6 8028   5.859   5.518   4.240  0.4633 -0.6198  0.0206
   22MOL     C7 8029   6.091   5.217   4.153 -0.5529  0.0201  1.2240
   22MOL     H8 8030   5.937   5.262   4.302 -2.3062  0.1311 -0.1460
   22MOL     H9 8031   5.957   5.477   4.071 -1.0659  1.3315  1.4344
   22MOL    H10 8032   6.125   5.464   4.321 -0.3238 -0.8034 -0.1950
   22MOL    H11 8033   6.185   5.509   4.171  1.1683  2.8957  1.3946
   22MOL    H12 8034   6.110   5.698   4.339  1.2986  0.0780 -0.7027
   22MOL    H13 8035   6.097   5.718   4.171 -1.4465 -0.2180 -1.0786
   22MOL    H14 8036   5.870   5.720   4.341  0.1999 -0.8915  1.1500
   22MOL    H15 8037   5.871   5.727   4.166 -0.3853  0.5940  0.0922
   22MOL    H16 8038   5.770   5.503   4.179 -0.2034  2.6510  0.1091
   22MOL    H17 8039   5.840   5.478   4.339 -1.3043 -0.5064 -0.2656
   22MOL    H18 8040   6.141   5.257   4.065  0.0913 -1.2967  0.9709
   22MOL    H19 8041   6.159   5.231   4.237 -0.7741 -0.4380  1.4792
   22MOL    H20 8042   5.879   5.250   4.141 -0.3561 -0.0398  1.3355
   22MOL    C21 8043   6.065   5.066   4.129 -0.2940  0.4127  0.6412
   22MOL    C22 8044   6.006   4.995   4.252 -0.0296  0.6838  0.5405
   22MOL    C23 8045   6.098   4.998   4.371 -0.4536 -0.5280  0.3549
   22MOL    C24 8046   6.044   4.899   4.469  0.3245 -0.2675 -0.1261
   22MOL    C25 8047   5.975   4.789   4.387  0.1183 -0.3985 -0.1897
   22MOL    C26 8048   5.997   4.841   4.245  0.0034 -0.5270  0.5293
   22MOL    C27 8049   5.986   5.047   3.998  1.2230 -0.6052  0.1421
   22MOL    H28 8050   6.164   5.026   4.113 -0.8349 -1.7767  2.5302
   22MOL    H29 8051   5.908   5.033   4.280 -0.1407 -0.1061  1.2280
   22MOL    H30 8052   6.107   5.098   4.413  2.3570 -0.8832  0.6913
   22MOL    H31 8053   6.197   4.973   4.333  0.4867 -2.0890  3.6695
   22MOL    H32 8054   6.125   4.855   4.527  0.7020 -1.9102 -1.8728
   22MOL    H33 8055   5.971   4.946   4.536  1.2724  0.4692  0.4137
   22MOL    H34 8056   5.868   4.776   4.404  0.4405  1.2582  3.4326
   22MOL    H35 8057   6.010   4.687   4.404 -0.5463 -0.5904  0.0337
   22MOL    H36 8058   5.914   4.809   4.181  2.6567  0.1369 -3.4675
   22MOL    H37 8059   6.089   4.792   4.216 -0.1331 -0.4599 -0.0284
   22MOL    H38 8060   5.937   4.949   3.999  2.2879 -1.1280  1.1465
   22MOL    H39 8061   5.893   5.105   4.003  1.4739 -0.0563 -1.1618
   22MOL    C40 8062   6.050   5.055   3.861  0.0491 -0.5197  0.5968
   22MOL    C41 8063   6.112   4.922   3.820  0.5538  0.2398 -0.3488
   22MOL    C42 8064   6.207   4.858   3.919 -0.5934 -0.1492  0.1112
   22MOL    C43 8065   6.288   4.760   3.843 -0.0028  0.1735 -0.2993
   22MOL    C44 8066   6.317   4.842   3.716  0.5455 -0.5742 -0.5441
   22MOL    C45 8067   6.192   4.931   3.690 -0.1817  0.3288 -0.7862
   22MOL    C46 8068   5.951   5.110   3.753 -0.2549  0.0712 -0.1937
   22MOL    H47 8069   6.130   5.129   3.868  0.6059 -1.0366 -0.2300
   22MOL    H48 8070   6.027   4.858   3.798 -0.9478  1.5254  1.5183
   22MOL    H49 8071   6.167   4.803   4.004  1.3731 -1.8342 -0.0038
   22MOL    H50 8072   6.277   4.935   3.951 -0.3635 -0.4921  0.4344
   22MOL    H51 8073   6.218   4.679   3.824 -1.7381  1.5548  0.0546
   22MOL    H52 8074   6.377   4.725   3.895 -0.9987 -0.8487  0.7422
   22MOL    H53 8075   6.400   4.909   3.738  0.6640 -0.7008 -0.6077
   22MOL    H54 8076   6.338   4.778   3.630  3.2708 -0.0844 -0.2947
   22MOL    H55 8077   6.207   5.028   3.643  0.9903  0.7460  0.4076
   22MOL    H56 8078   6.128   4.876   3.621  1.1320 -1.4818 -0.5935
   22MOL    H57 8079   5.972   5.085   3.649  0.4204  0.1854 -0.0855
   22MOL    H58 8080   5.852   5.069   3.775  0.1452 -0.5509  0.4786
   22MOL    C59 8081   5.927   5.262   3.755  0.1811 -0.2817  0.1110
   22MOL    C60 8082   6.051   5.342   3.698  1.1029  0.1879 -0.3407
   22MOL    C61 8083   6.071   5.493   3.737  0.0834  0.0292 -0.4700
   22MOL    C62 8084   6.171   5.551   3.641 -0.8963 -0.8863 -0.3164
   22MOL    C63 8085   6.153   5.460   3.511 -0.2266  0.5338 -0.2174
   22MOL    C64 8086   6.057   5.349   3.545  0.4179 -0.0324 -0.1548
   22MOL    C65 8087   5.789   5.309   3.689 -0.3350  0.7351 -0.0944
   22MOL    H66 8088   5.925   5.287   3.862  1.0232  2.8187 -0.5487
   22MOL    H67 8089   6.137   5.284   3.732  1.3677 -0.5459 -2.2408
   22MOL    H68 8090   6.106   5.497   3.841 -2.2735 -0.9369  0.3898
   22MOL    H69 8091   5.977   5.547   3.735  1.0181  1.7775  1.1910
   22MOL    H70 8092   6.273   5.529   3.672 -1.5408 -2.4530  0.7985
   22MOL    H71 8093   6.164   5.658   3.626  1.3044 -0.7258 -0.4205
   22MOL    H72 8094   6.249   5.417   3.483 -1.9572 -3.9293  0.3007
   22MOL    H73 8095   6.114   5.505   3.420 -0.1682 -0.2503 -0.6304
   22MOL    H74 8096   5.966   5.370   3.490 -0.7836 -2.2829  0.9076
   22MOL    H75 8097   6.092   5.253   3.507  1.1228  0.1002  0.1285
   22MOL    H76 8098   5.782   5.250   3.597  1.9709 -0.7876  0.6541
   22MOL    H77 8099   5.799   5.416   3.670  0.4372  0.7949  0.6340
   22MOL    C78 8100   5.657   5.279   3.768 -0.0020 -0.6946  0.0266
   22MOL    C79 8101   5.646   5.372   3.897  0.1876  0.4153  0.1795
   22MOL    C80 8102   5.550   5.329   4.005 -0.2033  0.0802 -1.5237
   22MOL    C81 8103   5.513   5.459   4.077 -0.2619 -0.5942 -0.6415
   22MOL    C82 8104   5.551   5.576   3.997  0.0882  0.9191 -0.2114
   22MOL    C83 8105   5.621   5.521   3.870  0.2070 -1.0253  0.2317
   22MOL    C84 8106   5.534   5.290   3.679 -0.6474  0.1310  0.4103
   22MOL    H85 8107   5.668   5.182   3.817  0.6630 -0.5799  0.1110
   22MOL    H86 8108   5.748   5.372   3.936 -0.2823  1.5957  1.4282
   22MOL    H87 8109   5.593   5.257   4.075 -3.1296 -0.1930  0.0978
   22MOL    H88 8110   5.464   5.276   3.964 -0.2633 -0.3518 -0.8570
   22MOL    H89 8111   5.558   5.470   4.176  3.7303  1.0736 -2.5270
   22MOL    H90 8112   5.409   5.465   4.109 -0.6041  1.3831 -2.0796
   22MOL    H91 8113   5.460   5.628   3.966 -0.8211 -0.9340 -0.7038
   22MOL    H92 8114   5.607   5.654   4.049  0.0038  0.2969  0.8112
   22MOL    H93 8115   5.557   5.537   3.783  0.4049 -0.0798  0.2504
   22MOL    H94 8116   5.714   5.573   3.848  1.5568 -3.3099  0.3652
   22MOL    H95 8117   5.533   5.385   3.626  1.5903  1.2361  2.2723
   22MOL    H96 8118   5.448   5.306   3.744 -0.9055  1.0577 -0.1510
   22MOL    C97 8119   5.501   5.165   3.576  1.0583  0.4042 -0.0099
   22MOL    C98 8120   5.531   5.194   3.425  0.3378  0.8409  0.2244
   22MOL    C99 8121   5.547   5.076   3.328 -0.3748  0.7216  1.0520
   22MOL   C100 8122   5.477   5.121   3.197  0.1359 -0.1966 -0.5358
   22MOL   C101 8123   5.370   5.219   3.241 -0.0189 -0.5604  0.6729
   22MOL   C102 8124   5.431   5.286   3.360  0.2841 -0.3067 -0.3246
   22MOL   C103 8125   5.360   5.118   3.592 -0.0101  0.1411 -0.1737
   22MOL   H104 8126   5.562   5.079   3.606  0.2437 -0.3970 -0.6345
   22MOL   H105 8127   5.624   5.251   3.419 -0.2790  1.8238 -0.1612
   22MOL   H106 8128   5.652   5.052   3.312 -0.3649  1.2813  0.2277
   22MOL   H107 8129   5.506   4.981   3.360 -1.2068  1.5001  2.3547
   22MOL   H108 8130   5.431   5.035   3.149  0.4416 -0.5948 -0.1234
   22MOL   H109 8131   5.554   5.174   3.141  0.3425  0.4603  0.3571
   22MOL   H110 8132   5.293   5.156   3.285  0.2390 -1.3327  0.0280
   22MOL   H111 8133   5.328   5.278   3.159  2.3525  2.1128  1.3042
   22MOL   H112 8134   5.480   5.375   3.321  0.4780  0.0374  0.6796
   22MOL   H113 8135   5.362   5.319   3.438  2.4902  0.5634  1.3387
   22MOL   H114 8136   5.295   5.206   3.584 -0.8339 -0.4028  0.3937
   22MOL   H115 8137   5.336   5.053   3.508  3.5047 -0.9298 -0.4370
   22MOL   C116 8138   5.321   5.043   3.725  0.2190  0.1808 -0.2338
   22MOL   C117 8139   5.177   5.081   3.776 -0.7576  0.0054 -0.2780
   22MOL   C118 8140   5.143   5.232   3.821 -0.4991 -0.2071  0.3397
   22MOL   C119 8141   4.995   5.252   3.796  0.6417  0.1009  0.7577
   22MOL   C120 8142   4.945   5.133   3.711  0.2130  0.3001 -0.3820
   22MOL   C121 8143   5.064   5.050   3.675 -0.7507  0.5402  0.4148
   22MOL   C122 8144   5.339   4.888   3.709  0.4824 -0.3548 -0.4046
   22MOL   H123 8145   5.392   5.065   3.804 -0.7131 -1.5519  1.1191
   22MOL   H124 8146   5.158   5.027   3.869  3.3393 -1.2627 -0.0876
   22MOL   H125 8147   5.173   5.235   3.926  3.6884  1.8310 -0.7920
   22MOL   H126 8148   5.203   5.304   3.766  0.3410  0.8059  2.5261
   22MOL   H127 8149   4.983   5.349   3.748  1.9498  0.0284  0.2708
   22MOL   H128 8150   4.942   5.265   3.891 -0.2908  1.2761  0.0925
   22MOL   H129 8151   4.902   5.182   3.623 -0.7878 -1.0956 -0.6833
   22MOL   H130 8152   4.867   5.071   3.755  1.1677  0.7147  1.9699
   22MOL   H131 8153   5.045   4.943   3.668  1.1016  0.3216 -1.9765
   22MOL   H132 8154   5.087   5.081   3.573 -0.2194  0.7083  0.5869
   22MOL   H133 8155   5.419   4.882   3.634  2.4792 -0.3221  1.6855
   22MOL   H134 8156   5.251   4.845   3.662 -0.3384 -0.6913  1.4204
   22MOL   C135 8157   5.384   4.814   3.837 -0.0270 -0.1104 -0.4132
   22MOL   C136 8158   5.537   4.823   3.865  0.1917 -0.3725  0.1284
   22MOL   C137 8159   5.633   4.749   3.769  0.1163  0.4793  0.3691
   22MOL   C138 8160   5.759   4.703   3.837 -0.4692 -0.2626 -0.1077
   22MOL   C139 8161   5.708   4.684   3.986  0.6516 -0.3111  0.9582
   22MOL   C140 8162   5.591   4.787   4.009 -0.1699 -0.0876  0.6488
   22MOL   C141 8163   5.330   4.665   3.841  0.1952  0.5221 -0.0202
   22MOL   H142 8164   5.342   4.868   3.922 -1.8341  0.6003 -1.7179
   22MOL   H143 8165   5.568   4.928   3.858  0.7508 -0.5009  0.5716
   22MOL   H144 8166   5.581   4.659   3.735  1.2059 -0.8182  2.0398
   22MOL   H145 8167   5.659   4.811   3.683 -0.9847  0.5234  0.0540
   22MOL   H146 8168   5.835   4.781   3.847 -0.2196 -0.3906 -0.9575
   22MOL   H147 8169   5.814   4.618   3.796  0.7386  0.5299 -0.1522
   22MOL   H148 8170   5.784   4.692   4.064 -0.0898  2.9928  1.4283
   22MOL   H149 8171   5.658   4.588   3.995 -1.1068  0.4274 -0.4677
   22MOL   H150 8172   5.515   4.747   4.077  0.5174  0.1478  1.5643
   22MOL   H151 8173   5.637   4.875   4.054 -2.4180  0.7239  1.4658
   22MOL   H152 8174   5.410   4.597   3.870 -0.3712 -0.2317 -0.2017
   22MOL   H153 8175   5.305   4.633   3.740 -2.1140  2.2760 -0.0568
   22MOL   C154 8176   5.200   4.651   3.923  0.5585  0.2873 -0.1856
   22MOL   C155 8177   5.111   4.523   3.893  0.1923  0.5723 -0.0921
   22MOL   C156 8178   5.177   4.383   3.899  0.2873  0.2992 -0.0890
   22MOL   C157 8179   5.109   4.288   3.805  0.5573  0.4558  0.0588
   22MOL   C158 8180   5.009   4.373   3.729  0.0718  0.5079 -0.1019
   22MOL   C159 8181   5.054   4.523   3.748 -0.0094  0.1290  0.1611
   22MOL   C160 8182   5.221   4.671   4.076  0.5418  0.0238  0.3663
   22MOL   H161 8183   5.136   4.736   3.901  1.8379  2.0482  2.5740
   22MOL   H162 8184   5.029   4.513   3.964  0.8227 -2.5971  0.2701
   22MOL   H163 8185   5.279   4.390   3.860 -0.1717  1.6934 -1.0921
   22MOL   H164 8186   5.180   4.329   3.994  0.3720  0.4512 -0.0054
   22MOL   H165 8187   5.177   4.260   3.725  0.5675 -0.0062  0.2255
   22MOL   H166 8188   5.054   4.203   3.847  1.1797  0.9148  1.8231
   22MOL   H167 8189   4.909   4.364   3.771 -1.5310  2.4240 -3.3011
   22MOL   H168 8190   4.997   4.355   3.622 -2.3964  0.2198  0.1908
   22MOL   H169 8191   4.963   4.583   3.744  0.2193  0.5112  0.6525
   22MOL   H170 8192   5.124   4.558   3.672 -0.5872 -0.1687 -0.5140
   22MOL   H171 8193   5.248   4.777   4.088  0.1750  0.1113  0.4256
   22MOL   H172 8194   5.311   4.614   4.099  0.7577 -0.2530 -1.1195
   22MOL   C173 8195   5.102   4.632   4.179 -0.0726  0.1219  0.0030
   22MOL   C174 8196   4.980   4.722   4.168 -0.2480  0.0284 -0.2216
   22MOL   C175 8197   5.001   4.874   4.202  0.6484 -0.3078  0.3615
   22MOL   C176 8198   4.853   4.923   4.196 -0.1859  0.0764  0.2669
   22MOL   C177 8199   4.755   4.804   4.221 -1.1092  0.1475 -0.2048
   22MOL   C178 8200   4.855   4.683   4.236 -0.1023  0.0079 -0.2672
   22MOL   C179 8201   5.161   4.630   4.321 -0.4367 -1.3203  0.0223
   22MOL   H180 8202   5.053   4.536   4.163 -0.6021  0.6424 -1.6187
   22MOL   H181 8203   4.952   4.702   4.064  2.0988  0.6382 -1.0074
   22MOL   H182 8204   5.078   4.925   4.144  0.1477 -0.0035 -0.0358
   22MOL   H183 8205   5.047   4.893   4.299  1.1583  1.1032 -0.1465
   22MOL   H184 8206   4.841   5.005   4.267  2.2925  0.3509  0.4118
   22MOL   H185 8207   4.848   4.958   4.093  0.4401 -0.3504  0.0886
   22MOL   H186 8208   4.680   4.793   4.143 -0.6188 -0.5830 -0.5747
   22MOL   H187 8209   4.695   4.812   4.312 -1.4100  0.3672 -0.4178
   22MOL   H188 8210   4.866   4.657   4.342 -1.5688 -0.0228 -0.1014
   22MOL   H189 8211   4.809   4.595   4.192  0.4691 -0.9890  1.0808
   22MOL   H190 8212   5.217   4.722   4.337  0.6042 -2.0388  0.5629
   22MOL   H191 8213   5.074   4.633   4.387  0.2146  1.1467  0.8363
   22MOL   C192 8214   5.261   4.511   4.349  0.9551 -0.1264 -0.4076
   22MOL   C193 8215   5.207   4.410   4.444 -0.3623 -0.1148  0.1433
   22MOL   C194 8216   5.076   4.344   4.406 -0.4443 -0.3600  0.1572
   22MOL   C195 8217   5.036   4.278   4.536  1.1438 -0.0685 -0.7890
   22MOL   C196 8218   5.057   4.386   4.635  0.0865  0.1715 -0.0418
   22MOL   C197 8219   5.181   4.462   4.588 -0.0028 -0.2079  0.8641
   22MOL   C198 8220   5.401   4.561   4.391  0.6353 -0.6252  0.2141
   22MOL   H199 8221   5.268   4.465   4.251 -1.9231  0.2028 -0.8032
   22MOL   H200 8222   5.275   4.326   4.447 -1.5535 -1.0923 -0.0063
   22MOL   H201 8223   5.087   4.270   4.327  0.6392  0.3068 -0.3273
   22MOL   H202 8224   5.004   4.424   4.388 -1.5483 -0.9661  1.7458
   22MOL   H203 8225   4.937   4.233   4.533  1.5669 -1.0132 -0.5422
   22MOL   H204 8226   5.103   4.199   4.567 -0.2440 -0.5287  1.0737
   22MOL   H205 8227   5.069   4.343   4.734  0.5452  0.7216  0.1370
   22MOL   H206 8228   4.969   4.451   4.640 -0.5513 -0.3108 -3.5771
   22MOL   H207 8229   5.272   4.449   4.646 -0.0226  1.3782  1.2964
   22MOL   H208 8230   5.165   4.570   4.593 -2.2103 -0.4464 -0.7941
   22MOL   H209 8231   5.426   4.634   4.314 -0.4518 -0.6166 -0.1385
   22MOL   H210 8232   5.396   4.628   4.477 -0.9444  0.4120 -0.6588
   22MOL   C211 8233   5.515   4.464   4.394 -0.5134  0.0187  0.6626
   22MOL   C212 8234   5.579   4.431   4.260 -0.0487  0.6398 -0.8837
   22MOL   C213 8235   5.704   4.347   4.259  0.2019  0.3765 -0.1769
   22MOL   C214 8236   5.722   4.315   4.116  0.5977 -0.3662  0.1475
   22MOL   C215 8237   5.577   4.300   4.055  0.0031  0.0899  0.1250
   22MOL   C216 8238   5.487   4.355   4.164 -0.5205 -0.6461  0.2268
   22MOL   C217 8239   5.612   4.513   4.503  0.1836  0.3675 -0.2212
   22MOL   H218 8240   5.473   4.368   4.424  0.9712 -0.6147  0.7453
   22MOL   H219 8241   5.618   4.523   4.217  2.0513  0.1343 -0.1226
   22MOL   H220 8242   5.790   4.400   4.299  0.3945  0.8086 -1.1504
   22MOL   H221 8243   5.679   4.251   4.305  1.9358  0.4662  0.9841
   22MOL   H222 8244   5.774   4.403   4.079 -1.0896  1.0678  1.0785
   22MOL   H223 8245   5.781   4.224   4.107 -0.5575 -1.1902  0.7422
   22MOL   H224 8246   5.549   4.197   4.034  0.7095  0.3257 -2.0929
   22MOL   H225 8247   5.566   4.354   3.961 -1.1299  0.9575  0.7395
   22MOL   H226 8248   5.414   4.426   4.125 -0.1935 -0.2798  0.2842
   22MOL   H227 8249   5.446   4.271   4.220 -0.8688 -0.0590  0.8698
   22MOL   H228 8250   5.644   4.616   4.490  0.5401  0.1620 -1.0445
   22MOL   H229 8251   5.704   4.459   4.483  1.3447  1.8649  0.9605
   22MOL   C230 8252   5.576   4.479   4.648  0.2784  0.2019 -0.0690
   22MOL   C231 8253   5.646   4.567   4.755  0.2462 -0.6291 -0.3134
   22MOL   C232 8254   5.802   4.574   4.758  0.4005 -0.6148 -0.5125
   22MOL   C233 8255   5.844   4.700   4.830 -0.0735 -0.3438 -0.1556
   22MOL   C234 8256   5.714   4.789   4.836 -0.2450 -0.2470 -0.6017
   22MOL   C235 8257   5.608   4.714   4.758 -1.0040  0.1007 -0.3026
   22MOL   C236 8258   5.602   4.326   4.695  0.1437  0.3239  0.5430
   22MOL   H237 8259   5.469   4.494   4.658  0.1043 -0.4486 -0.9257
   22MOL   H238 8260   5.613   4.532   4.853  1.0905  0.2272  0.2856
   22MOL   H239 8261   5.844   4.491   4.814  1.3920 -0.8335 -1.5627
   22MOL   H240 8262   5.849   4.576   4.660  1.3728  1.2761 -0.0406
   22MOL   H241 8263   5.870   4.666   4.930 -3.5118  0.6054  1.1483
   22MOL   H242 8264   5.920   4.754   4.774  1.6874 -0.7673  1.7688
   22MOL   H243 8265   5.731   4.886   4.789 -2.3948  0.4797  0.0574
   22MOL   H244 8266   5.675   4.805   4.937 -1.7747  1.2572 -1.4044
   22MOL   H245 8267   5.607   4.744   4.654 -0.2677 -0.2671 -0.4167
   22MOL   H246 8268   5.505   4.732   4.789 -0.4367  1.6100  0.7687
   22MOL   H247 8269   5.685   4.327   4.765  0.9937 -0.9131 -0.4340
   22MOL   H248 8270   5.647   4.276   4.610 -2.1189 -0.1171 -0.4479
   22MOL   C249 8271   5.476   4.248   4.733 -0.3080  0.0552 -0.4415
   22MOL   C250 8272   5.427   4.290   4.870  0.5574 -0.0944 -0.6615
   22MOL   C251 8273   5.510   4.261   4.991 -1.2929 -0.0306 -0.2555
   22MOL   C252 8274   5.427   4.157   5.077  0.2055 -0.6655 -0.4951
   22MOL   C253 8275   5.287   4.206   5.059 -1.0524  0.4097 -0.0797
   22MOL   C254 8276   5.289   4.237   4.906 -0.0781  0.2830  0.0617
   22MOL   C255 8277   5.521   4.094   4.734  0.3212  0.2406  0.1039
   22MOL   H256 8278   5.395   4.259   4.661 -0.2397  1.3286 -0.3274
   22MOL   H257 8279   5.398   4.395   4.870 -0.0857 -0.2307  1.8886
   22MOL   H258 8280   5.541   4.350   5.045  1.1761 -0.6464 -0.6026
   22MOL   H259 8281   5.601   4.207   4.966 -2.2835 -1.8793  0.0584
   22MOL   H260 8282   5.444   4.153   5.184  0.7848  0.2048 -0.5452
   22MOL   H261 8283   5.438   4.057   5.036  1.2370 -1.4664  1.6729
   22MOL   H262 8284   5.270   4.295   5.120 -1.3167 -0.0540  0.5144
   22MOL   H263 8285   5.210   4.134   5.085  0.8046 -1.4325  0.3441
   22MOL   H264 8286   5.221   4.316   4.874  0.4348  0.1604 -1.3764
   22MOL   H265 8287   5.260   4.147   4.853  0.8084  0.0065  0.0392
   22MOL   H266 8288   5.616   4.079   4.787  0.0560 -1.9870 -0.0128
   22MOL   H267 8289   5.441   4.047   4.790  0.3795  0.3285  0.2617
   22MOL   C268 8290   5.531   4.021   4.594 -1.2743 -0.0292 -0.3315
   22MOL   C269 8291   5.401   4.034   4.505 -0.5317  0.7550  0.2653
   22MOL   C270 8292   5.270   3.965   4.550 -0.5031 -0.0498  0.4792
   22MOL   C271 8293   5.199   3.924   4.419  0.5262  0.1217 -0.0499
   22MOL   C272 8294   5.290   3.962   4.312  0.8133 -0.0787  0.8015
   22MOL   C273 8295   5.425   3.989   4.364 -0.0026  0.8887  0.5857
   22MOL   C274 8296   5.558   3.873   4.621  0.0180 -0.3568 -0.1846
   22MOL   H275 8297   5.610   4.068   4.537  0.1872 -0.5130  1.2437
   22MOL   H276 8298   5.383   4.142   4.503  1.1385  1.0434 -0.2311
   22MOL   H277 8299   5.290   3.866   4.591 -1.6317 -0.0486  1.0625
   22MOL   H278 8300   5.218   4.026   4.624 -0.7965  0.4491 -0.1397
   22MOL   H279 8301   5.182   3.816   4.417  1.0360  0.0528 -0.7530
   22MOL   H280 8302   5.099   3.965   4.406 -0.4952 -1.8674  1.1028
   22MOL   H281 8303   5.250   4.052   4.265  0.2838  1.0012  3.2363
   22MOL   H282 8304   5.291   3.893   4.228  1.5073  1.1286 -0.2177
   22MOL   H283 8305   5.488   4.062   4.313  2.8721 -3.1684 -1.9916
   22MOL   H284 8306   5.481   3.896   4.368 -0.0296  0.8600  0.2547
   22MOL   H285 8307   5.546   3.805   4.537 -0.5615  0.0890 -0.4651
   22MOL   H286 8308   5.484   3.837   4.693  0.5109 -2.9438 -0.9351
   22MOL   C287 8309   5.704   3.829   4.662  0.0619  0.8091  0.2838
   22MOL   C288 8310   5.698   3.694   4.750  0.1538  0.5837  0.1700
   22MOL   C289 8311   5.641   3.574   4.673 -0.9672 -0.5353  0.7203
   22MOL   C290 8312   5.731   3.448   4.699  0.6628  0.1089 -0.1352
   22MOL   C291 8313   5.870   3.516   4.731 -0.1867  0.1914  0.1225
   22MOL   C292 8314   5.836   3.650   4.802 -0.8213 -0.1062  0.0830
   22MOL   C293 8315   5.798   3.825   4.542  0.2671  0.3449  0.4966
   22MOL   H294 8316   5.741   3.899   4.736 -0.9562  0.8289  0.7911
   22MOL   H295 8317   5.634   3.715   4.835  0.2373  0.2078  0.3283
   22MOL   H296 8318   5.538   3.551   4.698 -1.1726  0.8297  1.1464
   22MOL   H297 8319   5.650   3.605   4.569 -0.4883  0.2551  0.9950
   22MOL   H298 8320   5.705   3.392   4.789  1.2226  0.5128  0.2845
   22MOL   H299 8321   5.732   3.373   4.621 -1.0819 -1.1936  1.0640
   22MOL   H300 8322   5.919   3.529   4.634 -0.0434  0.8216  0.2795
   22MOL   H301 8323   5.925   3.442   4.789  2.3057  1.9830  0.0717
   22MOL   H302 8324   5.914   3.724   4.783 -1.2933 -0.0887 -1.8936
   22MOL   H303 8325   5.825   3.646   4.910 -0.7468  1.1000  0.1429
   22MOL   H304 8326   5.753   3.767   4.461  1.7299  0.8123 -0.6758
   22MOL   H305 8327   5.888   3.766   4.557  0.4440  0.5924  0.4124
   22MOL   C306 8328   5.851   3.954   4.482 -0.1051 -0.3493  0.1537
   22MOL   C307 8329   5.885   4.057   4.594 -0.1452 -0.0571 -0.0450
   22MOL   C308 8330   6.008   4.018   4.683 -0.7075  0.7177 -0.0648
   22MOL   C309 8331   6.084   4.149   4.713 -0.6182 -0.2143  0.1881
   22MOL   C310 8332   5.994   4.262   4.655 -0.5830  0.2371  0.0820
   22MOL   C311 8333   5.917   4.196   4.543  0.0284  0.4199  0.2121
   22MOL   C312 8334   5.974   3.920   4.387 -0.3397  0.6359  0.2473
   22MOL   H313 8335   5.768   3.991   4.422 -0.1086 -0.1663  0.2703
   22MOL   H314 8336   5.800   4.073   4.660 -0.7362 -0.2909 -0.7524
   22MOL   H315 8337   6.082   3.958   4.631 -1.9889  0.1480 -1.2607
   22MOL   H316 8338   5.973   3.972   4.775  1.3034  0.1564  0.4356
   22MOL   H317 8339   6.105   4.156   4.820  1.7179 -3.0350 -0.0100
   22MOL   H318 8340   6.181   4.157   4.664 -0.3324 -0.3206  0.7349
   22MOL   H319 8341   6.045   4.347   4.609 -0.0721 -0.9236 -1.5497
   22MOL   H320 8342   5.924   4.286   4.734 -0.1884  1.3763  0.0965
   22MOL   H321 8343   5.833   4.254   4.507  1.2228  1.4466 -0.9495
   22MOL   H322 8344   5.990   4.180   4.464  0.3144 -1.2727  0.7755
   22MOL   H323 8345   5.993   3.814   4.371 -0.1669  0.8837 -1.3084
   22MOL   H324 8346   6.064   3.965   4.429  0.1346 -0.7199  0.6802
   22MOL   C325 8347   5.965   3.972   4.242 -0.1302  0.1749  0.1360
   22MOL   C326 8348   5.869   3.877   4.165  0.1834  0.4428 -0.2835
   22MOL   C327 8349   5.940   3.753   4.105 -0.0048 -0.3436 -0.1009
   22MOL   C328 8350   5.866   3.713   3.975 -0.2921 -0.1981 -0.8706
   22MOL   C329 8351   5.827   3.849   3.914  0.1526  0.4076  0.3992
   22MOL   C330 8352   5.800   3.938   4.038 -0.6044 -0.2229 -0.2219
   22MOL   C331 8353   6.091   4.011   4.164  0.1526  0.3626  0.2658
   22MOL   H332 8354   5.917   4.069   4.251 -1.7894 -0.4606 -1.5171
   22MOL   H333 8355   5.791   3.839   4.231  0.9218  1.2522  1.0653
   22MOL   H334 8356   5.960   3.666   4.168 -0.9721 -0.6540 -0.2198
   22MOL   H335 8357   6.041   3.778   4.071 -0.5315  2.2359  0.1821
   22MOL   H336 8358   5.780   3.648   3.998 -0.5734 -0.5226 -2.7374
   22MOL   H337 8359   5.922   3.656   3.901 -1.8018 -2.7941 -0.0912
   22MOL   H338 8360   5.739   3.842   3.851  0.5657  0.1064 -0.1543
   22MOL   H339 8361   5.915   3.882   3.858  0.4914  1.9536  1.8133
   22MOL   H340 8362   5.693   3.941   4.060 -0.4966 -2.0486  0.5897
   22MOL   H341 8363   5.830   4.042   4.024  1.1581 -0.8167 -1.0963
   22MOL   H342 8364   6.065   4.020   4.059  1.9817  0.3376 -0.2102
   22MOL   H343 8365   6.161   3.927   4.173  1.2518  1.2997  0.6526
   22MOL   C344 8366   6.165   4.134   4.215  0.0573 -0.5736  0.3388
   22MOL   C345 8367   6.090   4.265   4.170  0.3869  0.7722  0.3017
   22MOL   C346 8368   6.101   4.297   4.021  0.1812  0.6234 -0.1669
   22MOL   C347 8369   6.095   4.449   4.016 -0.9531 -0.3066 -0.6995
   22MOL   C348 8370   6.134   4.508   4.157 -0.6480  0.0475  0.2030
   22MOL   C349 8371   6.142   4.388   4.255 -0.6351  0.6905  0.0699
   22MOL   C350 8372   6.324   4.120   4.183 -0.0385  0.3027  0.1972
   22MOL   H351 8373   6.165   4.127   4.324  3.1837 -1.0603  0.3554
   22MOL   H352 8374   5.983   4.260   4.190  0.6431 -2.3176  1.0058
   22MOL   H353 8375   6.024   4.255   3.956 -0.6667 -0.1548  1.3056
   22MOL   H354 8376   6.196   4.261   3.981  0.4187 -0.0200  0.9479
   22MOL   H355 8377   6.163   4.481   3.937  1.5973 -2.0644  0.7198
   22MOL   H356 8378   5.989   4.466   3.996 -1.2861 -0.7639  0.6387
   22MOL   H357 8379   6.045   4.565   4.184 -0.4465  0.8803 -0.8777
   22MOL   H358 8380   6.219   4.575   4.157  0.3756 -1.2149  2.3230
   22MOL   H359 8381   6.248   4.389   4.281 -0.6552  0.5501  0.1575
   22MOL   H360 8382   6.079   4.405   4.343 -2.7680  0.4552 -1.3742
   22MOL   H361 8383   6.363   4.220   4.201 -0.1976  0.2483  0.8675
   22MOL   H362 8384   6.331   4.107   4.075 -0.4861  0.8542  0.1027
   22MOL   C363 8385   6.407   4.015   4.266  0.4000  0.0019 -0.6491
   22MOL   C364 8386   6.535   3.970   4.193 -0.0161 -0.0238  0.0562
   22MOL   C365 8387   6.514   3.884   4.060  0.5011  0.3349 -0.2721
   22MOL   C366 8388   6.628   3.778   4.045 -0.5646  0.4310 -0.3575
   22MOL   C367 8389   6.718   3.806   4.168  0.2641  0.3927  0.2281
   22MOL   C368 8390   6.633   3.877   4.267  0.0017  0.2375  0.8805
   22MOL   C369 8391   6.459   4.084   4.400  0.7568  0.1198 -0.1598
   22MOL   H370 8392   6.343   3.928   4.283  0.3000 -0.4050 -3.0399
   22MOL   H371 8393   6.583   4.062   4.161  0.1637 -0.0138  0.3532
   22MOL   H372 8394   6.427   3.819   4.064  0.2215  0.7985  1.5537
   22MOL   H373 8395   6.496   3.944   3.971 -1.7439  0.3554  0.1745
   22MOL   H374 8396   6.594   3.675   4.057 -1.1491  0.4605 -1.6785
   22MOL   H375 8397   6.673   3.792   3.947 -2.3275 -3.4983 -1.7982
   22MOL   H376 8398   6.772   3.723   4.214 -3.0957 -1.2824  1.2930
   22MOL   H377 8399   6.797   3.875   4.138  0.7903 -0.5078 -0.5101
   22MOL   H378 8400   6.686   3.918   4.353 -0.9619  1.0140  1.1106
   22MOL   H379 8401   6.581   3.797   4.321 -1.0412  0.8272  0.7670
   22MOL   H380 8402   6.378   4.136   4.451  1.1656 -0.6987  1.3567
   22MOL   H381 8403   6.543   4.150   4.380  0.3850  2.0546  4.2583
   22MOL   H382 8404   6.513   4.025   4.474  2.0683 -0.5567 -1.6252
   23MOL     C1 8405   6.531   5.918   2.270  0.2378 -0.0512 -0.1626
   23MOL     C2 8406   6.510   5.965   2.415 -0.1026  0.6248 -0.3772
   23MOL     C3 8407   6.433   5.873   2.514 -0.3668 -0.9155 -0.6713
   23MOL     C4 8408   6.399   5.958   2.632 -0.4485 -0.9356 -0.2124
   23MOL     C5 8409   6.383   6.108   2.572 -0.4404  0.1831 -0.4066
   23MOL     C6 8410   6.432   6.101   2.425  0.3441 -0.1030  0.3052
   23MOL     C7 8411   6.627   6.008   2.195 -0.1026  0.3538  0.0050
   23MOL     H8 8412   6.563   5.814   2.267 -2.0880 -0.7752 -0.9344
   23MOL     H9 8413   6.608   5.973   2.462  0.7093  0.4264 -1.9839
   23MOL    H10 8414   6.342   5.839   2.464 -0.8481 -1.1721  0.3768
   23MOL    H11 8415   6.500   5.790   2.536 -1.7439 -1.5342  1.2625
   23MOL    H12 8416   6.307   5.936   2.684 -1.4565  0.9187 -1.1386
   23MOL    H13 8417   6.481   5.963   2.704  0.8789  5.2207 -1.7739
   23MOL    H14 8418   6.288   6.161   2.578  0.5240  2.3842 -3.3739
   23MOL    H15 8419   6.444   6.175   2.634  0.6465  0.6216 -1.9079
   23MOL    H16 8420   6.492   6.187   2.396  0.7941 -0.7186 -0.6069
   23MOL    H17 8421   6.345   6.085   2.361  0.2285  2.7656 -0.3346
   23MOL    H18 8422   6.598   6.113   2.204  0.6694  0.5078  0.6889
   23MOL    H19 8423   6.724   6.019   2.243 -0.1465 -1.3497  0.5265
   23MOL    H20 8424   6.436   5.907   2.216 -1.9478  0.8156  3.3332
   23MOL    C21 8425   6.661   5.961   2.051  0.2629 -1.1678  0.6312
   23MOL    C22 8426   6.736   5.828   2.041 -0.3364 -0.7057 -0.5043
   23MOL    C23 8427   6.839   5.781   2.153  0.2538 -0.7495 -0.3723
   23MOL    C24 8428   6.898   5.660   2.079  0.2690 -0.7053 -0.2145
   23MOL    C25 8429   6.904   5.696   1.929 -0.1847  0.3385 -0.4068
   23MOL    C26 8430   6.801   5.801   1.908 -0.6083 -0.2309 -0.2001
   23MOL    C27 8431   6.537   5.964   1.955  0.0924 -0.2810  0.3859
   23MOL    H28 8432   6.725   6.038   2.009 -0.3827 -1.1552 -0.3602
   23MOL    H29 8433   6.648   5.764   2.051 -3.2278  2.8559 -2.0909
   23MOL    H30 8434   6.786   5.750   2.243 -2.1873  0.4389 -1.3503
   23MOL    H31 8435   6.926   5.844   2.170 -1.2749  1.3454 -0.0634
   23MOL    H32 8436   7.001   5.647   2.113  0.6993  1.4701 -0.5486
   23MOL    H33 8437   6.847   5.566   2.096  0.3843 -0.4546  1.6768
   23MOL    H34 8438   6.889   5.603   1.875 -0.4364 -0.2361  0.6375
   23MOL    H35 8439   7.006   5.726   1.905 -0.4125  0.2324 -1.5357
   23MOL    H36 8440   6.720   5.759   1.848  0.7487 -1.3220 -1.2909
   23MOL    H37 8441   6.845   5.883   1.851  1.0366 -1.2666 -0.4416
   23MOL    H38 8442   6.568   5.939   1.853 -2.1555 -2.8477  0.2597
   23MOL    H39 8443   6.473   5.878   1.972  0.9707 -1.2754 -1.1254
   23MOL    C40 8444   6.435   6.079   1.941 -1.3124  0.1796  0.2316
   23MOL    C41 8445   6.490   6.184   1.838 -0.7549 -0.2079 -0.7730
   23MOL    C42 8446   6.627   6.243   1.878  0.2424  0.7546 -0.4539
   23MOL    C43 8447   6.647   6.365   1.784  0.2260  0.6195 -0.4861
   23MOL    C44 8448   6.506   6.432   1.790 -0.3732  0.7735 -0.3984
   23MOL    C45 8449   6.404   6.309   1.811  0.4614 -0.3214 -0.0362
   23MOL    C46 8450   6.291   6.035   1.894 -0.4546  0.3216  0.4484
   23MOL    H47 8451   6.427   6.143   2.029 -0.9590 -0.4182  0.7086
   23MOL    H48 8452   6.498   6.136   1.740  0.0885 -1.6224 -0.0284
   23MOL    H49 8453   6.701   6.166   1.858 -0.1448  0.1667  0.3487
   23MOL    H50 8454   6.614   6.264   1.984 -0.0310  1.4410 -0.6209
   23MOL    H51 8455   6.666   6.342   1.679 -1.9063 -0.5676 -0.6381
   23MOL    H52 8456   6.725   6.435   1.814  1.5357 -1.4679  1.0648
   23MOL    H53 8457   6.491   6.499   1.874 -1.2206  0.9380 -0.6803
   23MOL    H54 8458   6.473   6.495   1.708 -3.0731 -0.8938 -0.6428
   23MOL    H55 8459   6.327   6.329   1.886 -0.1415  0.2036 -0.7806
   23MOL    H56 8460   6.350   6.299   1.718  1.0475 -1.0164 -0.3043
   23MOL    H57 8461   6.223   6.120   1.886 -0.7619 -0.0168 -0.6501
   23MOL    H58 8462   6.303   5.994   1.794  1.4323  1.8453  0.0148
   23MOL    C59 8463   6.212   5.949   1.996  0.0322  0.8172  0.3044
   23MOL    C60 8464   6.163   6.031   2.122  0.4763 -0.0758 -0.5403
   23MOL    C61 8465   6.102   5.961   2.241 -0.3774 -0.0382 -0.0697
   23MOL    C62 8466   6.056   6.072   2.333 -0.1122  0.0546  0.5173
   23MOL    C63 8467   6.045   6.198   2.243 -0.2132 -0.2927 -0.0203
   23MOL    C64 8468   6.071   6.153   2.104 -0.0610 -0.4219 -0.6854
   23MOL    C65 8469   6.103   5.864   1.929 -0.3791 -0.3426 -0.3696
   23MOL    H66 8470   6.280   5.873   2.035  2.2931  2.5702 -0.1084
   23MOL    H67 8471   6.252   6.080   2.161 -0.2727 -0.3515  1.5977
   23MOL    H68 8472   6.164   5.881   2.282  2.3658 -0.1859 -4.2672
   23MOL    H69 8473   6.011   5.909   2.212 -0.5475  1.6401 -2.6229
   23MOL    H70 8474   6.136   6.092   2.405  0.1675 -0.2453  0.2974
   23MOL    H71 8475   5.959   6.050   2.377 -0.4902  0.5366 -0.0819
   23MOL    H72 8476   6.110   6.278   2.280 -0.3473 -0.3549  0.3574
   23MOL    H73 8477   5.949   6.248   2.254 -0.3380 -0.7836  1.2337
   23MOL    H74 8478   5.971   6.127   2.069 -0.1868 -1.2536  0.2690
   23MOL    H75 8479   6.113   6.234   2.044  1.0851 -2.4440 -2.7139
   23MOL    H76 8480   6.054   5.930   1.857 -2.7940 -1.1495  0.4941
   23MOL    H77 8481   6.029   5.827   2.000 -0.3206  0.5024  0.1414
   23MOL    C78 8482   6.151   5.737   1.866 -0.0152 -0.1997 -0.3652
   23MOL    C79 8483   6.135   5.612   1.962  0.5357  0.3863  0.3926
   23MOL    C80 8484   5.997   5.554   1.998  0.6729 -0.2768 -0.1814
   23MOL    C81 8485   6.030   5.446   2.107 -0.3121 -0.1509 -0.2674
   23MOL    C82 8486   6.164   5.486   2.176  0.2782 -0.9388  0.4451
   23MOL    C83 8487   6.208   5.609   2.097  0.0525  0.5034 -0.1174
   23MOL    C84 8488   6.092   5.702   1.729  0.3502  0.6542  0.6955
   23MOL    H85 8489   6.259   5.740   1.854  0.1008  0.8022  0.7997
   23MOL    H86 8490   6.181   5.527   1.912 -0.0880  0.4935 -0.3691
   23MOL    H87 8491   5.948   5.502   1.916 -2.2337  1.5004  0.3623
   23MOL    H88 8492   5.934   5.630   2.045  0.3110  0.9225 -2.4956
   23MOL    H89 8493   6.043   5.346   2.066  2.1095 -1.2670  3.0232
   23MOL    H90 8494   5.940   5.437   2.169 -0.5900 -1.6695 -0.8542
   23MOL    H91 8495   6.152   5.515   2.281 -0.3212 -1.0948  0.4213
   23MOL    H92 8496   6.236   5.406   2.160 -1.3518 -3.1804  3.6235
   23MOL    H93 8497   6.178   5.692   2.161 -1.0133  0.0765 -0.0579
   23MOL    H94 8498   6.317   5.610   2.085  0.0179  0.5849 -0.4312
   23MOL    H95 8499   6.023   5.786   1.718  0.7327  1.0871  1.6029
   23MOL    H96 8500   6.028   5.615   1.744 -0.2942  0.5389 -2.4004
   23MOL    C97 8501   6.185   5.696   1.597 -0.0033 -0.7658 -0.0449
   23MOL    C98 8502   6.136   5.781   1.476 -0.1711 -0.5972 -0.0929
   23MOL    C99 8503   6.000   5.749   1.416  0.0384 -0.7053  0.1966
   23MOL   C100 8504   5.974   5.867   1.324 -0.4081  0.1370 -0.2035
   23MOL   C101 8505   6.031   5.987   1.405  0.5321 -0.1719 -0.3292
   23MOL   C102 8506   6.139   5.934   1.502  0.1746  0.5319 -0.0321
   23MOL   C103 8507   6.219   5.555   1.556 -0.2373  0.1373 -0.3572
   23MOL   H104 8508   6.279   5.747   1.620 -1.3290  0.5266  2.7748
   23MOL   H105 8509   6.218   5.766   1.407  0.0598 -2.6776  0.5827
   23MOL   H106 8510   5.999   5.652   1.366 -1.1513  0.4769 -2.1562
   23MOL   H107 8511   5.924   5.749   1.495  0.1794  1.0317  0.3356
   23MOL   H108 8512   5.867   5.875   1.310 -0.6107  1.7012  1.9404
   23MOL   H109 8513   6.015   5.858   1.224  0.4570  1.5622  0.0111
   23MOL   H110 8514   5.958   6.026   1.476  1.8035  0.5085  0.6361
   23MOL   H111 8515   6.062   6.067   1.338 -0.5250 -0.1556 -0.8065
   23MOL   H112 8516   6.238   5.973   1.478  1.3066 -2.3441 -0.2788
   23MOL   H113 8517   6.121   5.948   1.608 -0.7767 -0.3905 -0.0627
   23MOL   H114 8518   6.204   5.490   1.642 -0.1835  0.8170  0.1651
   23MOL   H115 8519   6.141   5.520   1.489 -0.6464 -0.5465  0.4716
   23MOL   C116 8520   6.358   5.524   1.492  0.8813  0.1576  0.2364
   23MOL   C117 8521   6.443   5.462   1.611  0.4259  0.2137 -0.1832
   23MOL   C118 8522   6.590   5.454   1.562  0.4323  0.7673 -0.0819
   23MOL   C119 8523   6.685   5.474   1.683 -0.2095 -0.2684  0.6276
   23MOL   C120 8524   6.590   5.484   1.804  0.0375  0.2999  0.0233
   23MOL   C121 8525   6.464   5.539   1.745 -0.4129 -0.2806  0.4460
   23MOL   C122 8526   6.353   5.431   1.370  0.2713  0.5226  0.4061
   23MOL   H123 8527   6.404   5.622   1.474 -0.3967  0.4245 -1.7205
   23MOL   H124 8528   6.401   5.361   1.620  1.8711 -0.6344 -2.5297
   23MOL   H125 8529   6.609   5.353   1.526  0.9676  1.0901 -0.7083
   23MOL   H126 8530   6.598   5.527   1.482  1.6383  1.5108  0.6993
   23MOL   H127 8531   6.758   5.554   1.668 -0.1549  0.0788  2.5525
   23MOL   H128 8532   6.747   5.384   1.692  1.4723  0.8600  0.6066
   23MOL   H129 8533   6.628   5.554   1.878 -0.7197  1.1882 -0.4080
   23MOL   H130 8534   6.564   5.388   1.847  1.9669 -1.1003 -1.7995
   23MOL   H131 8535   6.368   5.531   1.796 -1.4640  0.4445 -1.3651
   23MOL   H132 8536   6.491   5.640   1.713 -0.4586 -0.2633  0.4637
   23MOL   H133 8537   6.277   5.354   1.384 -1.2721  1.9567  0.1707
   23MOL   H134 8538   6.443   5.371   1.371  0.3812  0.6828  0.1698
   23MOL   C135 8539   6.345   5.503   1.237 -0.1876 -0.1858  0.3611
   23MOL   C136 8540   6.287   5.406   1.130  0.2305 -0.6957  0.6864
   23MOL   C137 8541   6.141   5.363   1.149 -0.7947 -0.4189  0.2759
   23MOL   C138 8542   6.121   5.246   1.053 -0.4165  0.0548 -0.1382
   23MOL   C139 8543   6.265   5.198   1.018  0.4579 -0.1210 -0.3267
   23MOL   C140 8544   6.362   5.283   1.098 -0.4553 -0.3381  0.4958
   23MOL   C141 8545   6.470   5.583   1.197  0.2613 -0.1703  0.3119
   23MOL   H142 8546   6.269   5.580   1.252  1.5241  1.8074 -1.0592
   23MOL   H143 8547   6.274   5.456   1.033  2.0383 -0.7140  0.4132
   23MOL   H144 8548   6.121   5.332   1.252  0.0927 -0.1163  0.5454
   23MOL   H145 8549   6.073   5.446   1.131 -0.0245  0.1932  0.1705
   23MOL   H146 8550   6.071   5.285   0.965  0.1169 -0.6858 -0.7798
   23MOL   H147 8551   6.057   5.171   1.100 -1.6506  2.1586  1.6296
   23MOL   H148 8552   6.291   5.202   0.912  1.1341 -0.4749 -0.1781
   23MOL   H149 8553   6.276   5.094   1.049  0.6783  0.6687  2.4027
   23MOL   H150 8554   6.381   5.224   1.187  0.4550  2.4345  2.1860
   23MOL   H151 8555   6.456   5.305   1.047 -1.3725  3.6202  0.4165
   23MOL   H152 8556   6.558   5.521   1.219  0.9857  0.4360 -0.8390
   23MOL   H153 8557   6.482   5.666   1.266  3.6426  0.8463 -1.3587
   23MOL   C154 8558   6.471   5.633   1.049 -0.6560  0.0226  0.2763
   23MOL   C155 8559   6.362   5.748   1.025 -0.1453  0.6075 -0.9478
   23MOL   C156 8560   6.379   5.802   0.877  0.1605 -0.5363 -0.4427
   23MOL   C157 8561   6.340   5.953   0.886  0.2039 -0.3877  0.0996
   23MOL   C158 8562   6.312   5.992   1.035  0.7390  0.4564  0.1891
   23MOL   C159 8563   6.378   5.878   1.115  0.1180  0.4553  0.0293
   23MOL   C160 8564   6.616   5.667   1.012 -0.0753  0.0650 -0.3026
   23MOL   H161 8565   6.438   5.550   0.987 -1.1622  0.9761 -0.7410
   23MOL   H162 8566   6.265   5.700   1.039 -0.1921  0.6451 -1.1528
   23MOL   H163 8567   6.473   5.783   0.824  0.6726 -0.3064  0.3759
   23MOL   H164 8568   6.299   5.761   0.815  0.4624 -0.7204 -0.7174
   23MOL   H165 8569   6.413   6.024   0.846 -0.9702  1.6209  1.3941
   23MOL   H166 8570   6.252   5.973   0.827  1.3409 -0.1456 -1.5447
   23MOL   H167 8571   6.205   5.999   1.059  0.7428  1.4194 -0.0628
   23MOL   H168 8572   6.352   6.085   1.075 -1.8877  1.4810  0.5617
   23MOL   H169 8573   6.336   5.869   1.215  0.5269 -1.6459  0.0319
   23MOL   H170 8574   6.482   5.902   1.135  0.9547 -1.9727 -1.1821
   23MOL   H171 8575   6.694   5.661   1.088 -2.2457 -0.4806  1.9162
   23MOL   H172 8576   6.609   5.771   0.980  0.1495 -0.1941 -1.2220
   23MOL   C173 8577   6.684   5.596   0.891  0.0705  0.0556  0.1868
   23MOL   C174 8578   6.690   5.444   0.908 -0.1361 -0.0013 -0.0288
   23MOL   C175 8579   6.746   5.391   1.037 -0.0736  0.5325 -0.1752
   23MOL   C176 8580   6.866   5.309   0.998 -0.0809  0.1864  0.3122
   23MOL   C177 8581   6.832   5.249   0.859 -0.0643 -0.3568 -0.9755
   23MOL   C178 8582   6.765   5.362   0.798  0.4364  0.5715  0.3585
   23MOL   C179 8583   6.824   5.656   0.855  0.0591 -0.0448 -0.1131
   23MOL   H180 8584   6.624   5.613   0.802 -0.3794 -1.2649  0.2309
   23MOL   H181 8585   6.585   5.415   0.901  0.4829 -2.0019 -1.7230
   23MOL   H182 8586   6.682   5.328   1.098  1.1455 -0.1806  0.3779
   23MOL   H183 8587   6.784   5.459   1.113  0.9470  1.0009 -1.0848
   23MOL   H184 8588   6.954   5.373   0.989 -0.4044  0.5331 -0.4221
   23MOL   H185 8589   6.892   5.244   1.081 -0.8825 -0.0864  0.3490
   23MOL   H186 8590   6.763   5.167   0.878  0.5129 -0.1864  2.1303
   23MOL   H187 8591   6.928   5.216   0.819  0.7188 -0.2761  0.8288
   23MOL   H188 8592   6.848   5.415   0.750 -0.2807  1.2382 -0.1802
   23MOL   H189 8593   6.702   5.316   0.722  1.3092  3.5432 -2.3073
   23MOL   H190 8594   6.901   5.610   0.918  0.0834 -2.0117 -1.5343
   23MOL   H191 8595   6.854   5.636   0.752 -3.3377  1.6894 -1.4970
   23MOL   C192 8596   6.845   5.813   0.868  0.2244  0.9173 -0.2102
   23MOL   C193 8597   6.755   5.896   0.778  0.3764 -0.2803 -0.2758
   23MOL   C194 8598   6.786   5.899   0.629 -0.2178  0.3589  0.9613
   23MOL   C195 8599   6.718   6.024   0.587 -0.1168 -0.1275 -0.4846
   23MOL   C196 8600   6.738   6.123   0.699  0.3937 -0.2686 -0.1796
   23MOL   C197 8601   6.731   6.043   0.823 -0.2214 -0.3370 -0.1834
   23MOL   C198 8602   6.991   5.860   0.851 -0.1634 -0.3788  0.4320
   23MOL   H199 8603   6.812   5.842   0.968  1.2566  2.6491 -0.3505
   23MOL   H200 8604   6.658   5.846   0.786  1.1394 -1.5654  1.4180
   23MOL   H201 8605   6.754   5.815   0.567 -0.8504  1.3363 -0.0375
   23MOL   H202 8606   6.893   5.916   0.619  0.0434 -1.1885  0.9605
   23MOL   H203 8607   6.754   6.063   0.492  1.4488 -1.6544 -0.5290
   23MOL   H204 8608   6.611   6.008   0.573  0.0398 -0.1284 -1.6863
   23MOL   H205 8609   6.672   6.209   0.695  0.9374  0.3029  2.4054
   23MOL   H206 8610   6.835   6.173   0.701 -0.9750  2.3880  2.2204
   23MOL   H207 8611   6.636   6.053   0.876 -0.8111  2.6881 -1.6745
   23MOL   H208 8612   6.812   6.076   0.888 -0.6781 -0.1008  0.2751
   23MOL   H209 8613   7.030   5.811   0.761  0.6515  0.8877  0.0829
   23MOL   H210 8614   6.991   5.965   0.821 -1.7387 -0.5066 -0.0228
   23MOL   C211 8615   7.071   5.842   0.980 -0.2043  0.1089 -0.0156
   23MOL   C212 8616   7.222   5.847   0.961  0.1701  0.4749 -0.2388
   23MOL   C213 8617   7.281   5.726   0.884 -0.8795  0.1906 -0.9414
   23MOL   C214 8618   7.403   5.781   0.810  0.0646 -0.4855 -0.5272
   23MOL   C215 8619   7.362   5.927   0.780  0.3336 -0.6416 -0.4180
   23MOL   C216 8620   7.280   5.976   0.901  0.4182  0.0098  0.6411
   23MOL   C217 8621   7.029   5.939   1.095  0.5571 -0.5972  0.3739
   23MOL   H218 8622   7.052   5.737   1.002  0.2078  0.6680  3.2059
   23MOL   H219 8623   7.262   5.837   1.062 -0.2088 -0.1371 -0.1488
   23MOL   H220 8624   7.317   5.642   0.942 -1.5474  0.2949 -0.3721
   23MOL   H221 8625   7.207   5.684   0.817  1.1889  0.5287 -3.5116
   23MOL   H222 8626   7.495   5.762   0.865 -1.3941 -0.1049  2.1247
   23MOL   H223 8627   7.418   5.726   0.717  0.3709 -1.2932 -0.0059
   23MOL   H224 8628   7.305   5.915   0.688  0.4118  1.6973 -0.8079
   23MOL   H225 8629   7.453   5.987   0.768  0.1094  0.8712  4.1894
   23MOL   H226 8630   7.346   6.026   0.971  1.0019  0.2364 -0.0632
   23MOL   H227 8631   7.205   6.050   0.871 -0.1215 -0.7286  0.1661
   23MOL   H228 8632   6.922   5.943   1.115  0.6992 -0.9505  1.2038
   23MOL   H229 8633   7.059   6.042   1.074  0.8322 -0.9173 -0.8206
   23MOL   C230 8634   7.080   5.902   1.236  0.1890 -0.9309  0.1670
   23MOL   C231 8635   7.075   5.751   1.275 -0.5740 -0.4198 -0.0794
   23MOL   C232 8636   7.170   5.717   1.394 -0.5475 -0.4371 -0.1841
   23MOL   C233 8637   7.104   5.596   1.468 -0.4755 -0.0209 -0.1486
   23MOL   C234 8638   6.975   5.565   1.394  0.2564 -0.5453 -0.4095
   23MOL   C235 8639   6.940   5.689   1.314 -0.4416 -0.1380 -0.3573
   23MOL   C236 8640   7.018   5.988   1.350  0.3604  0.0029  0.4255
   23MOL   H237 8641   7.187   5.919   1.245  0.0845 -1.2547  2.1955
   23MOL   H238 8642   7.111   5.691   1.192 -0.1736  0.5505 -0.6107
   23MOL   H239 8643   7.260   5.678   1.346  0.3112  0.5917  0.5732
   23MOL   H240 8644   7.197   5.799   1.460  1.1647 -0.1545 -1.2239
   23MOL   H241 8645   7.172   5.511   1.468 -0.6181 -0.1361 -0.4480
   23MOL   H242 8646   7.083   5.626   1.570  0.5473  0.6921 -0.1360
   23MOL   H243 8647   6.886   5.551   1.456  1.0865 -1.6579  0.5433
   23MOL   H244 8648   6.999   5.487   1.322 -0.4072  0.2497 -1.5164
   23MOL   H245 8649   6.878   5.742   1.387  0.8292 -0.8542  1.2902
   23MOL   H246 8650   6.871   5.670   1.232 -0.9520 -2.7684  0.6254
   23MOL   H247 8651   7.047   5.948   1.447 -0.0648 -1.2883  0.0420
   23MOL   H248 8652   6.914   5.954   1.351  0.9916 -2.0113  0.4536
   23MOL   C249 8653   7.026   6.146   1.347 -0.2636  0.3802  0.1385
   23MOL   C250 8654   7.173   6.195   1.367 -0.9317 -0.8260 -0.1624
   23MOL   C251 8655   7.195   6.337   1.410 -0.0046  1.5355  0.0987
   23MOL   C252 8656   7.343   6.359   1.378 -0.1875 -0.4820  0.3198
   23MOL   C253 8657   7.390   6.260   1.268 -0.0183  0.4203 -0.1085
   23MOL   C254 8658   7.263   6.183   1.240 -0.1774  0.3856  0.5956
   23MOL   C255 8659   6.927   6.196   1.458 -0.5597  0.2719  0.0957
   23MOL   H256 8660   7.006   6.171   1.243 -0.8290  0.4215  0.2555
   23MOL   H257 8661   7.208   6.138   1.453 -0.5392  0.0370  0.2622
   23MOL   H258 8662   7.162   6.367   1.509 -0.3971 -0.6995  0.6764
   23MOL   H259 8663   7.136   6.393   1.337 -0.7346  2.5041  1.4194
   23MOL   H260 8664   7.392   6.340   1.473 -0.6267  1.6390  1.0014
   23MOL   H261 8665   7.372   6.460   1.349 -2.8249  0.0441 -0.6959
   23MOL   H262 8666   7.470   6.200   1.312 -0.7819 -1.9612 -1.8778
   23MOL   H263 8667   7.428   6.309   1.179  0.1114  1.6826  0.6248
   23MOL   H264 8668   7.289   6.083   1.204  0.5995  0.4564  0.9551
   23MOL   H265 8669   7.214   6.238   1.161 -0.9434 -0.3382  0.5537
   23MOL   H266 8670   6.941   6.141   1.552  1.8637 -1.3136 -1.1523
   23MOL   H267 8671   6.963   6.296   1.481  0.3389  0.2097 -1.0015
   23MOL   C268 8672   6.779   6.196   1.420 -0.6806 -0.1251  0.0066
   23MOL   C269 8673   6.703   6.063   1.428 -0.4340  0.4022 -0.4003
   23MOL   C270 8674   6.550   6.073   1.438 -0.0957  0.2686  0.2742
   23MOL   C271 8675   6.501   5.942   1.504 -0.4294  0.4440 -0.9126
   23MOL   C272 8676   6.629   5.874   1.545  0.5043  0.5121  0.1695
   23MOL   C273 8677   6.734   5.980   1.551 -0.4589  0.6529  0.0510
   23MOL   C274 8678   6.753   6.275   1.282  0.1084  0.1098  0.0621
   23MOL   H275 8679   6.734   6.260   1.496 -0.8105 -0.0445 -0.1395
   23MOL   H276 8680   6.726   6.010   1.335  1.6688  0.2563  0.1737
   23MOL   H277 8681   6.522   6.167   1.487 -0.6188  1.4878 -2.2680
   23MOL   H278 8682   6.513   6.090   1.337  1.2313  0.1362 -0.2423
   23MOL   H279 8683   6.445   5.963   1.595  0.0633 -1.4911 -0.1287
   23MOL   H280 8684   6.443   5.881   1.434  0.1541  0.3758 -1.3458
   23MOL   H281 8685   6.640   5.801   1.465  1.5147  1.6733 -0.7666
   23MOL   H282 8686   6.612   5.825   1.641 -1.3734  0.6647 -0.0668
   23MOL   H283 8687   6.831   5.930   1.557 -1.7756 -1.7503  2.4224
   23MOL   H284 8688   6.739   6.042   1.641  0.5951  0.3501  0.2088
   23MOL   H285 8689   6.646   6.282   1.265 -0.3805  0.3061  3.0093
   23MOL   H286 8690   6.792   6.211   1.203  1.5306 -0.0498  0.8640
   23MOL   C287 8691   6.813   6.414   1.261 -0.0332  0.0670  0.1516
   23MOL   C288 8692   6.820   6.460   1.114  0.0886  0.3013 -0.1683
   23MOL   C289 8693   6.923   6.390   1.024  0.7352  0.4361 -0.3117
   23MOL   C290 8694   6.881   6.440   0.884  0.3030 -1.0902  0.1178
   23MOL   C291 8695   6.736   6.476   0.890  0.5103 -0.4528  0.7955
   23MOL   C292 8696   6.684   6.466   1.033  0.1830  1.6546  0.1574
   23MOL   C293 8697   6.745   6.515   1.355 -0.2246 -0.4803 -0.5909
   23MOL   H294 8698   6.919   6.416   1.284  0.2294 -0.4606 -0.9687
   23MOL   H295 8699   6.846   6.566   1.109 -0.3480  0.4450  0.5526
   23MOL   H296 8700   7.026   6.406   1.057  0.1451 -0.3919  1.9922
   23MOL   H297 8701   6.914   6.282   1.029  0.9821  0.3166 -2.1426
   23MOL   H298 8702   6.936   6.533   0.866  0.4638 -0.8859  1.5871
   23MOL   H299 8703   6.907   6.373   0.802  1.4279  1.0128 -1.3073
   23MOL   H300 8704   6.668   6.422   0.824 -0.9674  1.2579  0.8938
   23MOL   H301 8705   6.732   6.581   0.861 -0.0529 -0.5771  0.4196
   23MOL   H302 8706   6.618   6.379   1.030 -0.3522  2.0165  1.4603
   23MOL   H303 8707   6.614   6.542   1.066 -1.5950 -0.3749  1.2376
   23MOL   H304 8708   6.776   6.481   1.454  0.7307  1.6524 -0.1347
   23MOL   H305 8709   6.637   6.509   1.347 -0.3337  0.4756  0.0930
   23MOL   C306 8710   6.785   6.666   1.347  0.8825 -0.4452 -0.1096
   23MOL   C307 8711   6.708   6.764   1.442  0.1944 -0.8449  0.0173
   23MOL   C308 8712   6.562   6.798   1.409 -1.0290 -0.2847  0.0182
   23MOL   C309 8713   6.478   6.838   1.528  0.1030 -0.1773  0.0756
   23MOL   C310 8714   6.564   6.800   1.648 -0.6889  0.0357  1.0362
   23MOL   C311 8715   6.677   6.718   1.586 -0.8245 -0.4430  0.5335
   23MOL   C312 8716   6.936   6.683   1.368  0.1865  0.2221 -0.4259
   23MOL   H313 8717   6.767   6.703   1.246  0.1052 -0.4885  0.0132
   23MOL   H314 8718   6.761   6.858   1.453 -2.3571  0.3793  2.8773
   23MOL   H315 8719   6.523   6.709   1.360  0.4551 -0.7431 -0.3571
   23MOL   H316 8720   6.565   6.877   1.334  1.1148 -1.8663 -1.6230
   23MOL   H317 8721   6.456   6.944   1.540 -1.5025 -0.4395 -0.4927
   23MOL   H318 8722   6.377   6.798   1.528 -0.5535  1.3693 -1.9293
   23MOL   H319 8723   6.504   6.742   1.718 -2.7741  0.2686 -0.5295
   23MOL   H320 8724   6.612   6.885   1.697 -0.1378  0.2687  0.1023
   23MOL   H321 8725   6.765   6.703   1.650 -1.7074  1.1387  2.1510
   23MOL   H322 8726   6.660   6.611   1.571  3.3199 -1.3906  1.8690
   23MOL   H323 8727   6.989   6.609   1.308  0.6976 -1.0899  1.5999
   23MOL   H324 8728   6.970   6.648   1.466 -1.6760  0.8375  0.4682
   23MOL   C325 8729   7.005   6.819   1.347 -0.0118 -0.2615  0.0510
   23MOL   C326 8730   7.136   6.824   1.262  0.4404 -0.3169 -0.4346
   23MOL   C327 8731   7.113   6.795   1.106  0.7344  0.3875 -1.1264
   23MOL   C328 8732   7.242   6.726   1.056 -0.6092  0.1792  0.0962
   23MOL   C329 8733   7.300   6.648   1.171  0.2401 -0.1173  0.0485
   23MOL   C330 8734   7.262   6.726   1.296  0.5040  0.1894  0.1709
   23MOL   C331 8735   7.038   6.887   1.485 -1.1418 -0.0919  0.0951
   23MOL   H332 8736   6.934   6.873   1.285  0.5106 -1.8566 -2.0278
   23MOL   H333 8737   7.173   6.926   1.268 -1.8103  0.4685  0.5930
   23MOL   H334 8738   7.092   6.888   1.053 -0.9473  0.9165  0.4297
   23MOL   H335 8739   7.019   6.740   1.101  1.0780 -0.2856 -0.3204
   23MOL   H336 8740   7.312   6.796   1.012 -1.9318  0.6371 -1.3234
   23MOL   H337 8741   7.212   6.674   0.965 -1.2806  1.8926 -0.6720
   23MOL   H338 8742   7.408   6.632   1.170  0.1870 -0.5282  0.6911
   23MOL   H339 8743   7.255   6.549   1.175 -1.2030  0.5430  0.5634
   23MOL   H340 8744   7.344   6.794   1.322 -1.2196  1.6116  1.9959
   23MOL   H341 8745   7.244   6.660   1.380 -1.4553  0.2422 -0.1824
   23MOL   H342 8746   7.127   6.831   1.514 -0.4442  0.8172 -0.2785
   23MOL   H343 8747   6.957   6.869   1.557 -3.4178  1.9778 -1.8466
   23MOL   C344 8748   7.064   7.040   1.485  0.7345  0.0757  0.6094
   23MOL   C345 8749   7.066   7.096   1.633 -0.1940  0.2536  0.8926
   23MOL   C346 8750   7.161   7.034   1.731  0.2467  0.4201 -0.6656
   23MOL   C347 8751   7.124   7.090   1.868  0.0572  0.1307 -0.3165
   23MOL   C348 8752   6.979   7.134   1.847  0.8881 -0.1875 -0.0986
   23MOL   C349 8753   6.934   7.108   1.704 -0.4304 -0.2928 -0.4008
   23MOL   C350 8754   6.965   7.116   1.392 -0.7854 -0.5775 -0.6890
   23MOL   H351 8755   7.156   7.061   1.431  0.4729  1.0491  0.5343
   23MOL   H352 8756   7.109   7.196   1.622  1.8227 -0.6170  0.5992
   23MOL   H353 8757   7.269   7.049   1.731  0.1601  1.0912  0.3216
   23MOL   H354 8758   7.142   6.926   1.737  1.1338  0.2803 -0.2786
   23MOL   H355 8759   7.140   7.016   1.945 -0.4290  0.1974 -0.1498
   23MOL   H356 8760   7.181   7.179   1.894  1.4855 -0.4224 -1.4987
   23MOL   H357 8761   6.981   7.241   1.866 -0.9403 -0.7303  3.4179
   23MOL   H358 8762   6.911   7.097   1.923 -0.2751  0.1434 -0.9593
   23MOL   H359 8763   6.879   7.016   1.725 -0.1611 -0.1869  0.7830
   23MOL   H360 8764   6.866   7.184   1.665 -1.1369 -1.0474 -0.6665
   23MOL   H361 8765   6.870   7.079   1.431 -0.8992  0.2539 -0.1764
   23MOL   H362 8766   6.965   7.084   1.288  1.0762  1.8647 -1.4681
   23MOL   C363 8767   6.965   7.266   1.397 -0.4922  0.0578  0.1301
   23MOL   C364 8768   7.102   7.320   1.351  0.1790 -0.0841 -0.6916
   23MOL   C365 8769   7.113   7.473   1.365 -0.3589  0.0539  0.0013
   23MOL   C366 8770   7.111   7.539   1.226 -0.0048  0.4712 -0.1975
   23MOL   C367 8771   7.180   7.434   1.140 -0.0708  0.0908 -0.0679
   23MOL   C368 8772   7.129   7.297   1.197 -0.1550  0.1956 -0.5206
   23MOL   C369 8773   6.840   7.323   1.322  0.1971 -0.4472 -0.5049
   23MOL   H370 8774   6.961   7.285   1.504  2.8668 -2.9671  0.8824
   23MOL   H371 8775   7.182   7.276   1.410  1.1742  0.5076 -1.5794
   23MOL   H372 8776   7.039   7.510   1.435  1.1112  1.4322  0.8442
   23MOL   H373 8777   7.209   7.490   1.414 -0.0702 -0.3414 -0.4186
   23MOL   H374 8778   7.012   7.558   1.186  0.3640  0.9294 -0.9016
   23MOL   H375 8779   7.165   7.633   1.231  0.1462  0.4243 -0.8581
   23MOL   H376 8780   7.156   7.439   1.034  0.7674 -2.1632 -0.3890
   23MOL   H377 8781   7.289   7.442   1.143 -0.1618  1.3841 -0.0699
   23MOL   H378 8782   7.198   7.218   1.167 -0.6219 -0.2692 -0.3796
   23MOL   H379 8783   7.042   7.261   1.143 -1.5040  1.4201  0.8108
   23MOL   H380 8784   6.796   7.413   1.364  2.0271  0.2355 -0.0063
   23MOL   H381 8785   6.761   7.248   1.319  0.1205 -0.4471  1.1579
   23MOL   H382 8786   6.869   7.364   1.225  1.4531 -0.0375  0.0301
   24MOL     C1 8787   1.494   3.408   0.264 -0.1993 -0.1347  0.9871
   24MOL     C2 8788   1.519   3.286   0.164  0.4900 -0.0058 -0.2240
   24MOL     C3 8789   1.655   3.215   0.197 -0.6764 -0.1828  0.2542
   24MOL     C4 8790   1.728   3.185   0.066  0.5481 -0.4488  0.1239
   24MOL     C5 8791   1.621   3.215   7.649 -0.4925 -0.1788  0.5463
   24MOL     C6 8792   1.548   3.338   0.018 -0.0293  0.9227 -0.2243
   24MOL     C7 8793   1.447   3.368   0.402 -0.3216 -0.2162  0.0270
   24MOL     H8 8794   1.583   3.470   0.271 -0.8217  1.1850 -2.1126
   24MOL     H9 8795   1.430   3.225   0.150 -1.4142  2.5834  0.1300
   24MOL    H10 8796   1.715   3.281   0.259  1.0748 -1.4702 -0.0546
   24MOL    H11 8797   1.643   3.121   0.250  0.1278 -1.4478 -1.7352
   24MOL    H12 8798   1.817   3.246   0.053  1.5119 -1.8924 -0.0740
   24MOL    H13 8799   1.753   3.080   0.055  1.5993  0.0119 -2.1780
   24MOL    H14 8800   1.666   3.248   7.555 -1.0033 -0.1991  0.2934
   24MOL    H15 8801   1.555   3.133   7.621  0.2793  0.0030 -1.9245
   24MOL    H16 8802   1.459   3.361   7.649 -1.0506 -1.0901  0.4841
   24MOL    H17 8803   1.607   3.430   0.023  0.5592  0.7591 -3.4245
   24MOL    H18 8804   1.377   3.285   0.389  1.9224 -1.7495 -2.8647
   24MOL    H19 8805   1.535   3.334   0.455  1.3281 -0.3899 -2.7306
   24MOL    H20 8806   1.423   3.474   0.214 -0.6032  1.6575  3.7964
   24MOL    C21 8807   1.387   3.492   0.477 -0.3321  0.0891  0.2382
   24MOL    C22 8808   1.286   3.438   0.583 -0.6499  1.0410 -0.2384
   24MOL    C23 8809   1.169   3.349   0.535  0.5026 -0.1904  0.3903
   24MOL    C24 8810   1.061   3.344   0.653  0.0918 -0.1389  0.0415
   24MOL    C25 8811   1.074   3.489   0.700 -0.0506  0.3145 -0.0792
   24MOL    C26 8812   1.211   3.545   0.658 -0.2492  0.2774  0.6289
   24MOL    C27 8813   1.508   3.584   0.532 -0.8175  0.1311  0.2174
   24MOL    H28 8814   1.326   3.552   0.409 -3.4344 -1.2514  1.7293
   24MOL    H29 8815   1.350   3.383   0.652 -0.7508  0.8730 -0.2767
   24MOL    H30 8816   1.190   3.246   0.504  1.0733  0.4278 -1.3479
   24MOL    H31 8817   1.119   3.384   0.444  2.1268 -0.6662 -0.7198
   24MOL    H32 8818   0.961   3.316   0.621 -0.4707  0.4135  1.2733
   24MOL    H33 8819   1.083   3.273   0.732 -0.7988  0.5482  0.9215
   24MOL    H34 8820   1.056   3.514   0.805  2.3782  1.2349  0.1426
   24MOL    H35 8821   0.993   3.529   0.639 -0.6755 -0.5352  0.1922
   24MOL    H36 8822   1.274   3.590   0.735  0.9488  0.0171 -0.1884
   24MOL    H37 8823   1.189   3.624   0.585  0.3690 -1.7467 -1.8422
   24MOL    H38 8824   1.536   3.553   0.632 -2.4690 -1.6358  0.1614
   24MOL    H39 8825   1.593   3.571   0.465 -0.0474  0.9135  1.0264
   24MOL    C40 8826   1.485   3.735   0.524  0.6597 -0.1336  0.4033
   24MOL    C41 8827   1.593   3.805   0.612  0.1839 -0.5923 -0.1265
   24MOL    C42 8828   1.557   3.780   0.762  0.1601  0.4025  0.4706
   24MOL    C43 8829   1.623   3.892   0.845  0.4977 -0.1894 -0.2525
   24MOL    C44 8830   1.673   3.988   0.741 -0.0235  0.3744 -0.0803
   24MOL    C45 8831   1.592   3.957   0.605  0.1679  0.2180 -0.3001
   24MOL    C46 8832   1.489   3.784   0.376 -0.4310 -0.5968 -0.0593
   24MOL    H47 8833   1.383   3.752   0.559  0.8088  1.7860 -0.0238
   24MOL    H48 8834   1.687   3.758   0.585 -0.8305 -0.5961 -3.7755
   24MOL    H49 8835   1.601   3.689   0.803  0.1773 -0.7222 -1.9602
   24MOL    H50 8836   1.449   3.780   0.780  0.2011 -1.7521  0.8571
   24MOL    H51 8837   1.713   3.868   0.901  0.4812  0.6295  0.1288
   24MOL    H52 8838   1.559   3.936   0.920  0.9823 -0.4204  0.3006
   24MOL    H53 8839   1.650   4.087   0.780 -0.1088 -0.2632  1.5244
   24MOL    H54 8840   1.781   3.979   0.730 -0.2076  0.4129 -2.2110
   24MOL    H55 8841   1.494   4.006   0.613 -0.1739 -0.2812 -1.4056
   24MOL    H56 8842   1.632   4.002   0.514  0.2280 -1.2055 -0.9805
   24MOL    H57 8843   1.593   3.816   0.373 -0.6929  0.2699 -0.2871
   24MOL    H58 8844   1.474   3.701   0.307 -0.7814 -0.7516  0.2033
   24MOL    C59 8845   1.397   3.900   0.332 -0.2699 -0.3399 -0.3531
   24MOL    C60 8846   1.450   3.976   0.201  1.0384  0.2304  0.2491
   24MOL    C61 8847   1.474   3.872   0.091  0.0209 -0.5230 -0.3838
   24MOL    C62 8848   1.558   3.938   7.671 -0.6952  0.3844 -0.3769
   24MOL    C63 8849   1.638   4.038   0.074 -1.1970 -0.1989  0.0492
   24MOL    C64 8850   1.580   4.039   0.211  0.2347  0.5586  0.3406
   24MOL    C65 8851   1.252   3.848   0.309  0.3968 -0.4387  0.5166
   24MOL    H66 8852   1.402   3.978   0.408  2.2835 -1.2363  0.4597
   24MOL    H67 8853   1.385   4.056   0.164 -0.8158 -0.8257  1.1332
   24MOL    H68 8854   1.378   3.832   0.057 -0.1168  0.6592 -1.4073
   24MOL    H69 8855   1.529   3.782   0.119  1.3505  0.6279  0.7185
   24MOL    H70 8856   1.491   3.995   7.606 -2.8347  0.3197  1.6899
   24MOL    H71 8857   1.622   3.871   7.614 -0.4654  0.1636  0.1305
   24MOL    H72 8858   1.601   4.137   0.046 -1.7842 -0.3888  0.1407
   24MOL    H73 8859   1.746   4.033   0.065 -1.0922  2.9928 -1.2609
   24MOL    H74 8860   1.658   3.986   0.265 -0.8062 -3.5726 -2.0085
   24MOL    H75 8861   1.573   4.132   0.268 -0.1028  0.9642 -0.3527
   24MOL    H76 8862   1.230   3.769   0.380 -0.4463 -1.8448 -1.2489
   24MOL    H77 8863   1.248   3.794   0.214 -0.9062 -0.1567  0.4008
   24MOL    C78 8864   1.144   3.957   0.327 -0.9100  0.3535  0.3272
   24MOL    C79 8865   1.045   3.957   0.206  0.6320  0.4761 -0.0194
   24MOL    C80 8866   0.931   3.851   0.208 -0.4070  0.5056 -0.8440
   24MOL    C81 8867   0.972   3.734   0.125 -0.0975 -0.7424 -0.3614
   24MOL    C82 8868   1.075   3.792   0.023  0.1632  0.6596 -0.4749
   24MOL    C83 8869   1.101   3.945   0.063  0.3030 -0.0978 -0.6268
   24MOL    C84 8870   1.088   3.972   0.469 -0.1663  0.5718  0.9445
   24MOL    H85 8871   1.199   4.050   0.312  0.2284 -0.1853  1.0880
   24MOL    H86 8872   1.001   4.056   0.202 -1.1419 -0.2081  1.6318
   24MOL    H87 8873   0.841   3.895   0.167 -0.5612 -0.1907 -1.2521
   24MOL    H88 8874   0.902   3.815   0.307  0.8684  0.4494 -0.4850
   24MOL    H89 8875   0.889   3.693   0.068 -1.1826  0.8270  0.0718
   24MOL    H90 8876   1.010   3.655   0.189  0.4156 -1.4686 -1.5309
   24MOL    H91 8877   1.165   3.733   0.043  0.2486  0.2287 -2.0386
   24MOL    H92 8878   1.041   3.787   7.609  0.2664  0.1636 -0.4850
   24MOL    H93 8879   1.207   3.971   0.061  0.8350 -2.2027 -1.0796
   24MOL    H94 8880   1.043   4.006   7.683 -0.1179 -0.2094 -0.3758
   24MOL    H95 8881   1.110   3.884   0.528  0.2787  0.7804  1.0911
   24MOL    H96 8882   0.981   3.991   0.457 -0.4201 -0.5729  1.3911
   24MOL    C97 8883   1.141   4.090   0.543 -0.8348  0.7199 -0.9890
   24MOL    C98 8884   1.117   4.073   0.701 -0.1446  0.3176 -0.1574
   24MOL    C99 8885   0.977   4.024   0.745 -0.0218  0.6963 -0.2300
   24MOL   C100 8886   1.013   3.982   0.890  0.0239 -0.3443  0.3297
   24MOL   C101 8887   1.144   3.891   0.870  0.0780  0.1865 -0.2748
   24MOL   C102 8888   1.212   3.970   0.758 -0.1477 -0.9888 -0.5792
   24MOL   C103 8889   1.075   4.229   0.504  0.7874  0.4867  0.0923
   24MOL   H104 8890   1.249   4.090   0.528 -0.6580 -0.5016  0.1403
   24MOL   H105 8891   1.137   4.169   0.749  3.4843  0.2337 -1.3145
   24MOL   H106 8892   0.913   4.113   0.751  3.4323  3.2182  1.3288
   24MOL   H107 8893   0.936   3.946   0.681 -0.6393  1.8277 -1.2414
   24MOL   H108 8894   0.931   3.939   0.947 -1.1912  1.4917  0.0171
   24MOL   H109 8895   1.037   4.074   0.943  1.9707 -0.8407  0.3530
   24MOL   H110 8896   1.128   3.789   0.835  0.4580  0.4754 -1.3164
   24MOL   H111 8897   1.204   3.893   0.961 -2.5292  0.2649  1.4948
   24MOL   H112 8898   1.288   4.035   0.801 -1.3810  0.0678  0.0619
   24MOL   H113 8899   1.254   3.903   0.683  0.8599  0.7608 -1.5841
   24MOL   H114 8900   1.035   4.223   0.402 -1.6712 -0.1256  1.0494
   24MOL   H115 8901   0.981   4.237   0.560 -1.0519 -2.5119 -2.4094
   24MOL   C116 8902   1.162   4.357   0.516 -0.5430 -0.3660 -0.2434
   24MOL   C117 8903   1.291   4.367   0.425 -0.7624 -0.1707 -0.3054
   24MOL   C118 8904   1.263   4.371   0.277  0.0399 -0.1413  0.5788
   24MOL   C119 8905   1.390   4.428   0.204 -0.8919  0.2275  0.6308
   24MOL   C120 8906   1.478   4.463   0.327  0.2634  0.4472 -0.9548
   24MOL   C121 8907   1.387   4.478   0.454 -0.3216 -0.5865  0.1228
   24MOL   C122 8908   1.062   4.485   0.495  0.2851 -0.6164  0.2431
   24MOL   H123 8909   1.190   4.365   0.621 -0.0827 -0.1308 -0.3855
   24MOL   H124 8910   1.344   4.272   0.435  0.4969  0.4466 -0.9598
   24MOL   H125 8911   1.243   4.274   0.233  0.7243 -0.8284  1.7510
   24MOL   H126 8912   1.185   4.444   0.256 -1.0795 -0.4228  3.5065
   24MOL   H127 8913   1.360   4.510   0.139 -0.7326 -0.9516 -0.9418
   24MOL   H128 8914   1.424   4.353   0.133 -0.7733  1.0415 -0.1824
   24MOL   H129 8915   1.534   4.554   0.303  2.0463 -0.2980  0.2834
   24MOL   H130 8916   1.549   4.382   0.342 -0.6244 -0.0367  0.8342
   24MOL   H131 8917   1.441   4.470   0.549 -1.4293  1.0195  0.9179
   24MOL   H132 8918   1.335   4.574   0.457  0.3648 -0.2280  0.9161
   24MOL   H133 8919   0.986   4.458   0.422  2.0392 -2.6482 -0.8828
   24MOL   H134 8920   1.101   4.570   0.440 -1.5096  0.6212  0.8233
   24MOL   C135 8921   0.995   4.543   0.618  0.2220 -0.1063 -0.0868
   24MOL   C136 8922   0.862   4.625   0.594 -0.9423  0.4856 -0.2177
   24MOL   C137 8923   0.744   4.527   0.544  0.2129  0.2846  0.4652
   24MOL   C138 8924   0.673   4.601   0.429 -0.0985 -0.6954  0.5994
   24MOL   C139 8925   0.730   4.743   0.435  0.0764  0.2116  0.3539
   24MOL   C140 8926   0.863   4.741   0.494  0.2194  0.9500 -0.2565
   24MOL   C141 8927   1.092   4.629   0.695 -0.0649 -0.1185 -0.4852
   24MOL   H142 8928   0.971   4.453   0.675 -0.9781 -0.8803 -1.7932
   24MOL   H143 8929   0.828   4.664   0.689 -1.0686  1.6813 -0.7444
   24MOL   H144 8930   0.775   4.433   0.499 -0.4446 -0.5047  1.6183
   24MOL   H145 8931   0.672   4.503   0.623 -0.8651  1.7560 -0.0415
   24MOL   H146 8932   0.565   4.589   0.428 -0.2453  0.6203  0.0798
   24MOL   H147 8933   0.718   4.561   0.338  1.3358 -0.2072  1.0820
   24MOL   H148 8934   0.655   4.796   0.493 -2.0237 -0.4480 -1.7208
   24MOL   H149 8935   0.744   4.802   0.344 -0.7453  0.0872  0.1442
   24MOL   H150 8936   0.913   4.715   0.400  0.5747  0.5806  0.0341
   24MOL   H151 8937   0.894   4.842   0.524  0.6854  1.0311 -0.9824
   24MOL   H152 8938   1.071   4.735   0.682  0.1385  0.3187  2.4491
   24MOL   H153 8939   1.193   4.619   0.655  0.7733  1.3694  1.1958
   24MOL   C154 8940   1.119   4.602   0.839  0.1146 -0.1202  0.4333
   24MOL   C155 8941   1.234   4.692   0.894  0.4175 -0.0109  0.2645
   24MOL   C156 8942   1.223   4.851   0.883 -0.0020 -0.4801  0.3855
   24MOL   C157 8943   1.366   4.895   0.866  0.2470  0.2083  0.1346
   24MOL   C158 8944   1.433   4.770   0.792 -0.0610 -0.2509  0.7948
   24MOL   C159 8945   1.380   4.649   0.865 -0.5350  0.3832  0.4014
   24MOL   C160 8946   0.982   4.643   0.896  0.1548 -0.4272  0.2076
   24MOL   H161 8947   1.137   4.496   0.854  2.0506  0.3024  1.1953
   24MOL   H162 8948   1.228   4.677   1.002 -0.3050  1.7283  0.4839
   24MOL   H163 8949   1.178   4.883   0.789  1.6279  0.0482 -0.2301
   24MOL   H164 8950   1.178   4.894   0.972 -1.1049 -0.4580 -0.1766
   24MOL   H165 8951   1.378   4.985   0.806 -1.5468 -0.2683 -0.9791
   24MOL   H166 8952   1.414   4.917   0.962  0.2760 -0.3825  0.2571
   24MOL   H167 8953   1.541   4.764   0.780 -0.3417 -4.2677 -0.5496
   24MOL   H168 8954   1.396   4.774   0.689 -3.0875  1.8347  1.8915
   24MOL   H169 8955   1.449   4.639   0.949  0.3499  1.0049 -0.2460
   24MOL   H170 8956   1.375   4.554   0.811  1.5961 -0.1069  1.0065
   24MOL   H171 8957   0.903   4.578   0.857  0.6786 -0.0789 -1.5162
   24MOL   H172 8958   0.955   4.745   0.868  0.4148 -1.0572 -2.4759
   24MOL   C173 8959   0.975   4.622   1.050  0.6159  0.6770 -0.3150
   24MOL   C174 8960   0.986   4.474   1.082  0.3171 -0.0228 -0.4672
   24MOL   C175 8961   0.886   4.374   1.014 -0.4688  0.6335  0.3469
   24MOL   C176 8962   0.896   4.262   1.119  0.3312  0.5078 -0.9616
   24MOL   C177 8963   0.891   4.322   1.254 -0.4403 -0.2972 -0.9200
   24MOL   C178 8964   0.988   4.440   1.233  0.0440  0.3953  0.1517
   24MOL   C179 8965   0.831   4.669   1.105  0.3872 -0.0295  0.2157
   24MOL   H180 8966   1.050   4.677   1.106  1.1334 -0.1998 -0.1338
   24MOL   H181 8967   1.084   4.440   1.047  0.3204  0.1237 -0.6021
   24MOL   H182 8968   0.915   4.343   0.914  2.1041  0.9751  0.9527
   24MOL   H183 8969   0.786   4.416   1.023 -0.5975  0.2813  0.5805
   24MOL   H184 8970   0.810   4.194   1.121  1.4053 -0.8416  1.1476
   24MOL   H185 8971   0.987   4.205   1.100 -0.0390 -0.9698  1.4667
   24MOL   H186 8972   0.924   4.260   1.337 -2.8774 -0.7322 -0.2334
   24MOL   H187 8973   0.803   4.375   1.289 -0.4800 -0.6151 -0.5351
   24MOL   H188 8974   0.966   4.525   1.298  0.2155  1.8878 -1.7072
   24MOL   H189 8975   1.088   4.402   1.254 -0.5276 -1.1229  0.1495
   24MOL   H190 8976   0.753   4.639   1.035  0.6528 -2.0352  0.7453
   24MOL   H191 8977   0.796   4.618   1.195 -1.4615  0.9483  0.0776
   24MOL   C192 8978   0.831   4.817   1.143  0.6110  0.0447  0.1627
   24MOL   C193 8979   0.868   4.844   1.289 -0.1866 -0.2121 -0.2305
   24MOL   C194 8980   0.761   4.783   1.388  0.1870  0.2008 -0.0153
   24MOL   C195 8981   0.752   4.872   1.509  0.4996 -0.2740 -0.0017
   24MOL   C196 8982   0.855   4.987   1.492  0.8852  0.1254  0.8115
   24MOL   C197 8983   0.881   4.991   1.337 -0.3856  0.5309 -0.6206
   24MOL   C198 8984   0.685   4.875   1.093 -0.9372  0.3031  0.4964
   24MOL   H199 8985   0.906   4.870   1.083 -1.1758  2.2855 -0.1250
   24MOL   H200 8986   0.966   4.800   1.308 -1.3073 -2.2935  0.9552
   24MOL   H201 8987   0.797   4.687   1.426  0.9369  0.9252  1.1233
   24MOL   H202 8988   0.660   4.769   1.350 -0.7683  1.9558  1.7859
   24MOL   H203 8989   0.656   4.924   1.506  0.8035  0.3988  1.2612
   24MOL   H204 8990   0.761   4.829   1.609  3.6691 -0.9516 -0.5187
   24MOL   H205 8991   0.950   4.952   1.533  1.1389  0.4840  0.5368
   24MOL   H206 8992   0.818   5.075   1.545  2.7472  1.3148  0.1937
   24MOL   H207 8993   0.977   5.029   1.302  0.0070 -1.1984 -1.4819
   24MOL   H208 8994   0.794   5.047   1.303 -1.3764  0.5069  1.7400
   24MOL   H209 8995   0.613   4.796   1.114 -1.5148  0.6852 -0.0557
   24MOL   H210 8996   0.639   4.953   1.154  1.2781  1.6292  0.5656
   24MOL   C211 8997   0.677   4.907   0.937  0.0918  0.1930 -0.0755
   24MOL   C212 8998   0.545   4.843   0.885  0.2405 -0.0943  0.4047
   24MOL   C213 8999   0.417   4.914   0.924  0.7274 -0.1502  0.0826
   24MOL   C214 9000   0.309   4.842   0.855 -0.2302  0.6542  0.1147
   24MOL   C215 9001   0.370   4.795   0.729 -0.4486  0.0084 -0.0306
   24MOL   C216 9002   0.526   4.809   0.733  0.0306 -0.3282  0.4432
   24MOL   C217 9003   0.684   5.059   0.908  0.1363 -0.5646 -0.6764
   24MOL   H218 9004   0.752   4.852   0.880 -0.5891 -1.0551  0.2172
   24MOL   H219 9005   0.542   4.742   0.926 -3.5988  0.2898  1.2346
   24MOL   H220 9006   0.413   4.922   1.033  1.4619  2.1675 -0.0313
   24MOL   H221 9007   0.415   5.017   0.888  0.7443  0.7108  2.4265
   24MOL   H222 9008   0.271   4.770   0.926 -0.9963  0.6159 -0.3291
   24MOL   H223 9009   0.224   4.905   0.828 -1.4541 -0.7721  0.5914
   24MOL   H224 9010   0.331   4.848   0.642 -1.6473 -0.7256  0.0457
   24MOL   H225 9011   0.343   4.690   0.712  0.5681  0.0558 -2.1628
   24MOL   H226 9012   0.571   4.713   0.706  2.3053  0.6623  0.6010
   24MOL   H227 9013   0.562   4.890   0.670  1.2923  0.3566  1.9981
   24MOL   H228 9014   0.780   5.097   0.942 -0.3499 -0.4763  0.6200
   24MOL   H229 9015   0.618   5.121   0.968  1.8068  0.6248 -0.0246
   24MOL   C230 9016   0.678   5.120   0.771  1.3541  0.2147  0.4468
   24MOL   C231 9017   0.799   5.075   0.679  0.0850 -0.0073 -0.1741
   24MOL   C232 9018   0.799   5.122   0.531 -0.1644  0.1840  0.6086
   24MOL   C233 9019   0.940   5.128   0.485  0.1677  0.9703 -0.2092
   24MOL   C234 9020   1.027   5.101   0.610  0.6128  0.1708  0.3310
   24MOL   C235 9021   0.938   5.110   0.732  0.4535 -0.0471  0.1810
   24MOL   C236 9022   0.655   5.272   0.779  0.5116 -0.3407 -0.2618
   24MOL   H237 9023   0.592   5.069   0.726  0.9714 -0.2015  1.6181
   24MOL   H238 9024   0.807   4.966   0.680 -1.1174 -0.1001 -0.6836
   24MOL   H239 9025   0.728   5.062   0.474 -1.2552  0.3779  1.7462
   24MOL   H240 9026   0.755   5.221   0.533  0.7255  0.7083 -2.3793
   24MOL   H241 9027   0.966   5.060   0.404 -0.0949  0.9828 -0.3054
   24MOL   H242 9028   0.946   5.218   0.424 -0.8699  1.7393  0.8029
   24MOL   H243 9029   1.104   5.178   0.618  0.6100  0.2168 -0.0824
   24MOL   H244 9030   1.084   5.009   0.594  0.2579 -0.0228  0.1789
   24MOL   H245 9031   0.942   5.210   0.775  2.9279  0.6817 -1.6260
   24MOL   H246 9032   0.979   5.051   0.813  3.2074 -0.3475 -1.3811
   24MOL   H247 9033   0.745   5.327   0.752 -0.1992  0.2094 -1.5068
   24MOL   H248 9034   0.645   5.301   0.884  0.1192  1.8058 -0.8597
   24MOL   C249 9035   0.539   5.336   0.699  0.0180 -0.3430 -0.4556
   24MOL   C250 9036   0.561   5.487   0.680  0.6734  0.1926  0.8465
   24MOL   C251 9037   0.445   5.577   0.627 -0.1545  0.3903 -1.0119
   24MOL   C252 9038   0.511   5.704   0.571 -0.1181 -0.3860 -0.5717
   24MOL   C253 9039   0.647   5.667   0.521 -0.2733  0.7183  0.5575
   24MOL   C254 9040   0.663   5.516   0.566  0.3610 -0.2400  0.1915
   24MOL   C255 9041   0.409   5.306   0.776 -0.1184 -0.8689  0.7778
   24MOL   H256 9042   0.532   5.284   0.604 -1.2099 -1.3438  0.1737
   24MOL   H257 9043   0.584   5.539   0.773  1.1439 -1.2296  1.5400
   24MOL   H258 9044   0.363   5.605   0.693 -0.7416  0.6047 -1.8283
   24MOL   H259 9045   0.397   5.534   0.539 -1.3903  0.1676 -0.2478
   24MOL   H260 9046   0.521   5.781   0.649 -2.6906 -1.3108  0.7063
   24MOL   H261 9047   0.457   5.764   0.498  0.3561  0.2893 -0.3812
   24MOL   H262 9048   0.713   5.735   0.575 -0.3620  1.2529 -0.0053
   24MOL   H263 9049   0.664   5.683   0.414 -2.4647  0.5477  0.1521
   24MOL   H264 9050   0.765   5.485   0.591  1.2738  1.7266 -0.9182
   24MOL   H265 9051   0.638   5.453   0.481  0.1503 -1.4610  1.1524
   24MOL   H266 9052   0.421   5.209   0.823 -0.8370 -0.4970  1.7433
   24MOL   H267 9053   0.400   5.389   0.847  2.7337  0.5010 -0.3566
   24MOL   C268 9054   0.278   5.295   0.686 -0.7100 -0.4368 -0.4516
   24MOL   C269 9055   0.150   5.318   0.771  0.1170 -0.0647 -0.0609
   24MOL   C270 9056   0.118   5.459   0.827  0.2677 -0.1691 -0.4569
   24MOL   C271 9057   0.012   5.442   0.939 -0.3380 -0.0591  0.0846
   24MOL   C272 9058   0.025   5.292   0.977 -0.0049 -0.7673  0.0574
   24MOL   C273 9059   0.144   5.234   0.905  0.1335  0.2189  0.1908
   24MOL   C274 9060   0.281   5.160   0.616  0.3674  0.4216  0.5061
   24MOL   H275 9061   0.288   5.373   0.611 -2.7075 -1.0565 -1.4188
   24MOL   H276 9062   0.066   5.289   0.707 -0.2064 -0.3550  0.4921
   24MOL   H277 9063   0.199   5.514   0.876  0.6769 -2.4132  1.4482
   24MOL   H278 9064   0.087   5.522   0.744 -0.3284 -0.1375 -0.2108
   24MOL   H279 9065   0.029   5.513   1.020 -1.0210 -0.4061  0.5382
   24MOL   H280 9066   7.606   5.470   0.897  0.9456  1.1789 -2.1040
   24MOL   H281 9067   7.624   5.251   0.932 -1.3317 -0.6679  2.5394
   24MOL   H282 9068   0.030   5.285   1.086  1.1549  1.3942  0.1580
   24MOL   H283 9069   0.137   5.126   0.893 -0.1153  0.1050  1.3439
   24MOL   H284 9070   0.230   5.254   0.969  2.3515 -1.2299 -2.2254
   24MOL   H285 9071   0.255   5.085   0.690  0.3377  0.5578  0.6351
   24MOL   H286 9072   0.385   5.140   0.593  0.6110  1.4254  0.6767
   24MOL   C287 9073   0.190   5.137   0.488  0.0109  0.0054  0.0802
   24MOL   C288 9074   0.256   5.144   0.348 -0.1680 -0.5958 -0.4162
   24MOL   C289 9075   0.341   5.274   0.318 -0.2986  0.0158 -0.4640
   24MOL   C290 9076   0.454   5.223   0.220  0.1524 -0.1576  0.1166
   24MOL   C291 9077   0.446   5.069   0.215  0.4099 -0.9626  0.1048
   24MOL   C292 9078   0.355   5.023   0.325  0.1425  0.4188 -0.7337
   24MOL   C293 9079   0.113   5.002   0.508  0.4744 -0.4474 -0.1141
   24MOL   H294 9080   0.111   5.212   0.498 -1.6533 -1.4839 -1.4585
   24MOL   H295 9081   0.184   5.132   0.267 -1.7864 -1.6273  1.1352
   24MOL   H296 9082   0.281   5.359   0.285  1.4546  1.1097 -0.8936
   24MOL   H297 9083   0.395   5.306   0.407 -0.2388 -0.1684 -0.4330
   24MOL   H298 9084   0.443   5.273   0.124  2.5917  1.3154  0.5708
   24MOL   H299 9085   0.554   5.250   0.256 -0.5506  0.2057  1.8399
   24MOL   H300 9086   0.551   5.037   0.218  1.3757  1.7338 -2.2162
   24MOL   H301 9087   0.417   5.042   0.113  2.5587  0.8897 -1.0517
   24MOL   H302 9088   0.417   5.001   0.411 -0.9480  0.0208 -0.0377
   24MOL   H303 9089   0.292   4.937   0.304 -1.8871  1.5026  0.6843
   24MOL   H304 9090   0.092   4.994   0.615  1.0740  0.5702  0.0854
   24MOL   H305 9091   0.176   4.916   0.485 -0.2788 -1.0219 -0.0658
   24MOL   C306 9092   7.666   4.994   0.438 -0.0556  0.5146  0.5588
   24MOL   C307 9093   7.625   4.844   0.408  0.5455 -0.4693  0.1191
   24MOL   C308 9094   0.026   4.764   0.317  0.5917  0.1048  0.3154
   24MOL   C309 9095   0.000   4.615   0.348  0.0423 -0.6117  0.6081
   24MOL   C310 9096   7.669   4.614   0.499 -0.0515 -0.3001 -0.3875
   24MOL   C311 9097   7.619   4.759   0.537 -0.0570 -0.3067 -0.3618
   24MOL   C312 9098   7.546   5.052   0.510 -0.2056  0.2126 -0.3114
   24MOL   H313 9099   7.670   5.046   0.342 -1.0155  1.6838  1.1244
   24MOL   H314 9100   7.529   4.844   0.355  0.4788 -1.0123  0.2428
   24MOL   H315 9101   0.131   4.791   0.329  0.5088 -0.0527  1.3747
   24MOL   H316 9102   0.013   4.773   0.209 -2.0125  0.8764  0.6616
   24MOL   H317 9103   7.597   4.586   0.299 -0.4558 -0.8411  1.6671
   24MOL   H318 9104   0.082   4.552   0.317  1.2674  1.9330 -1.5238
   24MOL   H319 9105   0.074   4.586   0.545 -1.3424  0.1421  2.6618
   24MOL   H320 9106   7.608   4.532   0.537 -1.3091  0.9747  0.3645
   24MOL   H321 9107   7.516   4.749   0.572 -0.4076  0.0829 -1.2624
   24MOL   H322 9108   7.670   4.798   0.624  0.2097  0.6989 -0.9613
   24MOL   H323 9109   7.576   5.048   0.614 -0.9196 -0.6928 -0.1340
   24MOL   H324 9110   7.463   4.983   0.502  1.4001 -1.6298 -1.5974
   24MOL   C325 9111   7.489   5.190   0.468 -0.4196 -0.2798 -0.0684
   24MOL   C326 9112   7.369   5.221   0.564 -0.2647  0.4853  0.4561
   24MOL   C327 9113   7.310   5.364   0.555  0.7156 -0.0533  0.3164
   24MOL   C328 9114   7.238   5.383   0.683  0.0409 -0.2864 -0.0086
   24MOL   C329 9115   7.303   5.290   0.784 -0.0549  0.3301 -0.4517
   24MOL   C330 9116   7.407   5.212   0.709 -0.7416 -0.2875  0.3165
   24MOL   C331 9117   7.446   5.202   0.320 -0.8829  0.0217 -0.7710
   24MOL   H332 9118   7.557   5.273   0.486 -3.6895  2.8850 -1.5867
   24MOL   H333 9119   7.291   5.146   0.552 -0.6966  1.0001  0.0200
   24MOL   H334 9120   7.247   5.393   0.471 -2.1150 -0.2492  2.2813
   24MOL   H335 9121   7.399   5.425   0.562 -1.4819  3.5074 -1.4615
   24MOL   H336 9122   7.133   5.357   0.667 -0.8196  1.1569  3.0028
   24MOL   H337 9123   7.243   5.487   0.717  3.3905  0.3822 -2.2605
   24MOL   H338 9124   7.229   5.219   0.821  0.4930  0.3521  0.7295
   24MOL   H339 9125   7.350   5.340   0.869 -1.7360  0.9171  0.1449
   24MOL   H340 9126   7.412   5.109   0.744 -2.9470 -1.2614 -2.1051
   24MOL   H341 9127   7.501   5.267   0.717 -0.3631 -1.0858  1.5865
   24MOL   H342 9128   7.341   5.173   0.319 -0.7113 -0.6518  0.5995
   24MOL   H343 9129   7.495   5.129   0.255  0.3820  0.6659 -0.5493
   24MOL   C344 9130   7.460   5.343   0.255 -0.2312  0.1502  0.1921
   24MOL   C345 9131   7.370   5.365   0.132  0.4798  0.3070  0.4187
   24MOL   C346 9132   7.212   5.370   0.157 -0.6236  0.0157  0.2229
   24MOL   C347 9133   7.157   5.346   0.012  0.0759  0.1779 -0.0757
   24MOL   C348 9134   7.247   5.231   7.652 -0.3782  0.2641 -0.4131
   24MOL   C349 9135   7.386   5.260   0.015  0.8994  0.2329  0.5298
   24MOL   C350 9136   7.607   5.378   0.225 -0.3572 -0.5949  0.3580
   24MOL   H351 9137   7.424   5.408   0.335  1.1455 -1.0567  1.8373
   24MOL   H352 9138   7.392   5.464   0.093  0.2057  0.3740  0.4331
   24MOL   H353 9139   7.192   5.464   0.210 -0.1482 -0.6178  1.5502
   24MOL   H354 9140   7.180   5.284   0.216  0.9961  1.1556  2.8758
   24MOL   H355 9141   7.053   5.319   0.029  0.0553  0.0504 -0.3962
   24MOL   H356 9142   7.161   5.429   7.631  0.4342  0.9369  0.8226
   24MOL   H357 9143   7.247   5.220   7.544 -1.7562 -0.3996 -0.3485
   24MOL   H358 9144   7.207   5.139   0.006  0.8027 -0.3314 -0.5764
   24MOL   H359 9145   7.426   5.169   0.059 -1.6684 -2.0509 -1.6701
   24MOL   H360 9146   7.461   5.294   7.633  0.5961  0.2569  0.2249
   24MOL   H361 9147   7.639   5.337   0.129  0.6307 -1.4995  1.0671
   24MOL   H362 9148   7.675   5.334   0.297  1.5055 -0.0621 -1.0534
   24MOL   C363 9149   7.636   5.529   0.214  0.4523 -0.3056  0.1035
   24MOL   C364 9150   7.641   5.597   0.354 -0.0691 -0.0545  0.9903
   24MOL   C365 9151   7.634   5.743   0.347  0.1982  0.3275 -0.0910
   24MOL   C366 9152   0.034   5.801   0.455  0.5507 -0.2475  0.2227
   24MOL   C367 9153   0.069   5.680   0.540 -0.0048  0.3309 -0.3590
   24MOL   C368 9154   0.077   5.562   0.435 -0.2612  0.4813 -0.0628
   24MOL   C369 9155   0.079   5.549   0.136 -0.5238 -0.0827 -0.4967
   24MOL   H370 9156   7.557   5.575   0.154 -0.0627  1.4293  2.0516
   24MOL   H371 9157   7.556   5.558   0.411 -1.8146  1.7845 -0.3023
   24MOL   H372 9158   7.673   5.790   0.257 -0.9149 -0.0746 -0.7903
   24MOL   H373 9159   7.535   5.790   0.351  0.3167  0.5413  0.3325
   24MOL   H374 9160   0.114   5.862   0.413 -0.1547  0.2458 -0.4090
   24MOL   H375 9161   7.670   5.876   0.513  1.9977 -0.0492  1.3531
   24MOL   H376 9162   0.168   5.689   0.584 -0.7403 -1.8058  1.8690
   24MOL   H377 9163   7.688   5.654   0.618 -1.0919  1.2616 -1.0251
   24MOL   H378 9164   0.069   5.460   0.471 -1.8804 -0.0354 -1.7733
   24MOL   H379 9165   0.167   5.572   0.374 -0.8328  0.9652 -0.8489
   24MOL   H380 9166   0.127   5.646   0.146 -0.9069  0.1913 -1.3245
   24MOL   H381 9167   0.049   5.547   0.032 -1.2866  0.4783 -0.2868
   24MOL   H382 9168   0.153   5.471   0.158 -2.2373 -0.7969  3.1497
   25MOL     C1 9169   7.535   0.482   4.691 -1.0433  0.1324 -0.4264
   25MOL     C2 9170   7.589   0.419   4.560  0.3763 -0.2672 -0.0210
   25MOL     C3 9171   7.677   0.299   4.597  0.5217  0.1838 -0.1726
   25MOL     C4 9172   0.100   0.296   4.496 -0.2289 -0.3532 -0.3980
   25MOL     C5 9173   0.096   0.431   4.419  0.2191 -0.1697  0.2443
   25MOL     C6 9174   7.679   0.516   4.490 -0.6948 -0.0157  1.3240
   25MOL     C7 9175   7.408   0.406   4.747 -0.1452  0.1549  0.1834
   25MOL     H8 9176   7.609   0.488   4.771 -0.4040 -0.9979 -0.9239
   25MOL     H9 9177   7.509   0.392   4.491  1.1585 -1.0312 -0.6382
   25MOL    H10 9178   0.038   0.319   4.692  0.3059  1.6346 -0.3475
   25MOL    H11 9179   7.621   0.207   4.610 -1.6334  1.6522  1.3064
   25MOL    H12 9180   0.200   0.287   4.537  0.1110  0.4298 -1.0538
   25MOL    H13 9181   0.091   0.211   4.428 -3.4317 -1.9907  1.9237
   25MOL    H14 9182   0.190   0.485   4.429 -0.1202  0.4720  0.0068
   25MOL    H15 9183   0.070   0.420   4.313 -0.3532 -2.3602  0.5814
   25MOL    H16 9184   7.628   0.583   4.420 -1.3093 -1.1991  0.6271
   25MOL    H17 9185   0.043   0.587   4.554  1.1448 -0.2409  0.0462
   25MOL    H18 9186   7.326   0.403   4.675 -0.0556 -0.7133  0.1113
   25MOL    H19 9187   7.435   0.302   4.768  1.3294  0.3100 -0.9361
   25MOL    H20 9188   7.502   0.585   4.674  0.7669  0.8797  0.4007
   25MOL    C21 9189   7.348   0.470   4.880 -0.0982 -0.2992  0.4902
   25MOL    C22 9190   7.258   0.594   4.857 -0.6603 -0.3301  0.0306
   25MOL    C23 9191   7.245   0.697   4.972  0.2948  0.5370  0.0690
   25MOL    C24 9192   7.101   0.752   4.968  0.0512  0.4224 -1.0059
   25MOL    C25 9193   7.036   0.707   4.829 -0.0398 -0.1322  0.0143
   25MOL    C26 9194   7.108   0.575   4.799  0.2802 -0.2069  0.3145
   25MOL    C27 9195   7.257   0.363   4.952  0.0159  0.1377 -0.1791
   25MOL    H28 9196   7.432   0.487   4.948  0.3639  0.5098 -0.2672
   25MOL    H29 9197   7.311   0.639   4.773 -2.1190 -0.0434 -0.7720
   25MOL    H30 9198   7.325   0.769   4.959  1.3937 -0.4481  1.3367
   25MOL    H31 9199   7.259   0.647   5.067 -1.8215  0.0017  0.1272
   25MOL    H32 9200   7.042   0.710   5.049 -1.0955  1.8990 -1.0586
   25MOL    H33 9201   7.094   0.860   4.974 -1.8244  0.2967 -0.5299
   25MOL    H34 9202   7.061   0.776   4.749 -0.3006 -0.2293 -0.1538
   25MOL    H35 9203   6.928   0.695   4.843  0.3044 -0.5678  2.5028
   25MOL    H36 9204   7.104   0.560   4.691  1.1945  0.1629  0.2236
   25MOL    H37 9205   7.058   0.488   4.842 -0.0208  0.0131  0.4088
   25MOL    H38 9206   7.183   0.408   5.019  0.1761 -1.5106  1.1676
   25MOL    H39 9207   7.209   0.313   4.868  1.0196 -0.5019 -0.3864
   25MOL    C40 9208   7.325   0.248   5.032  0.0710  0.2106 -0.3756
   25MOL    C41 9209   7.413   0.296   5.154  0.4950 -0.1418 -0.1100
   25MOL    C42 9210   7.474   0.191   5.245 -0.0373 -0.2164 -0.2468
   25MOL    C43 9211   7.502   0.254   5.380 -0.4958 -0.3070 -0.7253
   25MOL    C44 9212   7.424   0.388   5.369 -0.2587  0.3932  0.0244
   25MOL    C45 9213   7.336   0.388   5.251 -0.2804 -0.8122  0.2178
   25MOL    C46 9214   7.228   0.130   5.068 -0.0598 -0.1403  0.1965
   25MOL    H47 9215   7.395   0.202   4.963  0.8533 -0.0342  0.5598
   25MOL    H48 9216   7.497   0.349   5.108 -0.4267 -0.0266 -1.7238
   25MOL    H49 9217   7.566   0.139   5.216  1.2330  1.1610  1.1689
   25MOL    H50 9218   7.394   0.121   5.266  2.0074 -3.1787 -1.8611
   25MOL    H51 9219   7.605   0.283   5.398 -1.3155  2.5472 -0.4160
   25MOL    H52 9220   7.473   0.191   5.464  0.4843 -5.0511 -3.7391
   25MOL    H53 9221   7.382   0.417   5.466  2.2032  1.0603  0.9262
   25MOL    H54 9222   7.493   0.470   5.352  0.7753 -0.2019  1.2712
   25MOL    H55 9223   7.236   0.348   5.270 -1.3398  1.3368 -0.7113
   25MOL    H56 9224   7.328   0.488   5.209 -0.3851 -0.6195  0.6991
   25MOL    H57 9225   7.269   0.043   5.121  1.2013  0.7031  0.6216
   25MOL    H58 9226   7.151   0.184   5.123  0.2984  0.8278 -0.2488
   25MOL    C59 9227   7.168   0.057   4.942 -0.1844  0.0780  0.5582
   25MOL    C60 9228   7.268   7.642   4.875  0.6077 -0.1670  0.2903
   25MOL    C61 9229   7.237   7.594   4.731  0.3116 -0.3682 -0.1335
   25MOL    C62 9230   7.334   7.475   4.704 -0.0254 -0.4091  1.1581
   25MOL    C63 9231   7.343   7.409   4.843  0.2397 -0.8227  0.0027
   25MOL    C64 9232   7.284   7.505   4.948  0.5426 -0.1472  0.4410
   25MOL    C65 9233   7.031   7.675   4.970 -0.1397  0.1364 -0.2378
   25MOL    H66 9234   7.146   0.131   4.865  0.6609  1.3790  1.5659
   25MOL    H67 9235   7.365   0.002   4.874  1.8996 -2.6163 -1.2784
   25MOL    H68 9236   7.261   7.675   4.662 -1.1261 -0.4194 -0.7162
   25MOL    H69 9237   7.139   7.554   4.706 -0.8791  1.9206  0.6870
   25MOL    H70 9238   7.424   7.525   4.668 -2.4185  1.8772 -1.9536
   25MOL    H71 9239   7.290   7.416   4.624  2.2202 -0.7770  0.1497
   25MOL    H72 9240   7.436   7.366   4.879  0.9972  0.3658 -0.5010
   25MOL    H73 9241   7.279   7.323   4.824  0.7428 -0.4315 -4.0327
   25MOL    H74 9242   7.196   7.446   4.976 -0.3603  0.5391 -0.8975
   25MOL    H75 9243   7.332   7.521   5.044  0.7618  2.7697 -0.1113
   25MOL    H76 9244   7.041   7.612   5.058  2.0965 -0.9923 -1.2494
   25MOL    H77 9245   7.003   7.616   4.883  0.9029 -0.1062 -0.4158
   25MOL    C78 9246   6.916   0.083   4.995  0.0961 -0.4024 -0.0166
   25MOL    C79 9247   6.869   0.131   4.855 -0.1027 -0.0471 -0.4274
   25MOL    C80 9248   6.808   0.274   4.862  0.3119  0.1248  0.5798
   25MOL    C81 9249   6.704   0.276   4.755 -0.0103  0.1236  0.1313
   25MOL    C82 9250   6.641   0.142   4.749  0.2537 -0.3119  0.1091
   25MOL    C83 9251   6.761   0.048   4.778  0.1088 -0.4965 -0.3351
   25MOL    C84 9252   6.795   0.021   5.081 -0.0954 -0.2409  0.2400
   25MOL    H85 9253   6.960   0.167   5.047 -1.9680  0.9373 -0.3833
   25MOL    H86 9254   6.956   0.140   4.791 -1.2107  2.7747 -1.6097
   25MOL    H87 9255   6.876   0.359   4.854  1.4009 -0.7401  0.5507
   25MOL    H88 9256   6.758   0.293   4.957  0.7570  1.4867  0.5550
   25MOL    H89 9257   6.750   0.300   4.659 -2.5222 -1.6351 -1.5591
   25MOL    H90 9258   6.626   0.351   4.766  0.4003  0.1448  3.2642
   25MOL    H91 9259   6.570   0.124   4.830  0.2833 -1.1896 -0.0577
   25MOL    H92 9260   6.599   0.128   4.649 -0.5400 -1.0875  0.5406
   25MOL    H93 9261   6.736   7.640   4.820 -0.3570  0.0504  0.6933
   25MOL    H94 9262   6.808   0.005   4.690 -1.2743 -0.4349 -1.1174
   25MOL    H95 9263   6.788   7.603   5.065  0.3762 -0.0510 -1.3094
   25MOL    H96 9264   6.702   0.065   5.045  1.1411 -0.2517 -3.1250
   25MOL    C97 9265   6.802   0.063   5.231 -0.7736  0.0466  0.2120
   25MOL    C98 9266   6.900   7.658   5.305  0.1965  0.1531 -0.3024
   25MOL    C99 9267   6.916   0.004   5.450 -0.2334 -0.1813  0.7266
   25MOL   C100 9268   6.973   7.571   5.522  0.6047  0.0251 -0.4998
   25MOL   C101 9269   6.910   7.459   5.449  0.1607  0.5109  0.0169
   25MOL   C102 9270   6.866   7.509   5.308 -0.4247  0.3089  0.0819
   25MOL   C103 9271   6.654   0.069   5.283 -0.1576 -0.4667  0.2099
   25MOL   H104 9272   6.842   0.164   5.243  1.0048 -0.5736 -0.3324
   25MOL   H105 9273   6.999   7.673   5.262  0.6498 -0.9091  0.3536
   25MOL   H106 9274   6.983   0.089   5.466  0.6773 -0.7083 -0.2188
   25MOL   H107 9275   6.819   0.030   5.492 -2.0835 -1.7352 -2.3981
   25MOL   H108 9276   6.969   7.563   5.631  0.7232  0.7438 -0.4377
   25MOL   H109 9277   7.081   7.567   5.504  0.6688  1.5158 -0.4872
   25MOL   H110 9278   6.827   7.412   5.502  1.5806 -0.6107  1.3310
   25MOL   H111 9279   6.982   7.378   5.434  0.9610  1.1756  0.2110
   25MOL   H112 9280   6.914   7.447   5.232 -1.5760  0.7318 -1.0104
   25MOL   H113 9281   6.759   7.493   5.299 -0.3980  0.5200 -0.6669
   25MOL   H114 9282   6.601   7.682   5.226 -0.0711 -1.1188  0.9949
   25MOL   H115 9283   6.636   0.023   5.381 -1.7683 -0.1768  0.0538
   25MOL   C116 9284   6.587   0.217   5.286  0.5514 -0.1757  0.1638
   25MOL   C117 9285   6.437   0.226   5.266 -0.2612 -0.1140  0.0095
   25MOL   C118 9286   6.381   0.179   5.131 -0.3452 -0.1098 -0.6171
   25MOL   C119 9287   6.243   0.135   5.164 -0.3400 -0.2830 -0.2285
   25MOL   C120 9288   6.243   0.074   5.301  0.2116 -0.2617  0.4312
   25MOL   C121 9289   6.350   0.154   5.376 -0.2729  0.2130  0.1123
   25MOL   C122 9290   6.632   0.301   5.409  0.0063  0.5260  0.1874
   25MOL   H123 9291   6.629   0.259   5.194  0.0250  1.0627  0.4791
   25MOL   H124 9292   6.412   0.332   5.265  0.0263 -0.0388  0.6889
   25MOL   H125 9293   6.402   0.241   5.044 -2.7869 -1.3893 -2.1669
   25MOL   H126 9294   6.438   0.088   5.113  0.3209  0.2363 -0.2855
   25MOL   H127 9295   6.201   0.070   5.087 -0.6053 -1.0574  0.5694
   25MOL   H128 9296   6.171   0.217   5.163 -2.2934 -1.9070  1.4454
   25MOL   H129 9297   6.276   7.660   5.294 -1.3515 -0.6387 -1.5533
   25MOL   H130 9298   6.145   0.068   5.348  0.8033 -0.6156  1.6763
   25MOL   H131 9299   6.298   0.235   5.427  0.3816 -0.5235  1.9669
   25MOL   H132 9300   6.410   0.110   5.455  0.9055  2.3504  0.4404
   25MOL   H133 9301   6.733   0.269   5.436 -0.1628  1.0156  1.4123
   25MOL   H134 9302   6.581   0.266   5.499  1.9514 -0.6255  0.8823
   25MOL   C135 9303   6.615   0.458   5.385  0.5557  0.5026  0.1461
   25MOL   C136 9304   6.750   0.533   5.410  0.3849 -0.2321 -0.3246
   25MOL   C137 9305   6.848   0.485   5.303  0.0593 -0.2429  0.3437
   25MOL   C138 9306   6.981   0.514   5.369 -0.1189 -0.8095  0.2686
   25MOL   C139 9307   6.953   0.455   5.513 -0.7537 -0.2939  0.2262
   25MOL   C140 9308   6.812   0.501   5.551  0.0798 -0.9801  0.2307
   25MOL   C141 9309   6.499   0.509   5.472  0.1651  0.0188  0.2206
   25MOL   H142 9310   6.584   0.469   5.281  2.4830  2.3728 -0.2796
   25MOL   H143 9311   6.735   0.641   5.407  0.8551 -0.1495  0.1734
   25MOL   H144 9312   6.845   0.377   5.286  2.0797 -0.4475  1.1241
   25MOL   H145 9313   6.840   0.534   5.206  3.5772  1.2191  0.6986
   25MOL   H146 9314   6.999   0.622   5.377 -0.9119 -0.5073 -1.6542
   25MOL   H147 9315   7.066   0.471   5.317 -0.9708 -0.1547 -1.7065
   25MOL   H148 9316   7.026   0.488   5.587 -1.8842  0.5811  0.9600
   25MOL   H149 9317   6.954   0.346   5.525 -0.6340 -0.1472  1.6608
   25MOL   H150 9318   6.754   0.430   5.611 -1.3404 -1.2460 -1.4214
   25MOL   H151 9319   6.815   0.595   5.606  1.4847 -1.8595  1.7115
   25MOL   H152 9320   6.517   0.489   5.578 -2.6890 -1.0792  0.5267
   25MOL   H153 9321   6.416   0.445   5.442  1.6286 -0.8252 -2.1166
   25MOL   C154 9322   6.462   0.656   5.455  0.6328 -0.2814  0.2969
   25MOL   C155 9323   6.305   0.675   5.432  0.0465 -0.2055  0.2207
   25MOL   C156 9324   6.224   0.624   5.551  0.5209  0.3339  0.0350
   25MOL   C157 9325   6.087   0.592   5.494 -0.1537  0.1150  0.1624
   25MOL   C158 9326   6.126   0.528   5.358  0.3920 -0.4098  0.5921
   25MOL   C159 9327   6.241   0.610   5.308 -0.4731  0.3589 -0.6089
   25MOL   C160 9328   6.524   0.748   5.576 -0.1433  0.3023 -0.4998
   25MOL   H161 9329   6.497   0.686   5.356  1.3460 -1.4716  0.1805
   25MOL   H162 9330   6.290   0.782   5.417 -2.5644 -0.6382 -0.5504
   25MOL   H163 9331   6.264   0.536   5.601 -0.6533 -0.3985 -0.3065
   25MOL   H164 9332   6.210   0.701   5.627 -1.6665 -0.1716  0.1758
   25MOL   H165 9333   6.035   0.532   5.569 -1.2256  0.4621 -0.2918
   25MOL   H166 9334   6.035   0.687   5.489  2.0021  1.2607 -1.2968
   25MOL   H167 9335   6.043   0.538   5.289 -0.8173 -0.1904  2.0633
   25MOL   H168 9336   6.160   0.424   5.357  2.1612  0.1485 -1.8832
   25MOL   H169 9337   6.200   0.687   5.243 -0.6458  2.3276  1.7625
   25MOL   H170 9338   6.310   0.548   5.252  1.7572  0.3378  2.0692
   25MOL   H171 9339   6.625   0.710   5.591 -0.0191  0.7299 -0.2691
   25MOL   H172 9340   6.467   0.730   5.666 -0.2909 -0.5128 -0.7435
   25MOL   C173 9341   6.532   0.904   5.549  0.8196  0.8006 -0.1839
   25MOL   C174 9342   6.633   0.942   5.442  0.2593  0.6307  0.7082
   25MOL   C175 9343   6.782   0.923   5.478  0.1314  0.1720 -0.2414
   25MOL   C176 9344   6.857   0.985   5.369 -0.8444 -1.1113 -0.1846
   25MOL   C177 9345   6.764   1.098   5.324 -0.0236 -0.2291  0.0719
   25MOL   C178 9346   6.629   1.090   5.391  0.0414  0.3574  0.1119
   25MOL   C179 9347   6.558   0.990   5.686 -0.2345  0.5950  0.3351
   25MOL   H180 9348   6.441   0.944   5.504 -1.2026 -3.1128  0.2010
   25MOL   H181 9349   6.607   0.891   5.349  0.8005  2.5566 -0.5349
   25MOL   H182 9350   6.814   0.821   5.495  0.6377  0.2607 -0.6544
   25MOL   H183 9351   6.808   0.981   5.567 -1.2099  1.0761 -0.4109
   25MOL   H184 9352   6.945   1.030   5.416 -2.2991  1.9114 -0.2413
   25MOL   H185 9353   6.882   0.924   5.282  1.0377  0.7677 -1.0045
   25MOL   H186 9354   6.755   1.130   5.220 -2.2076 -0.7162  0.0967
   25MOL   H187 9355   6.805   1.192   5.362  2.7070 -2.2488  2.2499
   25MOL   H188 9356   6.624   1.165   5.469 -1.1167  3.0975 -2.4963
   25MOL   H189 9357   6.549   1.109   5.319 -0.4716  2.0711  1.1223
   25MOL   H190 9358   6.646   0.939   5.724 -2.5030 -2.8733  1.2531
   25MOL   H191 9359   6.598   1.091   5.673 -1.6325  1.1939  0.5646
   25MOL   C192 9360   6.456   0.992   5.796 -0.1402 -0.1070  0.6111
   25MOL   C193 9361   6.374   1.127   5.784  0.3484  0.5304  0.2967
   25MOL   C194 9362   6.251   1.125   5.873  0.2995 -0.1921 -0.5168
   25MOL   C195 9363   6.151   1.222   5.804 -0.0418 -0.6394 -0.1831
   25MOL   C196 9364   6.209   1.261   5.671 -0.0456  0.0622  0.1207
   25MOL   C197 9365   6.329   1.173   5.643  0.2757 -0.1759 -0.4030
   25MOL   C198 9366   6.528   0.977   5.926  0.0854  0.2631  0.0559
   25MOL   H199 9367   6.380   0.916   5.784 -1.1618  0.8937  0.6669
   25MOL   H200 9368   6.446   1.198   5.827 -1.7421  2.6560  0.4143
   25MOL   H201 9369   6.268   1.149   5.978 -0.0471 -0.9005 -0.2953
   25MOL   H202 9370   6.197   1.030   5.871 -3.0475  1.5855  0.3045
   25MOL   H203 9371   6.056   1.168   5.791 -0.2795 -1.0780  3.1144
   25MOL   H204 9372   6.124   1.307   5.866  1.4701 -2.0460  2.4859
   25MOL   H205 9373   6.250   1.362   5.669  2.2643 -0.8254  0.2512
   25MOL   H206 9374   6.132   1.253   5.594  0.8188 -0.2326 -0.7264
   25MOL   H207 9375   6.404   1.225   5.584 -1.1956  2.1387 -0.3358
   25MOL   H208 9376   6.287   1.088   5.589  0.3262 -0.7457  0.4622
   25MOL   H209 9377   6.626   1.026   5.926  0.9314 -1.3945  0.2025
   25MOL   H210 9378   6.471   1.035   5.999 -1.1061 -0.8040 -0.0163
   25MOL   C211 9379   6.534   0.837   5.990 -0.0758  0.0044  0.0309
   25MOL   C212 9380   6.648   0.757   5.919 -0.0141  0.2990 -0.6734
   25MOL   C213 9381   6.790   0.831   5.938  0.5712 -0.1685 -0.0176
   25MOL   C214 9382   6.890   0.716   5.942  0.6714 -0.8714  0.8989
   25MOL   C215 9383   6.825   0.598   6.009 -0.0742 -0.0694 -0.9738
   25MOL   C216 9384   6.677   0.614   5.975 -0.4524  0.0118  0.3125
   25MOL   C217 9385   6.563   0.851   6.143 -0.4236 -0.5440  0.1275
   25MOL   H218 9386   6.436   0.794   5.970 -0.0657 -0.2424  0.5088
   25MOL   H219 9387   6.629   0.738   5.813 -2.0669  0.2216 -0.3185
   25MOL   H220 9388   6.835   0.897   5.863 -0.9898  2.0614  0.9399
   25MOL   H221 9389   6.795   0.889   6.031 -1.0164 -1.6727  1.0323
   25MOL   H222 9390   6.938   0.708   5.844  0.4045 -0.2826  0.7175
   25MOL   H223 9391   6.970   0.747   6.009  0.1879  1.7599  0.3050
   25MOL   H224 9392   6.835   0.597   6.117  0.1474  2.0419 -0.9474
   25MOL   H225 9393   6.856   0.501   5.970 -0.6569 -0.3926 -0.6289
   25MOL   H226 9394   6.642   0.541   5.902 -0.0466  0.3677 -0.2452
   25MOL   H227 9395   6.622   0.578   6.062  0.6268 -1.6421  0.3204
   25MOL   H228 9396   6.628   0.935   6.167 -3.2864  1.5014  1.0134
   25MOL   H229 9397   6.621   0.769   6.185 -0.8648 -0.7586  0.3149
   25MOL   C230 9398   6.442   0.858   6.233  0.3495  0.4023  0.2261
   25MOL   C231 9399   6.442   0.984   6.315 -0.2944 -0.0276  0.2163
   25MOL   C232 9400   6.303   1.024   6.366  0.2414 -0.2293  0.0720
   25MOL   C233 9401   6.325   1.114   6.483  0.0974 -0.0679 -0.2831
   25MOL   C234 9402   6.450   1.056   6.551 -0.4439  0.7485 -0.4030
   25MOL   C235 9403   6.526   0.990   6.438  0.1216 -0.3957 -0.5303
   25MOL   C236 9404   6.409   0.727   6.313  0.2810 -0.0035 -0.1021
   25MOL   H237 9405   6.361   0.888   6.166  0.5293  0.0028 -0.1700
   25MOL   H238 9406   6.481   1.066   6.254 -0.8878 -1.3921 -2.0421
   25MOL   H239 9407   6.247   1.073   6.286  0.9671 -1.0688 -0.9757
   25MOL   H240 9408   6.240   0.940   6.396  1.3481 -1.8033 -1.9090
   25MOL   H241 9409   6.341   1.217   6.453  0.7105  0.2282  1.0352
   25MOL   H242 9410   6.241   1.112   6.553 -0.8702  1.0677 -1.3870
   25MOL   H243 9411   6.416   0.986   6.627  2.1847  0.8154  0.9004
   25MOL   H244 9412   6.524   1.123   6.594  0.6773  1.5174 -3.4007
   25MOL   H245 9413   6.579   0.896   6.457  1.2856 -0.1695 -2.5117
   25MOL   H246 9414   6.610   1.058   6.421 -2.4967  2.7984 -1.0749
   25MOL   H247 9415   6.370   0.763   6.408 -1.4854 -0.0536 -0.7760
   25MOL   H248 9416   6.501   0.670   6.321  1.3579  1.7198  0.0616
   25MOL   C249 9417   6.284   0.638   6.257 -0.5429  0.5865  0.1075
   25MOL   C250 9418   6.211   0.544   6.359 -0.3643 -0.4903 -0.2014
   25MOL   C251 9419   6.128   0.629   6.461 -0.4893 -0.2160  0.2075
   25MOL   C252 9420   6.166   0.585   6.601  0.9536 -0.0376 -0.5662
   25MOL   C253 9421   6.299   0.520   6.592 -0.5078 -0.5297 -0.7574
   25MOL   C254 9422   6.307   0.470   6.446 -0.8470 -0.1581  0.0594
   25MOL   C255 9423   6.326   0.560   6.132  0.1759  0.2689  0.0880
   25MOL   H256 9424   6.202   0.702   6.228 -1.7509 -0.7838  0.4339
   25MOL   H257 9425   6.142   0.482   6.302 -0.1000 -1.5816  0.6441
   25MOL   H258 9426   6.021   0.630   6.440 -0.3177  1.6789 -0.5985
   25MOL   H259 9427   6.155   0.733   6.444 -2.3206  0.1963 -0.2500
   25MOL   H260 9428   6.089   0.514   6.630  0.6271  0.2701 -0.6802
   25MOL   H261 9429   6.145   0.664   6.673  0.5415  1.8308 -2.7029
   25MOL   H262 9430   6.320   0.444   6.667  0.7582 -0.6321 -1.2126
   25MOL   H263 9431   6.380   0.589   6.613  0.1268 -0.8556 -2.1238
   25MOL   H264 9432   6.265   0.370   6.438 -1.9392  0.0969  2.0888
   25MOL   H265 9433   6.407   0.463   6.404 -0.9127  0.1672 -0.1583
   25MOL   H266 9434   6.389   0.627   6.073  1.3168 -0.8959 -0.0437
   25MOL   H267 9435   6.395   0.484   6.169 -2.6637 -1.4503  2.0500
   25MOL   C268 9436   6.221   0.511   6.026  0.4604  0.1404  0.1141
   25MOL   C269 9437   6.101   0.600   5.994  0.4866 -0.1470  0.9143
   25MOL   C270 9438   6.018   0.568   5.874  0.6435 -0.3841 -0.0589
   25MOL   C271 9439   5.942   0.697   5.835 -0.6619  0.1605  0.6135
   25MOL   C272 9440   6.029   0.810   5.880 -0.3237  0.3565 -0.1549
   25MOL   C273 9441   6.134   0.744   5.968  0.4090 -0.4991 -0.2615
   25MOL   C274 9442   6.182   0.363   6.048  0.5090  0.1207 -0.0547
   25MOL   H275 9443   6.284   0.519   5.937 -0.5181 -2.0882 -0.8170
   25MOL   H276 9444   6.036   0.602   6.082  0.3520 -1.5057  0.8524
   25MOL   H277 9445   6.088   0.541   5.794  2.2802  2.2699  0.4052
   25MOL   H278 9446   5.945   0.487   5.882  1.5490 -1.0987  1.1180
   25MOL   H279 9447   5.907   0.703   5.732  0.2599 -0.6122  0.2455
   25MOL   H280 9448   5.856   0.701   5.902 -0.0953  4.8326  1.2382
   25MOL   H281 9449   5.971   0.884   5.935  2.1352  0.0994  2.9214
   25MOL   H282 9450   6.074   0.871   5.801 -1.7983  0.0605 -1.2425
   25MOL   H283 9451   6.120   0.799   6.061 -0.1848  1.2650 -1.3617
   25MOL   H284 9452   6.233   0.769   5.930  0.5363  2.9580  2.1065
   25MOL   H285 9453   6.074   0.369   6.046  0.3041 -1.7216  2.8374
   25MOL   H286 9454   6.198   0.339   6.153 -0.9147  0.4298  0.2333
   25MOL   C287 9455   6.247   0.270   5.942 -0.7063 -0.3520  0.3813
   25MOL   C288 9456   6.406   0.248   5.972  0.8119 -0.5492 -0.2458
   25MOL   C289 9457   6.442   0.149   6.082 -0.2068  0.8033  0.0453
   25MOL   C290 9458   6.566   0.074   6.023  0.1271  0.5690  0.0672
   25MOL   C291 9459   6.620   0.147   5.899 -0.3841 -0.1050 -0.4742
   25MOL   C292 9460   6.488   0.214   5.848 -0.3311  0.3566  0.7566
   25MOL   C293 9461   6.166   0.136   5.918  0.4838  0.1253 -0.6820
   25MOL   H294 9462   6.244   0.316   5.844 -0.6154 -3.1709 -1.0053
   25MOL   H295 9463   6.453   0.343   6.000 -0.6924  0.0034  0.4523
   25MOL   H296 9464   6.470   0.201   6.174 -2.2908  1.9120  0.0708
   25MOL   H297 9465   6.365   0.077   6.107 -0.9167  0.1076 -3.8156
   25MOL   H298 9466   6.638   0.053   6.102  1.0137 -1.2886 -1.2011
   25MOL   H299 9467   6.530   7.668   5.984 -1.4426  1.2685 -0.2343
   25MOL   H300 9468   6.661   0.067   5.837  1.6169 -0.1138  0.8276
   25MOL   H301 9469   6.691   0.226   5.921 -0.3782 -0.6587  1.5478
   25MOL   H302 9470   6.435   0.153   5.775 -1.5182  1.0516  1.0293
   25MOL   H303 9471   6.502   0.307   5.794  0.0241 -0.9633 -1.4719
   25MOL   H304 9472   6.140   0.096   6.016  0.2808  0.7172 -0.4955
   25MOL   H305 9473   6.228   0.056   5.878  0.7458  0.8962 -1.8113
   25MOL   C306 9474   6.043   0.161   5.828  0.3928 -0.1197 -0.9155
   25MOL   C307 9475   6.086   0.143   5.677  0.3515  0.6906  0.1057
   25MOL   C308 9476   6.121   7.688   5.636  0.1065 -0.2594  0.1718
   25MOL   C309 9477   6.000   7.640   5.557  0.1972 -0.2342 -0.1061
   25MOL   C310 9478   5.913   0.081   5.516 -0.1992 -0.3347 -0.5146
   25MOL   C311 9479   5.984   0.196   5.579  0.3131 -0.3281  0.1258
   25MOL   C312 9480   5.921   0.076   5.871 -0.3085  0.7276 -0.5870
   25MOL   H313 9481   6.014   0.266   5.837  1.5773  0.1124  0.2789
   25MOL   H314 9482   6.177   0.200   5.664  0.9470 -0.4461 -0.7657
   25MOL   H315 9483   6.132   7.613   5.715 -0.2955  1.3119  1.7552
   25MOL   H316 9484   6.212   7.682   5.577  0.3596 -1.1422  0.6412
   25MOL   H317 9485   6.025   7.594   5.461  2.4868 -0.3833  0.5411
   25MOL   H318 9486   5.952   7.562   5.616  2.1208  1.3744  3.7975
   25MOL   H319 9487   5.809   0.068   5.543  0.4026 -1.8216  1.2107
   25MOL   H320 9488   5.914   0.085   5.407 -1.4706  1.3708 -0.4835
   25MOL   H321 9489   6.026   0.258   5.500 -0.9460 -1.9664 -1.8743
   25MOL   H322 9490   5.915   0.266   5.627  1.4093  1.1776 -0.4471
   25MOL   H323 9491   5.953   7.661   5.871 -0.8904  0.5446 -0.5832
   25MOL   H324 9492   5.852   0.082   5.787 -1.9208  0.7510  0.7123
   25MOL   C325 9493   5.849   0.117   6.004 -0.3372 -0.4572  0.2449
   25MOL   C326 9494   5.768   7.688   6.062 -0.4557  0.6439 -0.1546
   25MOL   C327 9495   5.850   7.556   6.102 -0.8574 -0.7332  0.4896
   25MOL   C328 9496   5.756   7.448   6.101  0.1399 -0.2531 -0.4201
   25MOL   C329 9497   5.615   7.501   6.057  0.0897  0.2235  0.4780
   25MOL   C330 9498   5.646   7.632   5.982 -0.4951 -0.0472  0.2397
   25MOL   C331 9499   5.752   0.237   5.975  0.0695  0.6044 -0.8055
   25MOL   H332 9500   5.930   0.139   6.074  1.0425 -2.0608 -0.8309
   25MOL   H333 9501   5.728   0.022   6.161  1.6324 -0.0538  0.8789
   25MOL   H334 9502   5.882   7.563   6.206 -1.7675  1.8394  0.6223
   25MOL   H335 9503   5.930   7.529   6.033  0.9721 -1.8183  2.9393
   25MOL   H336 9504   5.733   7.418   6.203 -2.0528  2.1391 -0.1523
   25MOL   H337 9505   5.782   7.355   6.050 -0.6488 -1.7105  1.7435
   25MOL   H338 9506   5.561   7.537   6.145 -0.2455  0.5749  0.1302
   25MOL   H339 9507   5.558   7.430   5.997 -0.6836  0.0286  1.4303
   25MOL   H340 9508   5.554   7.688   5.996 -1.2327 -1.0331 -0.5567
   25MOL   H341 9509   5.682   7.619   5.880 -3.7932 -0.7104 -0.9049
   25MOL   H342 9510   5.670   0.197   5.916  1.0568 -1.5285 -0.7678
   25MOL   H343 9511   5.816   0.301   5.915  0.8951  0.9240  0.3931
   25MOL   C344 9512   5.695   0.314   6.100 -0.1727  0.2058 -0.0363
   25MOL   C345 9513   5.596   0.430   6.077 -0.8473  0.5270  0.1053
   25MOL   C346 9514   5.463   0.396   6.010 -0.7194 -0.0798 -0.0347
   25MOL   C347 9515   5.399   0.531   5.970  0.4457  0.0379 -0.0024
   25MOL   C348 9516   5.521   0.633   5.963  0.3429 -0.3499  0.4985
   25MOL   C349 9517   5.644   0.554   6.002 -1.1676  0.6242  0.2066
   25MOL   C350 9518   5.808   0.367   6.196 -0.5635 -0.7528  0.8794
   25MOL   H351 9519   5.637   0.240   6.155  0.7349 -0.7559 -0.3410
   25MOL   H352 9520   5.575   0.472   6.175 -0.3986 -0.3480  0.5859
   25MOL   H353 9521   5.400   0.338   6.077 -0.6721 -2.5098 -2.0119
   25MOL   H354 9522   5.475   0.320   5.933 -0.4709  0.5080 -0.5849
   25MOL   H355 9523   5.359   0.503   5.873  1.2082 -1.1449  0.0174
   25MOL   H356 9524   5.328   0.560   6.048 -0.9282 -0.4631 -1.0626
   25MOL   H357 9525   5.510   0.708   6.042  1.3906  0.6419 -0.2767
   25MOL   H358 9526   5.516   0.688   5.869 -1.5915 -0.1367  0.7182
   25MOL   H359 9527   5.690   0.514   5.912 -2.9095 -1.2196  0.1133
   25MOL   H360 9528   5.715   0.617   6.056  0.0319 -1.9839  1.7277
   25MOL   H361 9529   5.807   0.475   6.206 -0.3717 -0.8296  1.7176
   25MOL   H362 9530   5.901   0.332   6.152 -2.2000 -2.9519 -0.9943
   25MOL   C363 9531   5.791   0.320   6.348 -0.2946 -0.1977 -0.2378
   25MOL   C364 9532   5.915   0.314   6.442 -0.3711 -0.6367  0.2105
   25MOL   C365 9533   6.006   0.204   6.392  0.3709  0.5047 -0.1878
   25MOL   C366 9534   6.051   0.130   6.519 -0.3658 -0.1449  0.0547
   25MOL   C367 9535   6.015   0.222   6.635 -0.2808  0.2959  0.4204
   25MOL   C368 9536   5.887   0.281   6.584 -0.0429 -0.0629 -0.2811
   25MOL   C369 9537   5.677   0.398   6.420 -0.0248  0.2653 -0.6168
   25MOL   H370 9538   5.746   0.220   6.346 -0.9017  0.0771 -0.5117
   25MOL   H371 9539   5.975   0.405   6.434  1.1716 -1.6543 -0.0992
   25MOL   H372 9540   5.947   0.136   6.331 -1.1573  1.2821  0.3923
   25MOL   H373 9541   6.089   0.232   6.326  0.8937 -3.1003 -1.1351
   25MOL   H374 9542   6.004   0.032   6.521 -0.6827 -0.0178 -0.9500
   25MOL   H375 9543   6.159   0.114   6.523 -0.3253  0.2940  1.1245
   25MOL   H376 9544   6.011   0.151   6.718 -1.7260  1.3050  1.2231
   25MOL   H377 9545   6.089   0.298   6.659 -0.4451 -0.0141  2.0066
   25MOL   H378 9546   5.851   0.363   6.646 -0.2743 -0.4508  0.1026
   25MOL   H379 9547   5.807   0.207   6.589 -0.8240  0.7491 -0.4838
   25MOL   H380 9548   5.582   0.402   6.368 -0.2710 -3.1138 -0.5265
   25MOL   H381 9549   5.694   0.504   6.436  0.2439  0.3726 -1.6061
   25MOL   H382 9550   5.643   0.366   6.519 -1.2428  2.7398 -0.2052
   26MOL     C1 9551   4.550   5.211   6.230 -0.0054 -0.7071  0.1831
   26MOL     C2 9552   4.532   5.066   6.215 -0.4939  0.0631  0.5873
   26MOL     C3 9553   4.649   4.989   6.270 -0.4201 -0.0322 -1.1102
   26MOL     C4 9554   4.689   4.879   6.175  1.1033  0.1467  0.4857
   26MOL     C5 9555   4.630   4.923   6.041 -0.4983 -0.3988 -0.8094
   26MOL     C6 9556   4.519   5.020   6.070  0.3694 -0.0298  0.2256
   26MOL     C7 9557   4.561   5.238   6.381  0.0333  0.4178  1.2607
   26MOL     H8 9558   4.645   5.241   6.187 -0.6635  0.8134 -0.2540
   26MOL     H9 9559   4.440   5.038   6.267  1.4012  0.1879  4.1734
   26MOL    H10 9560   4.737   5.052   6.279  1.4106 -2.7719  0.8210
   26MOL    H11 9561   4.636   4.960   6.374 -0.3686 -1.7075 -1.5683
   26MOL    H12 9562   4.795   4.856   6.163  0.9447  1.0343 -3.2366
   26MOL    H13 9563   4.644   4.782   6.197  1.5276  0.1383  1.3461
   26MOL    H14 9564   4.707   4.973   5.981  0.4522 -1.3773 -0.4150
   26MOL    H15 9565   4.587   4.840   5.985 -0.6287 -0.1159 -1.1386
   26MOL    H16 9566   4.421   4.977   6.050  0.2933 -0.3790  1.3419
   26MOL    H17 9567   4.541   5.100   5.999  2.3424 -1.6281 -1.0261
   26MOL    H18 9568   4.471   5.200   6.428 -1.3870  1.1062 -0.7913
   26MOL    H19 9569   4.655   5.193   6.411 -0.1119  0.6340  2.0411
   26MOL    H20 9570   4.471   5.267   6.179 -0.2624 -0.9923  0.2695
   26MOL    C21 9571   4.554   5.384   6.436  0.1611 -0.0012 -0.6183
   26MOL    C22 9572   4.660   5.478   6.367 -0.3660 -0.5578  0.0924
   26MOL    C23 9573   4.800   5.418   6.380 -0.7896  0.0013  0.1530
   26MOL    C24 9574   4.898   5.537   6.384  0.1357 -0.3313 -0.2253
   26MOL    C25 9575   4.821   5.664   6.402  0.4690  0.4684 -0.8405
   26MOL    C26 9576   4.674   5.626   6.422  0.4446  0.4836  0.0458
   26MOL    C27 9577   4.410   5.441   6.422 -0.2571 -0.4229  0.5152
   26MOL    H28 9578   4.581   5.381   6.541  1.0953  1.3860 -0.7923
   26MOL    H29 9579   4.627   5.483   6.263  0.0974  0.5776 -0.0020
   26MOL    H30 9580   4.835   5.352   6.300 -0.8870  0.1584 -0.0193
   26MOL    H31 9581   4.817   5.370   6.476  1.7614  0.4318 -0.0480
   26MOL    H32 9582   4.963   5.519   6.470  2.0614 -2.0398 -1.9973
   26MOL    H33 9583   4.961   5.536   6.295 -3.1809  0.0995 -2.6646
   26MOL    H34 9584   4.843   5.724   6.314  0.2623  1.0269 -0.5139
   26MOL    H35 9585   4.848   5.718   6.493 -1.1281 -1.5360  0.8736
   26MOL    H36 9586   4.598   5.689   6.377 -1.4640 -1.0151  1.0786
   26MOL    H37 9587   4.649   5.625   6.528 -0.0664  1.1797 -0.0727
   26MOL    H38 9588   4.402   5.508   6.336  1.2555  0.3980  0.9820
   26MOL    H39 9589   4.336   5.367   6.392 -0.5183  0.2532 -0.5298
   26MOL    C40 9590   4.350   5.511   6.547  1.1906  0.2009  0.4124
   26MOL    C41 9591   4.242   5.616   6.503  0.5195  0.2137 -0.1818
   26MOL    C42 9592   4.133   5.563   6.411  0.4720  0.1498 -0.1365
   26MOL    C43 9593   4.074   5.691   6.347 -0.1218  0.2460  0.5556
   26MOL    C44 9594   4.174   5.807   6.380  0.4005  0.4837 -0.2739
   26MOL    C45 9595   4.299   5.747   6.440 -0.9783  0.5815 -0.0632
   26MOL    C46 9596   4.283   5.409   6.638  0.3695  0.1398 -0.5158
   26MOL    H47 9597   4.427   5.563   6.605  1.0872  1.0547 -0.2012
   26MOL    H48 9598   4.186   5.664   6.583 -1.1990 -3.3292  0.8562
   26MOL    H49 9599   4.055   5.503   6.458  0.1946  1.7938  1.5738
   26MOL    H50 9600   4.166   5.501   6.328 -0.2040  2.5531 -2.2528
   26MOL    H51 9601   3.974   5.719   6.382  0.9413  0.9923  3.1348
   26MOL    H52 9602   4.065   5.687   6.238 -2.4452 -0.7960  0.7506
   26MOL    H53 9603   4.197   5.864   6.289  0.0747  0.0225 -0.6466
   26MOL    H54 9604   4.132   5.873   6.457 -1.3409  1.5531 -2.0567
   26MOL    H55 9605   4.364   5.743   6.353 -1.3433  1.0675 -0.3601
   26MOL    H56 9606   4.329   5.816   6.519 -1.6925 -0.0556  0.7858
   26MOL    H57 9607   4.209   5.455   6.703  1.7991  2.2161 -0.3018
   26MOL    H58 9608   4.216   5.355   6.571 -1.7733 -0.5606  2.1004
   26MOL    C59 9609   4.373   5.308   6.712 -0.4912  0.1402  0.2178
   26MOL    C60 9610   4.458   5.382   6.826 -0.7575  0.3828  0.0287
   26MOL    C61 9611   4.563   5.293   6.902  0.6226 -0.5283  0.1982
   26MOL    C62 9612   4.546   5.331   7.054  0.4005 -0.1032  0.1213
   26MOL    C63 9613   4.406   5.374   7.072 -0.1675  0.2924 -0.1028
   26MOL    C64 9614   4.365   5.435   6.938  0.0053  0.4425 -0.1730
   26MOL    C65 9615   4.285   5.192   6.761  0.3482 -0.8190  0.1317
   26MOL    H66 9616   4.442   5.257   6.645 -2.1431 -2.0721  0.1558
   26MOL    H67 9617   4.517   5.461   6.778  0.5662  0.9593  2.5393
   26MOL    H68 9618   4.659   5.319   6.859  0.2463  0.6146  0.0369
   26MOL    H69 9619   4.533   5.188   6.898 -0.5713 -0.1198 -2.3223
   26MOL    H70 9620   4.627   5.394   7.093  0.5155 -0.6896  0.8375
   26MOL    H71 9621   4.554   5.237   7.108  0.9199  0.2507  0.6644
   26MOL    H72 9622   4.392   5.441   7.156  1.0866 -0.9604  1.1298
   26MOL    H73 9623   4.347   5.282   7.073 -0.1470  0.1776 -3.4135
   26MOL    H74 9624   4.263   5.401   6.921  0.5786 -2.4248  1.7417
   26MOL    H75 9625   4.362   5.544   6.935 -1.0443  0.3989 -1.2677
   26MOL    H76 9626   4.193   5.228   6.804  0.9503  1.2179 -0.2395
   26MOL    H77 9627   4.336   5.142   6.844  3.2759 -1.0072 -1.6784
   26MOL    C78 9628   4.250   5.079   6.655 -0.2640 -0.1421  0.1241
   26MOL    C79 9629   4.343   4.954   6.671 -0.2335 -0.0243 -0.1643
   26MOL    C80 9630   4.324   4.867   6.798 -0.2594 -0.0002 -0.1576
   26MOL    C81 9631   4.458   4.800   6.833 -0.5544  0.0335 -0.0648
   26MOL    C82 9632   4.555   4.856   6.731  0.3166  0.1135  0.1538
   26MOL    C83 9633   4.493   4.976   6.661  0.2371  0.0062 -0.0404
   26MOL    C84 9634   4.096   5.041   6.649  0.1077 -0.0084  0.5616
   26MOL    H85 9635   4.278   5.123   6.560 -0.1489 -0.9114 -0.1999
   26MOL    H86 9636   4.325   4.889   6.586 -0.4665  2.2933 -1.9463
   26MOL    H87 9637   4.249   4.794   6.769  1.0959 -0.4956 -2.5976
   26MOL    H88 9638   4.300   4.919   6.891  0.0185 -1.4373  0.7399
   26MOL    H89 9639   4.440   4.692   6.834  0.1642 -0.1068 -1.1615
   26MOL    H90 9640   4.494   4.831   6.931  0.8800 -0.6483 -0.3570
   26MOL    H91 9641   4.632   4.898   6.796  1.0774 -0.7948 -0.1466
   26MOL    H92 9642   4.591   4.781   6.661  0.5196  1.6535 -1.4047
   26MOL    H93 9643   4.521   5.063   6.721  0.5865 -0.5955  0.6786
   26MOL    H94 9644   4.527   4.988   6.557 -2.1277  1.5900 -0.6674
   26MOL    H95 9645   4.028   5.126   6.660  1.8885  1.4888  0.2137
   26MOL    H96 9646   4.065   4.985   6.737 -1.4220 -1.4536 -0.8581
   26MOL    C97 9647   4.048   4.949   6.530 -0.2963 -0.7855  0.0442
   26MOL    C98 9648   4.111   4.978   6.391  0.2438  0.5664 -0.0936
   26MOL    C99 9649   4.102   4.856   6.302 -0.4479 -0.3106  0.3608
   26MOL   C100 9650   4.059   4.909   6.166 -0.0693  0.1995  0.9543
   26MOL   C101 9651   4.079   5.064   6.165  0.1548 -0.2418 -0.2699
   26MOL   C102 9652   4.055   5.094   6.311 -0.1754 -0.3216  0.0142
   26MOL   C103 9653   3.893   4.941   6.526 -0.5167  0.8200 -0.7025
   26MOL   H104 9654   4.085   4.851   6.558  2.8998  0.3833  0.1132
   26MOL   H105 9655   4.218   4.993   6.401  0.2431  0.5199 -0.0172
   26MOL   H106 9656   4.193   4.797   6.290 -0.6735 -0.4306 -0.8499
   26MOL   H107 9657   4.023   4.788   6.336 -0.8134  0.0307  0.1970
   26MOL   H108 9658   3.958   4.872   6.146 -0.1016  1.1767 -0.7518
   26MOL   H109 9659   4.115   4.875   6.079  0.8704  3.7986  0.0801
   26MOL   H110 9660   4.025   5.122   6.090 -0.1125  0.8504  0.7587
   26MOL   H111 9661   4.182   5.078   6.134 -0.2406  2.4325 -0.5045
   26MOL   H112 9662   4.099   5.192   6.332  2.6739 -1.2661 -1.3165
   26MOL   H113 9663   3.950   5.117   6.329 -0.6783 -1.8298 -0.9379
   26MOL   H114 9664   3.850   5.041   6.524 -0.5904  0.8470  1.3684
   26MOL   H115 9665   3.864   4.906   6.427  0.8779 -0.6846 -0.6106
   26MOL   C116 9666   3.815   4.837   6.627 -0.1808 -0.1711 -0.2475
   26MOL   C117 9667   3.660   4.863   6.643 -0.3733  0.1809 -0.0679
   26MOL   C118 9668   3.630   5.001   6.697  0.3566 -0.1059 -0.4306
   26MOL   C119 9669   3.480   5.033   6.655  0.2062  0.6930 -0.4924
   26MOL   C120 9670   3.454   4.933   6.537  0.1170 -0.2530 -0.7548
   26MOL   C121 9671   3.573   4.839   6.523 -0.1200 -0.8115  0.3249
   26MOL   C122 9672   3.838   4.688   6.583 -0.4453 -0.7577 -0.0400
   26MOL   H123 9673   3.864   4.863   6.721  1.1976 -0.6720 -0.8105
   26MOL   H124 9674   3.614   4.798   6.717  1.1093 -0.6172  0.1527
   26MOL   H125 9675   3.650   5.018   6.802 -0.4222 -1.0385 -0.1252
   26MOL   H126 9676   3.686   5.077   6.642  1.4431 -1.6037 -1.4483
   26MOL   H127 9677   3.467   5.138   6.629 -2.3630  1.4049  3.2984
   26MOL   H128 9678   3.409   5.007   6.733  0.8440  1.1794  0.2654
   26MOL   H129 9679   3.444   5.001   6.451  0.6642  1.0264  0.1800
   26MOL   H130 9680   3.355   4.889   6.552  0.8095 -1.4118  0.4874
   26MOL   H131 9681   3.547   4.734   6.510  0.7509 -1.1879  1.5011
   26MOL   H132 9682   3.615   4.883   6.433 -0.9081 -1.2793 -0.2743
   26MOL   H133 9683   3.927   4.677   6.521 -0.7602 -0.5847 -0.5282
   26MOL   H134 9684   3.760   4.661   6.512 -0.1618 -3.3003  0.5911
   26MOL   C135 9685   3.824   4.580   6.698  0.6690  0.0415  0.6281
   26MOL   C136 9686   3.941   4.594   6.795  0.1000  0.8422 -0.1115
   26MOL   C137 9687   4.075   4.536   6.748  0.2582  0.0920 -0.9609
   26MOL   C138 9688   4.149   4.509   6.880  0.6386  0.9017 -0.0799
   26MOL   C139 9689   4.040   4.461   6.978 -0.2472 -0.1593  0.0125
   26MOL   C140 9690   3.913   4.534   6.937  0.0138  0.1895 -1.0705
   26MOL   C141 9691   3.812   4.441   6.641  0.5612 -0.2419  0.0982
   26MOL   H142 9692   3.734   4.625   6.740  0.4666 -0.9087  1.2078
   26MOL   H143 9693   3.965   4.699   6.814  1.8775  0.4079  0.1250
   26MOL   H144 9694   4.075   4.440   6.697 -0.4930 -1.3537  1.6982
   26MOL   H145 9695   4.126   4.605   6.680 -1.3633  1.2592 -1.0218
   26MOL   H146 9696   4.187   4.602   6.924 -0.9200  1.1328  0.8174
   26MOL   H147 9697   4.220   4.430   6.856  0.1424  1.3342 -3.1172
   26MOL   H148 9698   4.085   4.466   7.077  3.4827 -0.3082 -1.6114
   26MOL   H149 9699   4.029   4.355   6.954 -1.6021  0.2912 -1.3907
   26MOL   H150 9700   3.825   4.471   6.948  1.5987 -1.7713  0.7955
   26MOL   H151 9701   3.896   4.622   7.000 -1.9413 -1.9474  1.4740
   26MOL   H152 9702   3.837   4.368   6.718 -0.3275 -0.3868  0.2554
   26MOL   H153 9703   3.894   4.429   6.570  0.3008 -0.9636 -0.0822
   26MOL   C154 9704   3.674   4.405   6.584  0.3999 -0.1517  0.4634
   26MOL   C155 9705   3.680   4.318   6.451  0.5377 -0.6821 -0.3040
   26MOL   C156 9706   3.759   4.182   6.466  0.2204  0.5109 -0.0048
   26MOL   C157 9707   3.848   4.172   6.344  0.7718 -0.3567  0.1705
   26MOL   C158 9708   3.803   4.276   6.243  0.4934 -0.0980  0.1682
   26MOL   C159 9709   3.746   4.388   6.329  0.5865  0.3983  0.1430
   26MOL   C160 9710   3.587   4.357   6.698 -0.2441 -0.6702 -0.3250
   26MOL   H161 9711   3.627   4.497   6.548  1.0168  0.3519  0.9384
   26MOL   H162 9712   3.579   4.292   6.417  0.3893 -1.3138  0.5962
   26MOL   H163 9713   3.819   4.171   6.556 -2.3924 -0.6968  1.6489
   26MOL   H164 9714   3.688   4.100   6.458 -0.2826  1.0904 -1.7787
   26MOL   H165 9715   3.937   4.219   6.387  2.2211 -0.5776 -2.4787
   26MOL   H166 9716   3.875   4.082   6.289 -0.0306 -1.1995  1.1426
   26MOL   H167 9717   3.723   4.230   6.184  1.0028 -0.7469 -0.0250
   26MOL   H168 9718   3.885   4.312   6.181 -0.1945  0.8221 -0.2152
   26MOL   H169 9719   3.669   4.449   6.280  0.4017  0.6726  0.7670
   26MOL   H170 9720   3.825   4.457   6.359  1.5970 -1.1840  1.1752
   26MOL   H171 9721   3.596   4.437   6.771  2.8646 -1.1588 -0.1152
   26MOL   H172 9722   3.643   4.275   6.743 -0.5638 -2.8552 -3.7025
   26MOL   C173 9723   3.443   4.296   6.683  0.4498  0.1350 -0.6631
   26MOL   C174 9724   3.345   4.384   6.597 -0.3321  0.2451  0.2750
   26MOL   C175 9725   3.310   4.525   6.654  0.9684  0.4285 -0.3692
   26MOL   C176 9726   3.195   4.575   6.563  0.2203 -0.0232 -0.5331
   26MOL   C177 9727   3.142   4.452   6.494  0.1781  0.1464  0.7440
   26MOL   C178 9728   3.206   4.329   6.567 -0.3185  0.7150  0.1352
   26MOL   C179 9729   3.381   4.263   6.818  0.5968  0.0266  0.4467
   26MOL   H180 9730   3.451   4.202   6.628  1.4215  1.1682 -2.3375
   26MOL   H181 9731   3.403   4.401   6.507  1.4591 -0.9644  1.1742
   26MOL   H182 9732   3.403   4.582   6.644  0.5744  1.1852  0.2337
   26MOL   H183 9733   3.260   4.508   6.749 -1.0273  0.9314 -1.2938
   26MOL   H184 9734   3.116   4.610   6.629 -0.0427 -2.7048  0.6527
   26MOL   H185 9735   3.217   4.656   6.493  0.7427 -0.7294 -1.1906
   26MOL   H186 9736   3.167   4.450   6.388 -0.5713 -0.0266  0.5715
   26MOL   H187 9737   3.034   4.441   6.499  0.2804 -0.3601  2.1301
   26MOL   H188 9738   3.149   4.300   6.656  2.0456  1.1736  1.8519
   26MOL   H189 9739   3.214   4.234   6.514  0.7498 -0.5466  2.4470
   26MOL   H190 9740   3.378   4.360   6.869 -0.1030 -0.1397  0.7307
   26MOL   H191 9741   3.281   4.224   6.799  0.9778 -0.2395 -1.0105
   26MOL   C192 9742   3.472   4.174   6.912 -0.3211  0.1941 -0.4810
   26MOL   C193 9743   3.386   4.051   6.964  0.4976  0.0035 -0.2293
   26MOL   C194 9744   3.352   3.960   6.841 -0.1083  0.0899 -0.6565
   26MOL   C195 9745   3.204   3.917   6.864  0.1164 -0.6130  0.0008
   26MOL   C196 9746   3.167   3.965   7.006 -0.6628  0.0673 -0.6948
   26MOL   C197 9747   3.257   4.085   7.039  1.1071 -0.0258  1.1275
   26MOL   C198 9748   3.553   4.249   7.024  0.2429 -0.4725  0.2416
   26MOL   H199 9749   3.553   4.133   6.852  1.7377  1.5656  1.2861
   26MOL   H200 9750   3.446   3.980   7.021  0.4825  0.5760  0.5171
   26MOL   H201 9751   3.418   3.873   6.843  0.6964  0.7100  0.3346
   26MOL   H202 9752   3.358   4.013   6.747 -2.5382 -0.2165 -1.0190
   26MOL   H203 9753   3.139   3.969   6.794  0.3714 -2.4786 -1.6596
   26MOL   H204 9754   3.195   3.809   6.853 -0.4272 -0.3252 -2.8105
   26MOL   H205 9755   3.190   3.881   7.071  1.9510  2.0455  1.0130
   26MOL   H206 9756   3.060   3.985   7.011 -0.4442  1.1876 -0.2570
   26MOL   H207 9757   3.274   4.073   7.146  1.1385 -0.9190  1.0291
   26MOL   H208 9758   3.213   4.181   7.014  1.6292  0.0409  0.4357
   26MOL   H209 9759   3.619   4.320   6.975 -2.2350  1.9913  0.3421
   26MOL   H210 9760   3.489   4.310   7.088  1.0691  2.0103 -1.2381
   26MOL   C211 9761   3.631   4.158   7.120  0.1197  0.2823  0.3287
   26MOL   C212 9762   3.713   4.052   7.039 -0.4060 -0.1749 -0.3184
   26MOL   C213 9763   3.814   4.122   6.949  0.3574 -0.4172  0.0479
   26MOL   C214 9764   3.947   4.051   6.963  0.1018 -0.4326  0.0571
   26MOL   C215 9765   3.916   3.914   7.022  0.3468  0.3602  0.5642
   26MOL   C216 9766   3.801   3.951   7.116 -0.4317 -0.3394 -0.6044
   26MOL   C217 9767   3.716   4.253   7.219  0.1926  0.5049 -0.1635
   26MOL   H218 9768   3.561   4.105   7.184 -0.9775  0.5355 -0.6587
   26MOL   H219 9769   3.647   3.989   6.980 -0.6290 -2.2240  2.0565
   26MOL   H220 9770   3.779   4.120   6.846  1.8440 -0.2551 -0.4792
   26MOL   H221 9771   3.835   4.229   6.958 -2.9639  0.1495  2.0130
   26MOL   H222 9772   4.004   4.042   6.870 -0.5077  0.8808 -0.4625
   26MOL   H223 9773   4.003   4.098   7.044  0.3442 -0.6072 -0.0091
   26MOL   H224 9774   4.003   3.874   7.075 -1.1718 -0.4092  2.5571
   26MOL   H225 9775   3.880   3.842   6.948  0.0324  0.0475  1.0139
   26MOL   H226 9776   3.743   3.863   7.147  3.3785 -3.2454 -1.3078
   26MOL   H227 9777   3.861   3.998   7.194  2.6269 -1.3507 -2.2710
   26MOL   H228 9778   3.765   4.323   7.152  1.7798  1.1966  1.6601
   26MOL   H229 9779   3.796   4.204   7.273 -1.2638  0.5294  2.0940
   26MOL   C230 9780   3.642   4.330   7.332  0.0425  0.2487 -0.2756
   26MOL   C231 9781   3.714   4.459   7.387  0.9967  0.5777  0.7439
   26MOL   C232 9782   3.861   4.459   7.400 -0.6641  0.1280  0.2587
   26MOL   C233 9783   3.898   4.608   7.377  0.0827 -0.8523  0.3291
   26MOL   C234 9784   3.773   4.693   7.400 -0.1338  0.4578 -0.8106
   26MOL   C235 9785   3.674   4.597   7.329 -0.4212  0.0395  0.2348
   26MOL   C236 9786   3.619   4.218   7.440 -0.1705 -0.0794 -0.4901
   26MOL   H237 9787   3.555   4.381   7.289 -1.3477 -2.0109 -0.2069
   26MOL   H238 9788   3.679   4.470   7.489  0.6348  1.3041  0.5526
   26MOL   H239 9789   3.891   4.434   7.502 -1.7591 -2.4855 -0.0364
   26MOL   H240 9790   3.909   4.401   7.322 -3.1441 -0.7227 -0.7073
   26MOL   H241 9791   3.986   4.624   7.440 -0.3589  1.1862  0.4447
   26MOL   H242 9792   3.935   4.625   7.275  2.1564 -0.2851  1.1430
   26MOL   H243 9793   3.797   4.793   7.361 -0.3602  1.3595  1.2968
   26MOL   H244 9794   3.765   4.700   7.508  1.5494  1.7576 -0.7491
   26MOL   H245 9795   3.686   4.619   7.223  1.8283 -0.2901  0.3901
   26MOL   H246 9796   3.573   4.629   7.351 -0.1813 -1.1838  3.4122
   26MOL   H247 9797   3.712   4.206   7.496 -0.3326  2.6796  0.4680
   26MOL   H248 9798   3.596   4.124   7.392  0.8930  0.8514 -2.8769
   26MOL   C249 9799   3.501   4.250   7.544 -0.4198  0.3703  0.9157
   26MOL   C250 9800   3.501   4.132   7.640  0.4094  0.1587 -0.2404
   26MOL   C251 9801   3.391   4.132   0.058  0.1260  0.1884  0.1788
   26MOL   C252 9802   3.446   4.049   0.177 -0.3686  0.0944  0.2776
   26MOL   C253 9803   3.591   4.088   0.170  0.4074 -0.2672  0.5674
   26MOL   C254 9804   3.633   4.130   0.033 -0.7864 -0.2642 -0.2822
   26MOL   C255 9805   3.368   4.247   7.464  0.4053 -0.9362 -0.2567
   26MOL   H256 9806   3.508   4.344   7.599  1.1533 -0.1496  1.6440
   26MOL   H257 9807   3.491   4.040   7.582 -0.0897 -0.5339  0.9221
   26MOL   H258 9808   3.298   4.087   0.021  0.7831 -0.8067 -0.2904
   26MOL   H259 9809   3.360   4.229   0.097 -1.5435  0.2329 -1.1855
   26MOL   H260 9810   3.438   3.946   0.144  1.3918  0.5383 -1.6728
   26MOL   H261 9811   3.401   4.076   0.272 -0.8244 -0.4230  0.2063
   26MOL   H262 9812   3.645   3.999   0.202 -0.5902 -2.2577 -3.0010
   26MOL   H263 9813   3.626   4.168   0.236  0.7990  0.7328 -0.8156
   26MOL   H264 9814   3.696   4.054   7.676 -1.4733 -1.2491  0.3745
   26MOL   H265 9815   3.684   4.225   0.047  2.1018 -1.7835 -0.1433
   26MOL   H266 9816   3.385   4.288   7.364 -0.2893  0.4648  0.1898
   26MOL   H267 9817   3.318   4.150   7.461 -1.5394  0.0801 -1.9105
   26MOL   C268 9818   3.273   4.354   7.529  0.3796  0.0520  0.1866
   26MOL   C269 9819   3.119   4.332   7.493 -1.0731 -0.8257 -0.1595
   26MOL   C270 9820   3.062   4.192   7.536  0.2064  0.5667  0.5135
   26MOL   C271 9821   2.986   4.127   7.417  0.0637  0.2415  0.1905
   26MOL   C272 9822   2.961   4.252   7.330 -0.6561 -0.6781  0.0227
   26MOL   C273 9823   3.090   4.338   7.343  0.2215  0.3055  0.3898
   26MOL   C274 9824   3.298   4.507   7.517 -0.7866  0.6960  0.7061
   26MOL   H275 9825   3.277   4.341   7.637 -1.0637 -0.5392  0.1701
   26MOL   H276 9826   3.065   4.410   7.546 -1.0367  0.2257 -1.6267
   26MOL   H277 9827   3.133   4.114   7.563  0.6874  0.7094 -0.3107
   26MOL   H278 9828   2.992   4.191   7.620  0.5986  0.3356  0.8345
   26MOL   H279 9829   3.046   4.051   7.368 -2.7980 -0.2752 -2.6074
   26MOL   H280 9830   2.893   4.080   7.447  1.2961 -1.8709  0.8128
   26MOL   H281 9831   2.875   4.310   7.363 -0.1213 -1.5810  3.1403
   26MOL   H282 9832   2.950   4.210   7.230  0.3489 -1.4866  0.2496
   26MOL   H283 9833   3.069   4.438   7.305 -0.1912  0.0644 -0.0243
   26MOL   H284 9834   3.173   4.302   7.282  0.7768  1.2843  0.5466
   26MOL   H285 9835   3.269   4.523   7.413 -0.6148  2.0836  0.8603
   26MOL   H286 9836   3.407   4.511   7.524 -0.6843 -0.2566 -0.2638
   26MOL   C287 9837   3.238   4.602   7.629 -0.6035  0.6528  0.0763
   26MOL   C288 9838   3.336   4.647   0.049 -0.8410  0.8740  0.3849
   26MOL   C289 9839   3.399   4.538   0.146  1.2731 -0.2394  0.6337
   26MOL   C290 9840   3.518   4.603   0.216 -0.7067  0.3966  0.5461
   26MOL   C291 9841   3.570   4.687   0.104  0.8598  0.1341  0.0685
   26MOL   C292 9842   3.457   4.726   0.007 -0.2231  0.0813  0.2312
   26MOL   C293 9843   3.169   4.720   7.563 -0.8274 -0.4423  0.0877
   26MOL   H294 9844   3.154   4.552   7.678  0.1530  0.4922  1.2255
   26MOL   H295 9845   3.290   4.718   0.117 -0.5012  1.4580  0.0108
   26MOL   H296 9846   3.328   4.494   0.216  1.1502 -0.1222  0.5810
   26MOL   H297 9847   3.426   4.455   0.080 -2.1561 -1.0557  0.1511
   26MOL   H298 9848   3.481   4.670   0.294 -0.4064 -0.9092  1.8206
   26MOL   H299 9849   3.580   4.533   0.271 -0.6891  1.9081  2.5018
   26MOL   H300 9850   3.638   4.626   0.045 -0.2541  0.4538 -1.5636
   26MOL   H301 9851   3.627   4.777   0.126  1.1740  0.2940 -1.3811
   26MOL   H302 9852   3.480   4.702   7.593  0.1704  1.5902 -0.0521
   26MOL   H303 9853   3.450   4.835   0.017  2.0022  0.1091  1.9339
   26MOL   H304 9854   3.141   4.682   7.464  0.3579 -1.9430  0.3250
   26MOL   H305 9855   3.245   4.798   7.549 -1.2946 -0.1335 -0.7959
   26MOL   C306 9856   3.042   4.767   7.636  0.1900  0.7417 -0.1005
   26MOL   C307 9857   3.037   4.924   7.626 -0.2089 -0.1555 -1.1311
   26MOL   C308 9858   3.140   4.988   0.025 -0.5000 -0.3485 -0.2425
   26MOL   C309 9859   3.180   5.119   7.651  0.9462 -0.8583  0.7243
   26MOL   C310 9860   3.169   5.084   7.500  0.0494  0.5324  0.4246
   26MOL   C311 9861   3.046   4.993   7.486  0.5504 -0.0725  0.2975
   26MOL   C312 9862   2.920   4.697   7.571 -0.3244 -0.5910  0.7054
   26MOL   H313 9863   3.046   4.735   0.050 -1.3304 -0.5099 -0.4052
   26MOL   H314 9864   2.940   4.959   7.660  0.7264  0.0665  1.3675
   26MOL   H315 9865   3.230   4.926   0.035  1.0699  1.6468 -1.5878
   26MOL   H316 9866   3.108   4.995   0.129  0.4127  0.5787 -0.0182
   26MOL   H317 9867   3.098   5.189   7.666 -0.4233 -2.0893 -0.7480
   26MOL   H318 9868   3.276   5.161   7.680  0.3732  0.1847  1.1133
   26MOL   H319 9869   3.254   5.027   7.461  1.1050  1.7041  0.9846
   26MOL   H320 9870   3.168   5.172   7.436 -1.9745 -0.7346 -1.3483
   26MOL   H321 9871   2.958   5.052   7.462  0.2918  0.0794  1.5820
   26MOL   H322 9872   3.063   4.923   7.405 -2.2719 -0.3354 -0.1148
   26MOL   H323 9873   2.944   4.594   7.544 -1.5283 -0.6099 -0.3345
   26MOL   H324 9874   2.914   4.741   7.472  1.8319 -2.5378 -0.3226
   26MOL   C325 9875   2.786   4.683   7.644  0.5945  0.0133 -0.8915
   26MOL   C326 9876   2.804   4.579   0.069  0.2948  0.8732 -0.1012
   26MOL   C327 9877   2.763   4.431   0.043  0.1670 -1.0868 -0.7296
   26MOL   C328 9878   2.677   4.391   0.162  0.8492 -0.3456  0.1328
   26MOL   C329 9879   2.627   4.518   0.228 -0.1481 -0.1130  0.4887
   26MOL   C330 9880   2.729   4.620   0.199 -0.8193 -0.1831  0.5118
   26MOL   C331 9881   2.669   4.649   7.547 -0.5143  0.1985  0.1168
   26MOL   H332 9882   2.764   4.779   0.000 -1.5005 -2.5421  3.7840
   26MOL   H333 9883   2.910   4.573   0.091 -0.2106 -0.5260  2.0298
   26MOL   H334 9884   2.850   4.368   0.028 -0.1916 -1.2744 -2.0388
   26MOL   H335 9885   2.699   4.420   7.645  1.8255 -0.5186 -2.0323
   26MOL   H336 9886   2.737   4.341   0.239 -0.1894 -0.4006  0.9203
   26MOL   H337 9887   2.592   4.327   0.142  0.5642  0.0777 -0.0086
   26MOL   H338 9888   2.619   4.495   0.334  0.7433  0.0968  0.6020
   26MOL   H339 9889   2.528   4.547   0.195 -0.6951 -1.5920  0.7897
   26MOL   H340 9890   2.806   4.621   0.277  2.0902 -2.8948 -2.1616
   26MOL   H341 9891   2.685   4.719   0.203 -1.2753 -0.3593 -0.1284
   26MOL   H342 9892   2.584   4.606   7.600 -1.5762  3.6875  1.4232
   26MOL   H343 9893   2.702   4.575   7.475  0.0421 -0.0383  0.6201
   26MOL   C344 9894   2.597   4.772   7.478  0.0314 -0.7523 -0.1297
   26MOL   C345 9895   2.522   4.875   7.576 -1.2480  0.0603  0.2035
   26MOL   C346 9896   2.409   4.813   7.661 -0.0842  0.0592 -0.0511
   26MOL   C347 9897   2.325   4.934   0.013  0.4725  0.2444 -0.2361
   26MOL   C348 9898   2.372   5.054   7.620 -0.5849 -0.8647 -0.0774
   26MOL   C349 9899   2.472   5.006   7.516 -0.0192  0.3055  0.1757
   26MOL   C350 9900   2.499   4.723   7.370  0.9994  1.0443  0.1242
   26MOL   H351 9901   2.669   4.838   7.431 -1.5645  2.1519  1.3603
   26MOL   H352 9902   2.601   4.909   7.643  1.1855  0.0728 -2.5532
   26MOL   H353 9903   2.442   4.762   0.062  4.0364  1.4033 -0.6661
   26MOL   H354 9904   2.347   4.750   7.598 -1.0714 -1.0932  2.0018
   26MOL   H355 9905   2.221   4.919   7.673  0.7349  1.5932 -1.8963
   26MOL   H356 9906   2.322   4.956   0.120  0.4261  0.8332 -0.3607
   26MOL   H357 9907   2.415   5.126   7.689  0.3699 -2.7115  1.3193
   26MOL   H358 9908   2.285   5.107   7.580 -1.8131 -1.3051  1.9086
   26MOL   H359 9909   2.405   4.994   7.430 -1.6126  1.1723  1.2781
   26MOL   H360 9910   2.555   5.073   7.491  0.6929  0.7977  3.6852
   26MOL   H361 9911   2.423   4.797   7.345  0.0720  1.4404  3.7661
   26MOL   H362 9912   2.434   4.655   7.426  1.1719  0.4578 -0.3835
   26MOL   C363 9913   2.559   4.665   7.236 -0.2244  0.0107 -0.0230
   26MOL   C364 9914   2.460   4.572   7.173  0.5112 -0.4851 -1.1434
   26MOL   C365 9915   2.432   4.437   7.240  0.2896 -0.3342  0.9478
   26MOL   C366 9916   2.352   4.366   7.129 -0.3379 -0.2357 -0.1731
   26MOL   C367 9917   2.431   4.394   7.002  0.0724  0.3710  0.2344
   26MOL   C368 9918   2.507   4.521   7.033  0.4335  1.0437  0.9378
   26MOL   C369 9919   2.609   4.783   7.134 -0.0843 -0.8063 -0.3857
   26MOL   H370 9920   2.648   4.609   7.265 -0.2576 -0.5475 -0.9742
   26MOL   H371 9921   2.367   4.628   7.164  1.0245  0.5954  0.1039
   26MOL   H372 9922   2.523   4.386   7.274  1.4059 -0.2673 -1.8141
   26MOL   H373 9923   2.375   4.460   7.330 -0.6298  0.5244  0.1437
   26MOL   H374 9924   2.337   4.260   7.148  2.8130 -0.3202  2.2040
   26MOL   H375 9925   2.248   4.400   7.125 -0.8513 -1.9005 -1.3762
   26MOL   H376 9926   2.505   4.315   6.988  0.7450  0.5590  2.4999
   26MOL   H377 9927   2.372   4.396   6.910 -0.9994 -0.0206  0.9123
   26MOL   H378 9928   2.483   4.596   6.957 -2.2925  0.3768  1.0927
   26MOL   H379 9929   2.615   4.508   7.022  0.1486 -0.7441 -0.0060
   26MOL   H380 9930   2.694   4.841   7.170 -1.5392  0.9468  0.2961
   26MOL   H381 9931   2.532   4.858   7.116 -1.3544 -1.8381  0.6857
   26MOL   H382 9932   2.635   4.746   7.035  1.6547  1.0196 -0.6435
   27MOL     C1 9933   5.353   2.469   2.649 -0.3153  0.0396  0.2777
   27MOL     C2 9934   5.453   2.414   2.754  0.4473 -0.6051  0.3763
   27MOL     C3 9935   5.581   2.348   2.703 -0.3047  0.6351 -0.2895
   27MOL     C4 9936   5.631   2.275   2.823 -0.4505 -0.4914 -0.1603
   27MOL     C5 9937   5.507   2.221   2.891 -0.0638 -0.2809 -0.0982
   27MOL     C6 9938   5.394   2.306   2.844  0.1762 -0.8535  0.0589
   27MOL     C7 9939   5.409   2.529   2.516  0.3336  0.6905 -0.2678
   27MOL     H8 9940   5.272   2.397   2.636  0.7162 -0.9501 -0.7273
   27MOL     H9 9941   5.485   2.493   2.822  0.1107 -0.4248  0.3231
   27MOL    H10 9942   5.554   2.271   2.631  0.3146 -0.3811  0.5508
   27MOL    H11 9943   5.652   2.426   2.673  0.1275 -0.0865 -1.1496
   27MOL    H12 9944   5.700   2.194   2.802 -1.9829 -1.7839 -0.3437
   27MOL    H13 9945   5.691   2.339   2.888 -0.8011  1.9838 -2.1870
   27MOL    H14 9946   5.492   2.116   2.865 -0.5185 -0.2165 -0.0962
   27MOL    H15 9947   5.497   2.235   2.999  1.1132  2.1966 -0.2819
   27MOL    H16 9948   5.336   2.358   2.921  0.0442 -2.6855  1.2287
   27MOL    H17 9949   5.320   2.241   2.797 -1.2770 -2.0888  3.8566
   27MOL    H18 9950   5.481   2.610   2.525  0.0491  0.9906 -0.6447
   27MOL    H19 9951   5.465   2.454   2.459  2.6038  0.7282  1.8238
   27MOL    H20 9952   5.305   2.555   2.696  1.1502  0.8791  0.2829
   27MOL    C21 9953   5.302   2.580   2.422 -0.3664  0.2921  0.2310
   27MOL    C22 9954   5.359   2.664   2.302 -0.1433 -0.1413 -0.9558
   27MOL    C23 9955   5.414   2.805   2.331 -0.6795 -0.6652 -0.6602
   27MOL    C24 9956   5.436   2.868   2.191  0.4322 -0.3039  0.2124
   27MOL    C25 9957   5.325   2.809   2.105 -0.7255  0.4808 -0.5464
   27MOL    C26 9958   5.262   2.692   2.184  0.9838  0.7480 -0.3240
   27MOL    C27 9959   5.201   2.467   2.379 -0.0596 -0.5834  0.4935
   27MOL    H28 9960   5.251   2.658   2.478  2.1750  1.9020  0.3953
   27MOL    H29 9961   5.448   2.611   2.268  0.4865 -0.4978  1.1305
   27MOL    H30 9962   5.493   2.810   2.405 -1.5185  0.8160  0.1565
   27MOL    H31 9963   5.345   2.866   2.389  0.3861 -1.2341  1.2514
   27MOL    H32 9964   5.440   2.977   2.188 -0.5952 -0.2596  0.0519
   27MOL    H33 9965   5.535   2.836   2.160 -0.3631 -1.5088 -1.1395
   27MOL    H34 9966   5.349   2.768   2.006 -0.9973  1.2516 -0.9379
   27MOL    H35 9967   5.251   2.888   2.091 -1.4746  0.0885  1.0575
   27MOL    H36 9968   5.255   2.604   2.121 -1.8362 -1.0608  2.4202
   27MOL    H37 9969   5.161   2.726   2.208  1.6283  3.0305 -0.6502
   27MOL    H38 9970   5.138   2.464   2.467 -2.2498  1.5141 -0.9267
   27MOL    H39 9971   5.136   2.496   2.296  1.5362 -0.2626 -0.6809
   27MOL    C40 9972   5.257   2.328   2.338 -0.5969 -1.3530 -0.0031
   27MOL    C41 9973   5.135   2.224   2.340 -0.4549  0.6345 -0.2975
   27MOL    C42 9974   5.007   2.271   2.283 -0.0386 -0.7021  0.3804
   27MOL    C43 9975   4.912   2.149   2.299  0.4058 -0.1002  0.3518
   27MOL    C44 9976   4.964   2.080   2.427 -0.4206  0.0927  0.5624
   27MOL    C45 9977   5.090   2.159   2.466  0.2570  0.6740 -0.8207
   27MOL    C46 9978   5.334   2.322   2.199  0.3162 -0.1854 -0.3958
   27MOL    H47 9979   5.322   2.288   2.416  1.5194 -0.2421 -1.1751
   27MOL    H48 9980   5.152   2.143   2.270  0.4518 -0.2596  0.9349
   27MOL    H49 9981   5.014   2.300   2.178 -1.8351 -2.3087 -0.2115
   27MOL    H50 9982   4.966   2.360   2.331 -0.7990 -2.4618  3.0652
   27MOL    H51 9983   4.924   2.086   2.211 -3.1314 -0.7557  0.2614
   27MOL    H52 9984   4.807   2.177   2.309  0.3613 -0.7963  1.8631
   27MOL    H53 9985   4.894   2.086   2.511 -0.7441  2.4740  0.1590
   27MOL    H54 9986   4.987   1.975   2.410  0.2326  0.5647 -1.5930
   27MOL    H55 9987   5.058   2.233   2.539  0.7087  2.2036 -2.1417
   27MOL    H56 9988   5.167   2.096   2.512 -1.2617  0.3107  1.3253
   27MOL    H57 9989   5.251   2.339   2.130  0.0813 -0.7009 -0.2445
   27MOL    H58 9990   5.400   2.408   2.187  0.9026 -0.7365 -1.2750
   27MOL    C59 9991   5.408   2.187   2.175  0.3298 -0.2725  1.0529
   27MOL    C60 9992   5.472   2.189   2.032 -0.6569 -0.2082  0.0507
   27MOL    C61 9993   5.572   2.298   1.997 -0.0098  1.1189  0.0076
   27MOL    C62 9994   5.501   2.390   1.894 -0.5171 -0.4449 -0.7388
   27MOL    C63 9995   5.445   2.286   1.810  0.0522  0.3135  1.1485
   27MOL    C64 9996   5.390   2.175   1.901 -0.7679 -0.3080 -0.1711
   27MOL    C65 9997   5.511   2.146   2.284  0.4469 -0.1021  0.0279
   27MOL    H66 9998   5.324   2.118   2.169  0.0963  0.1444 -0.5871
   27MOL    H67 9999   5.529   2.096   2.025 -0.2083  0.0036  0.7723
   27MOL    H6810000   5.668   2.264   1.956 -0.1280  0.8261 -0.0308
   27MOL    H6910001   5.589   2.350   2.091 -0.2873 -0.2611  0.8484
   27MOL    H7010002   5.577   2.452   1.847 -0.9944 -0.2740 -1.2725
   27MOL    H7110003   5.419   2.446   1.938  1.0685  2.6501 -1.6112
   27MOL    H7210004   5.519   2.238   1.746  2.0289  2.5572  1.6862
   27MOL    H7310005   5.374   2.329   1.740 -0.0711 -1.1480  0.3656
   27MOL    H7410006   5.287   2.185   1.932 -0.9457 -0.8962 -0.5602
   27MOL    H7510007   5.405   2.074   1.862  2.4841 -0.7144  1.9300
   27MOL    H7610008   5.473   2.181   2.380  1.8508  2.3827 -0.2599
   27MOL    H7710009   5.607   2.193   2.260  1.9262 -1.8271  2.3699
   27MOL    C7810010   5.519   1.992   2.306  0.1532 -0.6300  0.1895
   27MOL    C7910011   5.653   1.948   2.361 -0.0010 -0.7320  0.0151
   27MOL    C8010012   5.697   2.019   2.490  0.2537 -0.1516 -0.6243
   27MOL    C8110013   5.851   2.029   2.471 -0.1552  0.2656 -0.6969
   27MOL    C8210014   5.877   2.050   2.315  0.4643  0.3345  0.3506
   27MOL    C8310015   5.773   1.951   2.257 -0.6521 -0.8719 -0.1839
   27MOL    C8410016   5.402   1.954   2.397  0.0222  0.5147 -0.4683
   27MOL    H8510017   5.502   1.950   2.207 -1.9227 -0.2049  0.3471
   27MOL    H8610018   5.641   1.842   2.384 -2.8098 -1.0254 -2.4386
   27MOL    H8710019   5.666   1.952   2.571 -0.4846 -0.7774 -1.4223
   27MOL    H8810020   5.650   2.115   2.508 -2.4772 -1.4592 -0.5554
   27MOL    H8910021   5.906   1.946   2.515  1.6656  1.4357 -0.7274
   27MOL    H9010022   5.886   2.123   2.514  0.7945  0.2166 -1.3673
   27MOL    H9110023   5.842   2.150   2.287  0.1122 -0.4327 -2.1299
   27MOL    H9210024   5.981   2.033   2.290  0.4285 -1.4382  1.3051
   27MOL    H9310025   5.748   1.986   2.157  2.6269 -1.3306 -1.2373
   27MOL    H9410026   5.813   1.849   2.248 -0.5911 -0.9663  1.0605
   27MOL    H9510027   5.316   2.018   2.379 -0.0187  0.8592  0.8644
   27MOL    H9610028   5.435   1.969   2.500  1.4402 -1.5422 -0.5983
   27MOL    C9710029   5.366   1.803   2.382  0.1648 -0.3791  0.4302
   27MOL    C9810030   5.295   1.775   2.249  0.4825 -1.1793  0.1102
   27MOL    C9910031   5.288   1.632   2.199  0.1619 -0.2126 -0.4060
   27MOL   C10010032   5.151   1.604   2.144  0.3304 -0.0995  0.3422
   27MOL   C10110033   5.093   1.746   2.121  0.2609  0.1816 -0.6689
   27MOL   C10210034   5.152   1.826   2.235 -0.4930 -1.0473  0.2790
   27MOL   C10310035   5.278   1.757   2.500  0.0584 -0.7745 -0.1563
   27MOL   H10410036   5.452   1.737   2.387  0.6908  0.2857  0.2160
   27MOL   H10510037   5.341   1.823   2.163 -1.6633  0.0744 -0.3808
   27MOL   H10610038   5.366   1.621   2.124  0.4262 -1.6414  0.0785
   27MOL   H10710039   5.312   1.562   2.279 -1.0921  0.9958  1.0678
   27MOL   H10810040   5.082   1.559   2.215 -2.2423  1.3886 -1.1371
   27MOL   H10910041   5.155   1.540   2.056 -0.8747 -0.4824  0.5644
   27MOL   H11010042   4.984   1.750   2.124  0.1274 -2.0185 -1.5144
   27MOL   H11110043   5.133   1.776   2.024  2.2218 -0.7145 -0.1711
   27MOL   H11210044   5.145   1.935   2.225  0.1437 -0.9258  1.0976
   27MOL   H11310045   5.098   1.799   2.326  0.7729  0.8664  1.6291
   27MOL   H11410046   5.206   1.828   2.542  0.9895  0.4971 -0.6692
   27MOL   H11510047   5.212   1.673   2.478  0.9107 -1.6251  0.5241
   27MOL   C11610048   5.356   1.715   2.632 -0.4233  1.1249 -0.1016
   27MOL   C11710049   5.281   1.755   2.759 -0.3532  0.1573  0.2769
   27MOL   C11810050   5.295   1.900   2.792 -0.3919 -0.0905  0.2969
   27MOL   C11910051   5.153   1.942   2.836  0.4428 -0.0601  0.0579
   27MOL   C12010052   5.070   1.820   2.867 -0.4757  0.1160 -0.2194
   27MOL   C12110053   5.127   1.711   2.770 -0.6461 -0.2363  0.0908
   27MOL   C12210054   5.394   1.564   2.634  0.7259  0.7952  0.5318
   27MOL   H12310055   5.442   1.782   2.637 -0.9308  1.7092  0.9803
   27MOL   H12410056   5.337   1.697   2.832 -0.3110 -0.5257 -0.2945
   27MOL   H12510057   5.363   1.919   2.875  1.9421 -1.5572 -1.2070
   27MOL   H12610058   5.318   1.969   2.711  0.0974  1.2414  1.5451
   27MOL   H12710059   5.103   1.981   2.747  1.0613 -3.8021 -2.0261
   27MOL   H12810060   5.147   2.004   2.925 -1.2761 -0.3318  0.1444
   27MOL   H12910061   4.965   1.834   2.893 -0.4225 -1.2476  0.7878
   27MOL   H13010062   5.099   1.778   2.964 -1.1099 -0.0481 -0.0910
   27MOL   H13110063   5.124   1.611   2.812 -0.5685 -0.6090 -0.7819
   27MOL   H13210064   5.061   1.709   2.683  1.1740  1.8436 -1.4042
   27MOL   H13310065   5.370   1.525   2.535  0.3957 -0.2161  1.0141
   27MOL   H13410066   5.332   1.517   2.709 -0.9257  1.3199 -0.4728
   27MOL   C13510067   5.543   1.528   2.662  0.8181  0.0382 -0.6321
   27MOL   C13610068   5.636   1.581   2.554  0.1399  0.1098  0.2307
   27MOL   C13710069   5.652   1.502   2.423  0.0660 -0.2595  0.5494
   27MOL   C13810070   5.774   1.563   2.357 -0.2297 -0.1098  0.6680
   27MOL   C13910071   5.853   1.640   2.477  0.4727 -0.3077 -0.1320
   27MOL   C14010072   5.780   1.597   2.602 -0.0747 -0.3211 -0.6268
   27MOL   C14110073   5.561   1.373   2.699 -0.1621  0.0584  0.7858
   27MOL   H14210074   5.563   1.593   2.747 -1.8666  0.2245 -0.0934
   27MOL   H14310075   5.601   1.682   2.536 -2.3181 -0.6358  0.6970
   27MOL   H14410076   5.675   1.401   2.457 -1.2812 -0.1951  1.7068
   27MOL   H14510077   5.566   1.486   2.357  1.7257 -1.0126 -1.5011
   27MOL   H14610078   5.735   1.629   2.279  1.1490 -1.0841 -0.8713
   27MOL   H14710079   5.846   1.488   2.326 -0.1933  0.2005 -0.0088
   27MOL   H14810080   5.841   1.748   2.480  1.4705 -0.1308 -1.9956
   27MOL   H14910081   5.960   1.622   2.489  0.7401 -0.0197 -2.0491
   27MOL   H15010082   5.822   1.502   2.632  0.7527  0.4726  0.7872
   27MOL   H15110083   5.780   1.669   2.684  2.8038  1.7785 -2.3329
   27MOL   H15210084   5.658   1.333   2.669 -0.6607 -1.3169  0.9307
   27MOL   H15310085   5.495   1.310   2.638  3.4144 -1.5829 -1.5772
   27MOL   C15410086   5.565   1.340   2.853 -0.3463  0.2043 -0.0513
   27MOL   C15510087   5.445   1.392   2.938  0.2275 -0.4665  0.8868
   27MOL   C15610088   5.467   1.378   3.090 -0.6719 -0.2549 -0.4929
   27MOL   C15710089   5.324   1.402   3.148 -0.5209  0.1128  0.6377
   27MOL   C15810090   5.220   1.389   3.036 -0.1887  0.1924  0.2088
   27MOL   C15910091   5.304   1.320   2.925 -0.1183 -0.3775 -0.4656
   27MOL   C16010092   5.569   1.179   2.860 -0.0462  0.2384  0.1357
   27MOL   H16110093   5.648   1.394   2.899 -0.4704 -1.3611  2.0942
   27MOL   H16210094   5.428   1.497   2.917 -0.8558 -0.2237  2.9259
   27MOL   H16310095   5.504   1.278   3.115  1.0227  0.9177  1.9166
   27MOL   H16410096   5.542   1.444   3.133 -0.8883  1.2232 -2.3562
   27MOL   H16510097   5.306   1.332   3.230  1.0798 -0.7819  0.2281
   27MOL   H16610098   5.323   1.505   3.186 -1.0725  0.2156  0.3538
   27MOL   H16710099   5.179   1.481   2.992 -0.0341  0.4333  0.5641
   27MOL   H16810100   5.131   1.334   3.065 -0.7131  0.7379 -0.3333
   27MOL   H16910101   5.260   1.338   2.827  0.8661 -1.1497 -1.0606
   27MOL   H17010102   5.308   1.213   2.948  0.3554 -0.0041  1.2843
   27MOL   H17110103   5.488   1.142   2.798  0.0674 -0.9552  0.6920
   27MOL   H17210104   5.545   1.146   2.961 -0.8683  0.1198 -0.0935
   27MOL   C17310105   5.702   1.105   2.823 -0.0240 -0.0234 -0.9253
   27MOL   C17410106   5.678   0.952   2.819 -0.1091  0.0610 -0.2734
   27MOL   C17510107   5.786   0.854   2.769  0.2041 -0.1101 -0.9853
   27MOL   C17610108   5.722   0.730   2.706 -1.4059  0.5587 -0.5249
   27MOL   C17710109   5.575   0.770   2.682  0.3216 -0.1522 -0.1850
   27MOL   C17810110   5.555   0.915   2.726 -0.6212 -0.3555  0.0738
   27MOL   C17910111   5.812   1.140   2.921  0.0200 -0.0937  0.3952
   27MOL   H18010112   5.717   1.122   2.716 -1.9573 -2.4267 -1.6355
   27MOL   H18110113   5.660   0.930   2.925 -1.7900 -0.5792 -0.6874
   27MOL   H18210114   5.837   0.817   2.858 -0.2231 -0.8343 -1.0448
   27MOL   H18310115   5.869   0.898   2.713  0.2998  0.9753 -0.0247
   27MOL   H18410116   5.771   0.721   2.609  0.0926  1.6551  0.1147
   27MOL   H18510117   5.748   0.638   2.760 -1.7518  0.8568  0.1546
   27MOL   H18610118   5.507   0.718   2.750  1.2012  1.1880  1.7866
   27MOL   H18710119   5.546   0.764   2.577  1.1885  0.2492 -0.4504
   27MOL   H18810120   5.551   0.976   2.636  1.2095  0.7524  0.7314
   27MOL   H18910121   5.463   0.928   2.784  0.2789  2.0526  0.9999
   27MOL   H19010122   5.798   1.246   2.942  0.1755 -0.0027  0.0386
   27MOL   H19110123   5.798   1.078   3.010 -2.3408 -1.6162 -0.9786
   27MOL   C19210124   5.956   1.122   2.884 -0.1761  0.2207  0.4995
   27MOL   C19310125   6.051   1.089   3.005 -0.3685 -0.8774 -0.1223
   27MOL   C19410126   6.048   0.946   3.061  0.5241 -0.1120 -0.9257
   27MOL   C19510127   6.110   0.964   3.199  1.0372  0.3152 -0.6894
   27MOL   C19610128   6.054   1.092   3.252 -0.0637 -0.0401  0.3569
   27MOL   C19710129   6.032   1.187   3.125 -0.7693  0.4203 -0.4059
   27MOL   C19810130   5.999   1.250   2.801  0.4903  0.2092  0.1113
   27MOL   H19910131   5.971   1.039   2.815  0.3369  2.3976 -2.0534
   27MOL   H20010132   6.153   1.091   2.967 -0.0885 -0.5719  0.6316
   27MOL   H20110133   6.108   0.883   2.995  2.4301  0.3833  0.2797
   27MOL   H20210134   5.945   0.910   3.059  0.4702 -0.0805  0.6819
   27MOL   H20310135   6.081   0.882   3.265  1.6080  1.1359  0.6146
   27MOL   H20410136   6.218   0.975   3.192  0.9540  1.1556 -0.7379
   27MOL   H20510137   6.114   1.134   3.333  1.4720 -2.5565  0.5688
   27MOL   H20610138   5.957   1.080   3.301 -0.9647  1.7127 -0.9225
   27MOL   H20710139   6.100   1.271   3.113 -0.4057 -0.0610 -1.7579
   27MOL   H20810140   5.929   1.223   3.135 -0.2289  1.4444  1.6819
   27MOL   H20910141   5.924   1.282   2.728 -1.4797 -0.7979  1.6486
   27MOL   H21010142   6.007   1.326   2.878 -0.1457  1.6253 -1.2070
   27MOL   C21110143   6.122   1.236   2.718  0.4756 -0.3073  1.1981
   27MOL   C21210144   6.087   1.163   2.582  0.2680 -0.0320  0.1222
   27MOL   C21310145   6.019   1.252   2.475 -0.6662 -0.7524  0.1958
   27MOL   C21410146   6.103   1.242   2.347  0.3058  0.3789  0.1225
   27MOL   C21510147   6.188   1.117   2.358  0.2296  0.1587  0.8867
   27MOL   C21610148   6.206   1.097   2.513  0.6177  0.6716  0.1772
   27MOL   C21710149   6.192   1.380   2.699 -0.4764 -0.8000  0.3207
   27MOL   H21810150   6.193   1.177   2.776  2.2273  1.0445  0.4536
   27MOL   H21910151   6.025   1.075   2.599  1.6451 -1.2756 -1.0033
   27MOL   H22010152   5.916   1.217   2.473 -0.8170 -0.2990 -0.0296
   27MOL   H22110153   6.016   1.354   2.516  0.5038  0.3828 -2.4238
   27MOL   H22210154   6.037   1.252   2.261  1.3719  1.2044 -0.6213
   27MOL   H22310155   6.174   1.324   2.353  0.9450 -0.1569 -0.0201
   27MOL   H22410156   6.282   1.134   2.307 -0.9118 -3.9217 -2.9496
   27MOL   H22510157   6.132   1.033   2.315 -1.9485  1.4278  1.1459
   27MOL   H22610158   6.195   0.990   2.528 -0.0920  1.0828  2.7844
   27MOL   H22710159   6.305   1.113   2.556  1.4045 -1.3678 -0.8021
   27MOL   H22810160   6.125   1.462   2.723 -1.4485 -1.2577 -0.8024
   27MOL   H22910161   6.216   1.388   2.593  0.7320  0.4215  0.6788
   27MOL   C23010162   6.330   1.407   2.766  0.5601  0.3450 -0.4797
   27MOL   C23110163   6.315   1.394   2.918 -0.0294  0.0999 -0.4370
   27MOL   C23210164   6.442   1.379   3.010 -0.4003 -0.3926 -0.2937
   27MOL   C23310165   6.402   1.462   3.138 -0.7317 -0.4396  0.1687
   27MOL   C23410166   6.306   1.570   3.097 -0.0275 -0.3007  0.6538
   27MOL   C23510167   6.226   1.506   2.984  0.2248  0.3092  0.0104
   27MOL   C23610168   6.416   1.530   2.727  0.7422 -0.4924 -0.0895
   27MOL   H23710169   6.382   1.316   2.735  0.8051  0.4510 -0.3795
   27MOL   H23810170   6.266   1.298   2.934  0.1736  0.5536  3.2995
   27MOL   H23910171   6.449   1.272   3.028 -0.0917 -0.2182  0.6482
   27MOL   H24010172   6.532   1.424   2.970 -0.5469  0.9965  0.8992
   27MOL   H24110173   6.367   1.404   3.223 -0.0586 -0.2650  0.5672
   27MOL   H24210174   6.487   1.501   3.193  0.8835 -1.0112 -1.8454
   27MOL   H24310175   6.357   1.658   3.059 -1.8013  0.2970 -0.3650
   27MOL   H24410176   6.236   1.613   3.169 -1.9368 -0.1316 -1.2670
   27MOL   H24510177   6.184   1.584   2.920 -0.3873  0.8643  1.0760
   27MOL   H24610178   6.135   1.461   3.024  0.6699 -0.8199 -0.2253
   27MOL   H24710179   6.503   1.535   2.791  0.3216  1.9304  0.3660
   27MOL   H24810180   6.355   1.620   2.742  1.4985  0.4158 -2.2747
   27MOL   C24910181   6.467   1.519   2.580  0.1712 -0.8152 -0.5357
   27MOL   C25010182   6.609   1.452   2.569 -0.9286  0.0686 -0.0724
   27MOL   C25110183   6.658   1.442   2.425 -0.5612  0.0280  0.0942
   27MOL   C25210184   6.732   1.307   2.409 -0.7460 -0.1132  0.2786
   27MOL   C25310185   6.732   1.238   2.548 -0.3774  0.2942 -0.4353
   27MOL   C25410186   6.615   1.311   2.623 -0.4578  0.4737  1.3638
   27MOL   C25510187   6.479   1.662   2.531  0.2678 -0.5110  0.2363
   27MOL   H25610188   6.407   1.457   2.513  1.2358 -1.3981 -0.9831
   27MOL   H25710189   6.686   1.504   2.626  0.6065 -3.0043  0.7540
   27MOL   H25810190   6.719   1.527   2.395  3.1731 -3.2166 -2.0198
   27MOL   H25910191   6.571   1.442   2.359 -1.1523 -1.0631  0.8555
   27MOL   H26010192   6.837   1.314   2.378 -0.3013  1.2177  2.0074
   27MOL   H26110193   6.685   1.247   2.331  1.9973  0.8800 -2.2310
   27MOL   H26210194   6.825   1.264   2.599 -0.8346 -2.2163  1.7338
   27MOL   H26310195   6.705   1.133   2.556  0.6518  0.2135  2.7679
   27MOL   H26410196   6.611   1.303   2.732  0.8942 -2.1970  1.2638
   27MOL   H26510197   6.523   1.273   2.578  0.7890  1.1443 -1.8108
   27MOL   H26610198   6.534   1.707   2.614 -1.3857 -0.0524  1.1141
   27MOL   H26710199   6.546   1.676   2.446  0.6572  1.5065  0.8473
   27MOL   C26810200   6.338   1.740   2.500  0.1168 -0.2820 -0.7800
   27MOL   C26910201   6.304   1.723   2.347 -0.3614  0.6301  0.1973
   27MOL   C27010202   6.173   1.798   2.312  0.0953 -0.3119 -0.0846
   27MOL   C27110203   6.104   1.737   2.188 -0.2593  0.3883  0.4522
   27MOL   C27210204   6.167   1.594   2.189 -0.3720 -0.0842  0.0102
   27MOL   C27310205   6.250   1.581   2.318 -0.5816 -0.0779 -0.0437
   27MOL   C27410206   6.340   1.889   2.558 -0.1070  0.1628 -0.2060
   27MOL   H27510207   6.263   1.689   2.561  0.2827 -1.3612 -1.4678
   27MOL   H27610208   6.380   1.766   2.283 -1.9912  2.7298 -0.3831
   27MOL   H27710209   6.097   1.794   2.390  0.7311  0.4501  0.5661
   27MOL   H27810210   6.198   1.902   2.292  1.1840 -1.0834 -2.9676
   27MOL   H27910211   5.995   1.736   2.194 -0.6415  2.6594 -3.8054
   27MOL   H28010212   6.133   1.795   2.100 -2.8925  2.4375  0.8678
   27MOL   H28110213   6.229   1.579   2.100 -2.8933  0.5852 -1.9171
   27MOL   H28210214   6.094   1.513   2.184 -0.1512 -0.2385 -0.7115
   27MOL   H28310215   6.324   1.502   2.308  0.1393  0.5580  0.2557
   27MOL   H28410216   6.180   1.557   2.398 -0.8755  0.6713 -0.0741
   27MOL   H28510217   6.382   1.879   2.658  1.1355  2.2590 -0.4812
   27MOL   H28610218   6.236   1.918   2.573 -0.3836 -2.2830  3.2146
   27MOL   C28710219   6.418   1.998   2.487  0.9541  0.2718 -0.5564
   27MOL   C28810220   6.359   2.139   2.530 -0.3352 -0.1745  0.7093
   27MOL   C28910221   6.219   2.164   2.475  0.1923  0.9162  0.3598
   27MOL   C29010222   6.155   2.267   2.569  0.4308 -0.0390 -0.5817
   27MOL   C29110223   6.239   2.276   2.700 -0.5945 -0.0831 -0.0617
   27MOL   C29210224   6.340   2.164   2.683  0.7369  0.4354  0.4354
   27MOL   C29310225   6.576   2.002   2.506  0.0016 -0.4728 -0.9429
   27MOL   H29410226   6.393   1.994   2.381  1.4431 -0.0944 -0.6633
   27MOL   H29510227   6.420   2.218   2.487 -1.1025 -0.4260 -0.8732
   27MOL   H29610228   6.230   2.210   2.376  0.3730 -2.0415 -1.0302
   27MOL   H29710229   6.154   2.078   2.465 -0.2463  1.1551  1.1332
   27MOL   H29810230   6.142   2.364   2.520 -0.5148  0.4358  0.6045
   27MOL   H29910231   6.055   2.235   2.598 -0.0005  0.5657 -1.3649
   27MOL   H30010232   6.173   2.258   2.784 -1.0921 -0.6330 -0.5736
   27MOL   H30110233   6.293   2.371   2.701 -0.1826 -0.2983  2.6598
   27MOL   H30210234   6.299   2.074   2.730 -2.9213  1.4965 -0.5606
   27MOL   H30310235   6.436   2.190   2.727  0.7829 -0.5417  0.9278
   27MOL   H30410236   6.611   1.900   2.520  0.8880 -0.0188  0.2783
   27MOL   H30510237   6.597   2.028   2.610  0.0230  0.2996 -1.1349
   27MOL   C30610238   6.654   2.082   2.402  0.0299 -0.2916  0.0618
   27MOL   C30710239   6.769   2.151   2.477 -0.3793  0.3607 -0.1581
   27MOL   C30810240   6.873   2.227   2.403 -0.1152  0.0936  0.6174
   27MOL   C30910241   6.931   2.320   2.508  0.1207  0.0773 -0.0878
   27MOL   C31010242   6.822   2.362   2.603  0.4037 -0.1369  0.6001
   27MOL   C31110243   6.710   2.262   2.573 -0.3015  0.2503  0.1955
   27MOL   C31210244   6.710   1.999   2.284 -0.3379 -0.3784  0.0516
   27MOL   H31310245   6.580   2.152   2.363 -0.7835 -0.8310  0.6071
   27MOL   H31410246   6.823   2.077   2.537 -1.0991 -0.6486 -0.7259
   27MOL   H31510247   6.823   2.281   2.323 -1.8469 -2.0858  0.1913
   27MOL   H31610248   6.957   2.175   2.359  1.6239  1.8150  1.7753
   27MOL   H31710249   7.016   2.270   2.556 -1.6697 -2.3251  0.6744
   27MOL   H31810250   6.970   2.411   2.463 -0.3186  1.1393  1.6473
   27MOL   H31910251   6.790   2.466   2.591 -0.0989 -0.2605  0.8569
   27MOL   H32010252   6.849   2.345   2.708  0.5527  0.9988  0.7513
   27MOL   H32110253   6.670   2.215   2.663 -0.0782  1.3302  0.8740
   27MOL   H32210254   6.617   2.304   2.533 -0.1428  0.0636 -0.3716
   27MOL   H32310255   6.758   1.915   2.334 -0.9554 -0.3367  0.7180
   27MOL   H32410256   6.797   2.037   2.232  0.6693 -0.1580  1.8675
   27MOL   C32510257   6.611   1.968   2.173 -0.3783 -0.3113  0.4155
   27MOL   C32610258   6.648   1.833   2.099  0.2854  0.7186 -0.8168
   27MOL   C32710259   6.647   1.700   2.182 -0.3862 -0.8780 -0.1791
   27MOL   C32810260   6.733   1.602   2.108  0.4902  0.0446  0.6185
   27MOL   C32910261   6.804   1.684   1.999 -0.4276  0.0656  0.1320
   27MOL   C33010262   6.780   1.834   2.027  0.6056  0.5810 -0.0575
   27MOL   C33110263   6.599   2.081   2.072 -0.4861  0.3375  1.4927
   27MOL   H33210264   6.510   1.952   2.212 -1.9115 -0.3124 -3.4139
   27MOL   H33310265   6.578   1.818   2.016  1.3021 -1.7149 -1.2857
   27MOL   H33410266   6.549   1.656   2.200  0.5917 -2.4230  1.4506
   27MOL   H33510267   6.689   1.724   2.279 -0.6456  0.0586 -0.2924
   27MOL   H33610268   6.666   1.533   2.056 -0.3343 -1.5436  3.6657
   27MOL   H33710269   6.805   1.553   2.173  1.1640 -0.2511 -0.3467
   27MOL   H33810270   6.757   1.663   1.903  2.0537  1.0769 -1.3601
   27MOL   H33910271   6.909   1.662   1.980 -0.5126  0.5019 -0.8617
   27MOL   H34010272   6.781   1.904   1.944 -1.9001 -0.0786 -0.6825
   27MOL   H34110273   6.865   1.868   2.087  0.6417  1.4033 -0.5679
   27MOL   H34210274   6.570   2.023   1.984  0.1027  0.1290  1.4340
   27MOL   H34310275   6.703   2.106   2.049 -0.3172 -1.7365 -0.1682
   27MOL   C34410276   6.498   2.205   2.083 -0.1577  0.5754 -0.8250
   27MOL   C34510277   6.358   2.184   2.016 -0.3405  0.2050 -0.0938
   27MOL   C34610278   6.248   2.284   2.041  0.1370 -0.5599  0.1918
   27MOL   C34710279   6.112   2.215   2.062  0.2556 -0.8818  0.4836
   27MOL   C34810280   6.146   2.067   2.042 -0.1387 -0.5463  0.3579
   27MOL   C34910281   6.293   2.060   2.072  0.7030 -0.2866  1.0023
   27MOL   C35010282   6.572   2.319   1.997 -0.0515  0.1903 -0.1091
   27MOL   H35110283   6.482   2.229   2.187  2.6652  0.5441 -0.3325
   27MOL   H35210284   6.372   2.176   1.909 -0.6805 -1.6593 -0.0131
   27MOL   H35310285   6.256   2.355   1.958 -2.5959 -0.2573  0.1621
   27MOL   H35410286   6.275   2.340   2.130  0.0008 -0.0264 -0.0954
   27MOL   H35510287   6.085   2.236   2.165  1.0690  0.5786  0.4084
   27MOL   H35610288   6.030   2.253   2.001  0.5123 -2.0188 -0.5989
   27MOL   H35710289   6.130   2.042   1.937  0.0903  1.5665 -0.1899
   27MOL   H35810290   6.087   2.002   2.107 -0.8350 -0.1342  0.1365
   27MOL   H35910291   6.300   2.067   2.180  0.2681 -0.4276  1.0411
   27MOL   H36010292   6.327   1.961   2.042 -0.4215 -0.6146  0.7866
   27MOL   H36110293   6.496   2.383   1.952  1.9662  1.3487 -1.9130
   27MOL   H36210294   6.609   2.276   1.905 -0.7270 -0.8880  0.1084
   27MOL   C36310295   6.680   2.400   2.070 -0.3363 -0.4883 -0.8725
   27MOL   C36410296   6.721   2.521   1.985 -0.4478 -0.2592  0.0263
   27MOL   C36510297   6.746   2.494   1.837 -0.2249 -0.6123 -0.6692
   27MOL   C36610298   6.859   2.595   1.803  0.6240 -0.9170 -0.3505
   27MOL   C36710299   6.865   2.699   1.921  0.5577  0.2778  0.0085
   27MOL   C36810300   6.832   2.608   2.039 -0.4477 -0.0711  0.4003
   27MOL   C36910301   6.636   2.446   2.211 -0.5138  0.2394  0.0975
   27MOL   H37010302   6.769   2.337   2.081  2.6071  3.2397 -2.1641
   27MOL   H37110303   6.637   2.588   1.967  1.1443  1.1984 -2.3118
   27MOL   H37210304   6.781   2.393   1.817  1.5054 -0.0598 -0.5496
   27MOL   H37310305   6.655   2.508   1.779 -0.6673  1.2871  0.4536
   27MOL   H37410306   6.951   2.537   1.793 -0.4059 -2.4876 -0.7000
   27MOL   H37510307   6.835   2.641   1.707  0.0403  0.2709  0.3493
   27MOL   H37610308   6.962   2.749   1.922  0.0506  1.2448  1.4293
   27MOL   H37710309   6.785   2.773   1.918 -1.2255 -1.6278 -0.5305
   27MOL   H37810310   6.809   2.670   2.125 -1.4520 -0.1861  0.2218
   27MOL   H37910311   6.908   2.537   2.071 -1.3602 -0.9557  0.6707
   27MOL   H38010312   6.614   2.365   2.281 -0.5760 -1.2924 -1.6381
   27MOL   H38110313   6.539   2.494   2.205 -1.5411 -1.6416  1.2847
   27MOL   H38210314   6.710   2.508   2.262  1.8720 -1.3204 -1.3643
   28MOL     C110315   5.225   1.059   6.697 -0.4243 -0.4473  0.5743
   28MOL     C210316   5.123   1.179   6.687  0.2179 -0.4829 -0.5597
   28MOL     C310317   5.067   1.219   6.552 -0.2412  0.7229 -0.2743
   28MOL     C410318   5.039   1.370   6.548  0.0151  0.7188 -1.0134
   28MOL     C510319   5.104   1.432   6.673  0.5367  0.0001 -0.5071
   28MOL     C610320   5.182   1.311   6.736  0.2510 -0.1410  0.8303
   28MOL     C710321   5.253   0.998   6.841  0.6229  0.1418 -0.3704
   28MOL     H810322   5.201   0.970   6.640 -0.8133 -0.3588  0.5979
   28MOL     H910323   5.032   1.162   6.745  0.5167  0.8840  0.3349
   28MOL    H1010324   5.143   1.213   6.474 -0.2271  1.2263 -0.3019
   28MOL    H1110325   4.988   1.151   6.522  0.8662 -0.7228  0.0453
   28MOL    H1210326   5.073   1.416   6.456  1.3718  0.3946 -0.6830
   28MOL    H1310327   4.931   1.382   6.557 -0.4176 -2.5595 -1.3016
   28MOL    H1410328   5.162   1.522   6.650 -0.4339  0.7733  0.0892
   28MOL    H1510329   5.021   1.462   6.736  0.0949  1.6667 -1.8348
   28MOL    H1610330   5.176   1.318   6.845  0.4806 -0.8217  0.8915
   28MOL    H1710331   5.286   1.338   6.718  0.2873 -1.2069 -0.6968
   28MOL    H1810332   5.325   0.918   6.826 -0.4551 -1.2005  1.4041
   28MOL    H1910333   5.299   1.064   6.914  1.2594 -0.2269 -0.4387
   28MOL    H2010334   5.323   1.087   6.657 -0.8140 -0.0041 -0.0702
   28MOL    C2110335   5.123   0.948   6.925 -0.4990 -0.2466 -0.6013
   28MOL    C2210336   5.038   0.858   6.831  0.4670  0.7406 -0.3605
   28MOL    C2310337   4.906   0.804   6.890 -0.4219 -0.0272 -0.1741
   28MOL    C2410338   4.865   0.682   6.809  0.3898  0.6334 -0.3840
   28MOL    C2510339   4.991   0.640   6.731  0.1514 -0.4112  0.0380
   28MOL    C2610340   5.102   0.730   6.789 -0.2740 -0.1055  0.3728
   28MOL    C2710341   5.178   0.885   7.058 -0.7478  0.0592 -1.5109
   28MOL    H2810342   5.066   1.040   6.941 -1.9990 -1.3997  0.7569
   28MOL    H2910343   5.009   0.913   6.742 -0.5087 -0.7589 -0.9968
   28MOL    H3010344   4.832   0.884   6.882 -1.9974 -1.3407  0.9073
   28MOL    H3110345   4.906   0.770   6.994  0.6872 -1.2802 -0.5764
   28MOL    H3210346   4.818   0.605   6.871  0.7402 -1.0219 -2.1112
   28MOL    H3310347   4.800   0.713   6.728 -3.0955  2.8828  3.1064
   28MOL    H3410348   4.964   0.650   6.626 -1.7309 -1.2976  0.4125
   28MOL    H3510349   5.009   0.533   6.743 -0.3561 -0.5368 -0.2758
   28MOL    H3610350   5.179   0.750   6.714 -0.7871 -0.9709 -0.4025
   28MOL    H3710351   5.151   0.671   6.866  1.8596  0.4483 -0.5187
   28MOL    H3810352   5.215   0.783   7.050 -1.0679 -0.1758 -0.0345
   28MOL    H3910353   5.275   0.923   7.088 -0.8997 -1.5516  1.1089
   28MOL    C4010354   5.078   0.923   7.180 -0.6563 -0.1799 -0.1132
   28MOL    C4110355   5.050   0.789   7.256  0.3995  0.0405  0.4490
   28MOL    C4210356   4.921   0.773   7.333 -1.0280 -0.1740 -0.6478
   28MOL    C4310357   4.963   0.653   7.423 -0.2525  0.2045  0.0532
   28MOL    C4410358   5.114   0.640   7.447  0.8440  0.7113  0.2536
   28MOL    C4510359   5.172   0.730   7.335 -0.3204  0.2111  0.0515
   28MOL    C4610360   5.145   1.037   7.268 -0.3659  0.0840 -0.2618
   28MOL    H4710361   4.981   0.951   7.140  0.3121 -1.4736 -3.5423
   28MOL    H4810362   5.050   0.711   7.180  0.0819  2.6306 -2.3222
   28MOL    H4910363   4.840   0.742   7.267  0.0263 -4.0678 -0.2083
   28MOL    H5010364   4.904   0.861   7.395  0.2596 -0.7719  0.5823
   28MOL    H5110365   4.930   0.559   7.378 -0.9775 -0.4058  1.8349
   28MOL    H5210366   4.912   0.665   7.518  0.9286 -0.9655  0.8493
   28MOL    H5310367   5.142   0.678   7.546 -0.9716  1.1961  0.6061
   28MOL    H5410368   5.142   0.535   7.441  1.6074  0.9638 -0.6676
   28MOL    H5510369   5.224   0.813   7.382  1.4506 -0.9184  0.1484
   28MOL    H5610370   5.251   0.692   7.269 -0.6924 -1.5624  0.5832
   28MOL    H5710371   5.099   1.042   7.367  1.8205  0.6494  0.7709
   28MOL    H5810372   5.247   1.015   7.298 -0.9757 -0.2977  1.6012
   28MOL    C5910373   5.158   1.176   7.201  0.1595 -0.2049 -0.3329
   28MOL    C6010374   5.013   1.241   7.188 -0.3995  0.3602  0.1528
   28MOL    C6110375   5.002   1.370   7.101 -0.7485  0.8739 -0.2509
   28MOL    C6210376   4.896   1.463   7.168  0.1125  0.0256 -0.7792
   28MOL    C6310377   4.835   1.381   7.281  0.2863  0.8171 -0.2830
   28MOL    C6410378   4.944   1.282   7.321 -0.6092 -0.5618 -0.1329
   28MOL    C6510379   5.257   1.271   7.273 -0.1054  0.2245  0.0193
   28MOL    H6610380   5.193   1.173   7.098  0.9743 -3.0239 -0.0310
   28MOL    H6710381   4.958   1.164   7.135 -1.5198  0.6302  0.9175
   28MOL    H6810382   4.973   1.346   6.998 -0.4364 -0.0595 -0.1229
   28MOL    H6910383   5.093   1.431   7.099 -0.0532 -0.0782  1.5741
   28MOL    H7010384   4.831   1.506   7.093  0.6587  1.6404 -0.3594
   28MOL    H7110385   4.948   1.550   7.209 -0.5774 -0.0293  0.2415
   28MOL    H7210386   4.744   1.327   7.254  1.0589 -0.9104  0.5381
   28MOL    H7310387   4.807   1.450   7.361  0.8970  0.1104  0.5383
   28MOL    H7410388   5.020   1.326   7.386 -2.3169 -1.9148  2.8840
   28MOL    H7510389   4.913   1.199   7.385  0.7931  0.5314  2.0039
   28MOL    H7610390   5.243   1.257   7.380 -3.1604 -1.1397 -0.5060
   28MOL    H7710391   5.231   1.377   7.270 -1.2074  0.0240  2.2432
   28MOL    C7810392   5.411   1.269   7.226 -0.8458 -0.6491 -0.9495
   28MOL    C7910393   5.421   1.320   7.077  0.5551 -0.9148  0.1145
   28MOL    C8010394   5.553   1.291   7.005  0.0114 -0.3334 -0.3962
   28MOL    C8110395   5.582   1.409   6.910 -0.2866  0.4728 -0.2297
   28MOL    C8210396   5.484   1.517   6.939 -0.5194 -0.1934 -0.6025
   28MOL    C8310397   5.400   1.469   7.055  0.2170 -0.1009 -0.8381
   28MOL    C8410398   5.508   1.334   7.325 -0.1285 -0.0712 -0.0439
   28MOL    H8510399   5.438   1.165   7.238 -1.0533 -0.8953 -2.5292
   28MOL    H8610400   5.338   1.276   7.022 -0.2859  0.2244  0.4691
   28MOL    H8710401   5.537   1.198   6.952 -0.3523 -1.9152  2.4106
   28MOL    H8810402   5.643   1.277   7.065  0.1603 -0.7414 -0.7191
   28MOL    H8910403   5.601   1.377   6.808 -2.5499  1.4360 -0.9725
   28MOL    H9010404   5.681   1.446   6.939 -0.0173 -1.2484  1.1413
   28MOL    H9110405   5.536   1.612   6.950  0.6542 -1.0857  1.9740
   28MOL    H9210406   5.424   1.528   6.849 -0.1263  0.0689 -0.8363
   28MOL    H9310407   5.430   1.529   7.141 -0.2644 -1.1277  0.0574
   28MOL    H9410408   5.296   1.501   7.044  0.9744  2.1852 -1.7213
   28MOL    H9510409   5.469   1.431   7.355  1.5979  1.6056 -3.0094
   28MOL    H9610410   5.597   1.361   7.268  1.9471  1.7576  3.8959
   28MOL    C9710411   5.551   1.248   7.452  0.5869 -0.1907 -0.3046
   28MOL    C9810412   5.603   1.350   7.561  0.0202 -0.3706  0.6082
   28MOL    C9910413   5.709   1.449   7.521 -0.0649 -0.3478 -1.1354
   28MOL   C10010414   5.711   1.555   7.625  0.2170  0.7076 -0.2477
   28MOL   C10110415   5.559   1.583   7.649 -0.3159 -0.2378 -0.1128
   28MOL   C10210416   5.502   1.441   7.622 -0.2602 -0.0525 -0.5417
   28MOL   C10310417   5.641   1.128   7.421  0.1004  0.0338 -0.0485
   28MOL   H10410418   5.461   1.206   7.497 -0.8879  2.3038 -0.8319
   28MOL   H10510419   5.634   1.294   7.649  2.2826 -0.6634 -0.3316
   28MOL   H10610420   5.797   1.387   7.503  0.4954 -0.1252  0.7267
   28MOL   H10710421   5.683   1.504   7.431 -0.0163 -0.3390 -1.1441
   28MOL   H10810422   5.774   1.640   7.600 -0.3145  1.0697 -0.3627
   28MOL   H10910423   5.760   1.525   0.028  2.2840  1.1047 -1.1838
   28MOL   H11010424   5.527   1.647   7.567  3.6821  1.3815 -0.5481
   28MOL   H11110425   5.542   1.627   0.058 -0.8524 -0.9569  0.1261
   28MOL   H11210426   5.461   1.399   0.025  2.7085 -1.7687  0.0525
   28MOL   H11310427   5.413   1.453   7.561 -0.6617 -1.2028 -0.2117
   28MOL   H11410428   5.678   1.127   7.319  2.1867  2.4669  0.6429
   28MOL   H11510429   5.727   1.141   7.487  0.5374  0.1175 -0.6342
   28MOL   C11610430   5.572   0.987   7.445 -0.3813  0.4588 -0.0402
   28MOL   C11710431   5.631   0.875   7.355 -0.1161  0.9478 -0.5782
   28MOL   C11810432   5.558   0.743   7.360 -0.0314  0.8576  0.6181
   28MOL   C11910433   5.580   0.667   7.228 -0.4942 -0.4557  0.0433
   28MOL   C12010434   5.568   0.782   7.124 -0.2330 -0.1414  0.6862
   28MOL   C12110435   5.624   0.913   7.201  0.2421  0.0354  0.0333
   28MOL   C12210436   5.551   0.935   7.587 -0.1812 -1.1878  0.1363
   28MOL   H12310437   5.470   1.009   7.414 -0.8256 -0.8669  0.4392
   28MOL   H12410438   5.735   0.852   7.373 -0.2096 -0.2715 -1.4956
   28MOL   H12510439   5.586   0.688   7.449  1.3692  2.3261  1.1154
   28MOL   H12610440   5.452   0.769   7.374  0.1826  3.0513 -1.4210
   28MOL   H12710441   5.498   0.595   7.222 -0.4862 -0.4170 -0.5524
   28MOL   H12810442   5.676   0.616   7.223 -0.7374 -1.0161  1.0223
   28MOL   H12910443   5.465   0.782   7.087 -0.6777  0.0338  1.8957
   28MOL   H13010444   5.628   0.781   7.033 -0.6274 -1.9534  0.4472
   28MOL   H13110445   5.720   0.944   7.160  0.4797 -1.5230 -0.6043
   28MOL   H13210446   5.549   0.992   7.188  2.6852  2.2312 -1.1686
   28MOL   H13310447   5.573   1.027   7.643 -0.0443  0.2342 -2.1986
   28MOL   H13410448   5.630   0.873   7.630 -0.6164 -0.6459  1.7637
   28MOL   C13510449   5.414   0.888   7.640 -0.9056  0.3279 -0.6611
   28MOL   C13610450   5.305   1.001   7.649 -0.3791 -0.2296  0.6384
   28MOL   C13710451   5.318   1.100   0.071 -0.1180  0.4368 -1.1507
   28MOL   C13810452   5.174   1.124   0.128  0.7631  1.1377  0.6001
   28MOL   C13910453   5.083   1.089   0.014  0.4431 -0.6306 -0.2005
   28MOL   C14010454   5.152   0.964   7.651  0.7595 -0.2968 -0.3518
   28MOL   C14110455   5.433   0.821   0.093  0.6637  0.3006  0.2518
   28MOL   H14210456   5.376   0.814   7.570  1.0739 -0.5463 -0.8360
   28MOL   H14310457   5.312   1.050   7.552 -0.8051  0.5005  0.9767
   28MOL   H14410458   5.392   1.071   0.145  1.1551  1.1811 -2.1174
   28MOL   H14510459   5.349   1.194   0.026  0.7373  0.1512 -1.1570
   28MOL   H14610460   5.158   1.213   0.189  1.4376  1.3123  0.5158
   28MOL   H14710461   5.146   1.060   0.212  0.0535  1.7319  0.8280
   28MOL   H14810462   5.075   1.168   7.628 -0.4245 -0.7075 -0.1909
   28MOL   H14910463   4.976   1.085   0.032  0.2388  3.2257 -0.1583
   28MOL   H15010464   5.125   0.880   0.025 -1.3402  0.0746 -0.6991
   28MOL   H15110465   5.114   0.951   7.549  0.7713 -1.6953 -0.1910
   28MOL   H15210466   5.336   0.814   0.143  0.5073 -1.6237 -0.2884
   28MOL   H15310467   5.498   0.887   0.150  2.2863 -1.7806  0.8489
   28MOL   C15410468   5.502   0.679   0.088 -0.4896  0.4494  0.0741
   28MOL   C15510469   5.569   0.648   0.230 -0.3118 -0.4829  0.3439
   28MOL   C15610470   5.477   0.673   0.351 -0.3937 -0.6123 -0.4713
   28MOL   C15710471   5.582   0.662   0.473 -0.4484  0.3177  0.2396
   28MOL   C15810472   5.713   0.711   0.411 -0.2722 -0.2835  0.0601
   28MOL   C15910473   5.696   0.736   0.261 -0.5722  0.1888  0.6983
   28MOL   C16010474   5.408   0.568   0.034 -0.3045 -0.4837 -0.0562
   28MOL   H16110475   5.586   0.684   0.020  0.3227 -0.0782  1.0232
   28MOL   H16210476   5.607   0.545   0.232 -0.7672 -0.6998 -1.3037
   28MOL   H16310477   5.431   0.771   0.355 -1.2034 -0.9613 -1.2155
   28MOL   H16410478   5.390   0.608   0.362 -1.4555  0.9131  0.2370
   28MOL   H16510479   5.539   0.720   0.555 -5.0681 -1.0251 -1.0559
   28MOL   H16610480   5.593   0.558   0.501 -0.8098 -0.1412 -1.2824
   28MOL   H16710481   5.795   0.639   0.420 -0.3040 -0.6157 -2.0078
   28MOL   H16810482   5.740   0.803   0.463  0.0826 -0.1368 -0.3832
   28MOL   H16910483   5.779   0.690   0.208 -0.6094  1.7016 -0.7066
   28MOL   H17010484   5.678   0.840   0.233 -0.1084 -0.4007 -1.8333
   28MOL   H17110485   5.376   0.614   7.630 -0.4946 -1.6076 -0.5580
   28MOL   H17210486   5.318   0.571   0.095  2.4573  1.8606  4.1458
   28MOL   C17310487   5.462   0.421   0.019 -0.1820 -0.6013 -0.2594
   28MOL   C17410488   5.432   0.347   7.580  0.1711  0.4507 -0.1477
   28MOL   C17510489   5.457   0.421   7.446 -0.0410  0.2867 -0.4462
   28MOL   C17610490   5.370   0.352   7.336 -0.1424 -0.2408  0.3229
   28MOL   C17710491   5.283   0.254   7.421 -0.1390  0.4561  0.5652
   28MOL   C17810492   5.285   0.301   7.561  0.2217 -0.4889  0.2893
   28MOL   C17910493   5.427   0.331   0.151  0.4835 -0.0863  0.5640
   28MOL   H18010494   5.570   0.429   0.024 -0.2811  0.7925 -0.0402
   28MOL   H18110495   5.501   0.263   7.576  1.7102  1.5696  2.1040
   28MOL   H18210496   5.563   0.422   7.419  0.2716 -3.5510  0.3114
   28MOL   H18310497   5.423   0.524   7.453  2.3729  1.0011  1.5917
   28MOL   H18410498   5.305   0.419   7.280 -0.9546 -0.5266  0.9052
   28MOL   H18510499   5.431   0.296   7.265 -1.4459 -0.2743 -0.7761
   28MOL   H18610500   5.330   0.156   7.420  0.7002  0.8584 -0.0383
   28MOL   H18710501   5.181   0.241   7.386  0.5076  0.9489 -1.5188
   28MOL   H18810502   5.203   0.367   7.588 -1.8260 -2.2258 -1.5256
   28MOL   H18910503   5.272   0.216   7.628 -2.7233  0.4223  0.9480
   28MOL   H19010504   5.454   0.382   0.243  1.3965 -1.9175  1.3410
   28MOL   H19110505   5.319   0.327   0.162  0.3027 -0.9374 -1.3022
   28MOL   C19210506   5.487   0.189   0.154 -1.0883  0.5317  0.5717
   28MOL   C19310507   5.423   0.088   0.256  0.2399  0.0223 -0.3230
   28MOL   C19410508   5.281   0.059   0.231  0.2209  0.5223 -0.5155
   28MOL   C19510509   5.209   0.068   0.364 -0.8028  0.6726 -0.2920
   28MOL   C19610510   5.315   0.055   0.474 -0.8718  0.4398  0.1757
   28MOL   C19710511   5.430   0.131   0.404  0.2192  0.5499 -0.0700
   28MOL   C19810512   5.641   0.203   0.183  0.2489 -0.1395 -0.0823
   28MOL   H19910513   5.463   0.143   0.058 -2.7637  1.8490  0.3473
   28MOL   H20010514   5.478   7.684   0.245 -0.2207 -0.2373 -0.4900
   28MOL   H20110515   5.264   7.647   0.194 -1.4353  0.8789 -0.7998
   28MOL   H20210516   5.233   0.127   0.161 -2.0930 -0.8139 -0.3153
   28MOL   H20310517   5.178   0.172   0.358 -1.3028  0.7758  3.0034
   28MOL   H20410518   5.121   0.004   0.370 -2.3349  2.8620  1.2294
   28MOL   H20510519   5.356   7.648   0.500 -2.3891 -0.4387 -0.6380
   28MOL   H20610520   5.275   0.102   0.564  1.2790 -0.1090  1.4600
   28MOL   H20710521   5.528   0.113   0.447  0.2408 -2.8666 -1.4308
   28MOL   H20810522   5.418   0.240   0.406 -0.5938  0.4580  0.5111
   28MOL   H20910523   5.681   0.299   0.152  0.5595  0.0061  0.7520
   28MOL   H21010524   5.654   0.209   0.291  1.0279  0.8003 -0.2195
   28MOL   C21110525   5.726   0.075   0.131 -0.1673 -0.4963 -0.1939
   28MOL   C21210526   5.722   0.073   7.658  0.1561  0.2114 -0.8306
   28MOL   C21310527   5.796   0.184   7.582  0.4271 -0.2527 -0.5038
   28MOL   C21410528   5.810   0.138   7.435 -0.5519  0.0421  0.4950
   28MOL   C21510529   5.787   7.676   7.454 -0.1893 -0.1104  0.8147
   28MOL   C21610530   5.788   7.633   7.599  0.5313 -0.6928  0.6659
   28MOL   C21710531   5.869   0.072   0.191  0.2972  0.1515 -0.6316
   28MOL   H21810532   5.677   7.674   0.165 -1.5753 -0.0265 -0.9191
   28MOL   H21910533   5.620   0.074   7.618 -0.1056  0.0250 -0.1806
   28MOL   H22010534   5.733   0.272   7.594  0.0677 -0.6209  0.3880
   28MOL   H22110535   5.891   0.203   7.632 -0.4567  2.5862  0.1779
   28MOL   H22210536   5.725   0.169   7.374  0.8853  3.3614  0.1116
   28MOL   H22310537   5.908   0.163   7.395 -1.2721  0.8759 -0.7758
   28MOL   H22410538   5.855   7.623   7.387 -1.7400 -0.3752 -0.5889
   28MOL   H22510539   5.684   7.659   7.426  0.4453 -3.4832  0.3333
   28MOL   H22610540   5.739   7.537   7.621 -1.0224 -0.1373 -0.3147
   28MOL   H22710541   5.894   7.624   7.620  0.7632  2.3685  1.0236
   28MOL   H22810542   5.923   0.160   0.154  0.1279 -0.6158 -2.8058
   28MOL   H22910543   5.932   7.682   0.150  1.5226 -1.5611  4.1921
   28MOL   C23010544   5.866   0.052   0.350 -0.3944  0.2436  0.3846
   28MOL   C23110545   5.945   0.166   0.433  0.0952 -0.6082  0.0415
   28MOL   C23210546   6.099   0.187   0.398  0.4121  0.2607 -0.7451
   28MOL   C23310547   6.128   0.329   0.445  0.7089  0.7616 -0.0477
   28MOL   C23410548   5.993   0.389   0.492  0.0949 -0.4822  0.5386
   28MOL   C23510549   5.887   0.307   0.419 -0.5421  0.4838 -0.1978
   28MOL   C23610550   5.899   7.602   0.400 -0.4299  1.2675 -0.4186
   28MOL   H23710551   5.767   0.069   0.394 -0.1578 -0.1172  1.0537
   28MOL   H23810552   5.948   0.137   0.538 -0.2346  3.4477  1.2729
   28MOL   H23910553   6.155   0.111   0.452 -0.6105  0.8504  1.1985
   28MOL   H24010554   6.112   0.179   0.290 -2.4028 -3.5905 -0.8910
   28MOL   H24110555   6.202   0.332   0.525 -1.5364  0.5390  2.0948
   28MOL   H24210556   6.176   0.382   0.363  1.4853 -1.9099 -1.3604
   28MOL   H24310557   5.991   0.493   0.457 -2.8617 -0.8577 -0.5183
   28MOL   H24410558   5.975   0.390   0.600 -1.1961 -0.6620  0.3241
   28MOL   H24510559   5.877   0.341   0.316 -1.5800 -0.4554 -0.4202
   28MOL   H24610560   5.794   0.311   0.475 -0.4996  2.4457 -0.2516
   28MOL   H24710561   5.940   7.600   0.501  0.7438 -1.8260 -0.8941
   28MOL   H24810562   5.987   7.571   0.342 -1.4251  0.3084 -1.4688
   28MOL   C24910563   5.793   7.489   0.384 -0.7288  0.1491  0.0676
   28MOL   C25010564   5.690   7.506   0.488  0.6555 -0.2419 -0.1904
   28MOL   C25110565   5.730   7.489   0.638  0.3346 -0.3808  0.2954
   28MOL   C25210566   5.593   7.483   0.699  0.4722  0.0688  0.2205
   28MOL   C25310567   5.505   7.411   0.599  0.4008  0.2464 -0.0758
   28MOL   C25410568   5.562   7.434   0.460  0.1939 -0.0029  0.5737
   28MOL   C25510569   5.850   7.344   0.394  1.1048 -0.0726 -0.3198
   28MOL   H25610570   5.741   7.501   0.289 -3.2679 -0.7710  1.2729
   28MOL   H25710571   5.650   7.606   0.468 -0.7438 -0.6095  0.7184
   28MOL   H25810572   5.802   7.558   0.681  0.1299 -0.0670  0.1378
   28MOL   H25910573   5.776   7.390   0.650 -1.0996 -0.8117  2.7360
   28MOL   H26010574   5.552   7.583   0.700 -0.0329 -0.1266 -0.5779
   28MOL   H26110575   5.584   7.451   0.802  1.1837 -1.7275 -0.2482
   28MOL   H26210576   5.405   7.455   0.601  0.6394  0.8005 -0.1714
   28MOL   H26310577   5.492   7.304   0.614 -1.5556  0.3745 -0.6196
   28MOL   H26410578   5.492   7.487   0.396  1.1442  1.1806  0.4820
   28MOL   H26510579   5.581   7.341   0.406 -1.8687 -0.1102  0.0094
   28MOL   H26610580   5.910   7.337   0.484  0.6783  0.7569  0.0325
   28MOL   H26710581   5.770   7.277   0.425  1.9501 -0.3284  1.3456
   28MOL   C26810582   5.927   7.288   0.269  0.4938 -0.2778  0.2314
   28MOL   C26910583   5.832   7.233   0.168 -0.3486 -0.3412  0.1711
   28MOL   C27010584   5.762   7.100   0.199  0.0387  0.3341  0.3909
   28MOL   C27110585   5.713   7.054   0.064  0.2183  0.6434 -1.0033
   28MOL   C27210586   5.834   7.077   7.668 -0.1148  0.9941  0.1963
   28MOL   C27310587   5.898   7.209   0.028  0.6228  0.0406 -0.2423
   28MOL   C27410588   6.028   7.183   0.311 -0.6499  0.3107 -1.2881
   28MOL   H27510589   5.963   7.379   0.222  0.5034 -0.0287  0.7171
   28MOL   H27610590   5.756   7.311   0.157  0.1018  0.0379 -0.2457
   28MOL   H27710591   5.831   7.024   0.236 -1.3672 -0.4981  1.3401
   28MOL   H27810592   5.685   7.101   0.276 -0.1963 -2.0645  0.2394
   28MOL   H27910593   5.676   6.952   0.064  1.4937  0.1856 -0.3159
   28MOL   H28010594   5.629   7.120   0.039  1.1062  2.5357  0.8437
   28MOL   H28110595   5.817   7.076   7.560  0.7997 -0.5129  0.0645
   28MOL   H28210596   5.901   6.992   7.676 -1.1265  0.0075 -1.3462
   28MOL   H28310597   5.889   7.288   7.643  0.4258 -0.9676 -1.2986
   28MOL   H28410598   6.006   7.195   0.035  0.4276 -2.2524 -1.3305
   28MOL   H28510599   6.055   7.114   0.230  3.2916 -1.5657  1.4665
   28MOL   H28610600   5.979   7.114   0.381 -0.1346  1.9637  0.7347
   28MOL   C28710601   6.161   7.230   0.391  0.7611  0.0385  0.4277
   28MOL   C28810602   6.228   7.109   0.458 -0.3913 -0.5403 -0.5944
   28MOL   C28910603   6.171   7.036   0.578 -0.7336 -0.2457  0.1692
   28MOL   C29010604   6.215   6.894   0.576 -0.0801  0.3932 -0.4564
   28MOL   C29110605   6.329   6.891   0.466 -0.6246  0.5736 -0.0725
   28MOL   C29210606   6.278   6.996   0.367  0.5425  0.1695 -1.1122
   28MOL   C29310607   6.243   7.311   0.290 -0.2465 -0.2624 -0.5408
   28MOL   H29410608   6.140   7.288   0.481  2.5537 -0.1629  0.9900
   28MOL   H29510609   6.319   7.156   0.498  0.0712 -0.8394 -1.2910
   28MOL   H29610610   6.210   7.079   0.670 -0.7156 -0.2258  0.1526
   28MOL   H29710611   6.063   7.036   0.586 -0.7571 -0.2513 -0.1318
   28MOL   H29810612   6.260   6.867   0.671  1.7484  1.0321 -1.1287
   28MOL   H29910613   6.124   6.837   0.557 -0.2277 -0.5232  2.7627
   28MOL   H30010614   6.327   6.791   0.421 -0.9535  0.7802 -0.5147
   28MOL   H30110615   6.426   6.910   0.511  0.4358 -0.8034 -1.7302
   28MOL   H30210616   6.197   6.955   0.307 -2.3381  2.1688  1.2438
   28MOL   H30310617   6.352   7.028   0.295  1.3728 -0.0911 -0.3890
   28MOL   H30410618   6.183   7.372   0.223 -0.6866 -0.7836 -0.6292
   28MOL   H30510619   6.281   7.240   0.216  0.3187 -1.9112  1.2978
   28MOL   C30610620   6.357   7.399   0.355  0.4628 -0.1804 -0.5066
   28MOL   C30710621   6.403   7.488   0.234 -0.5587  0.3787 -0.2422
   28MOL   C30810622   6.494   7.611   0.273  0.2760  0.5651 -0.4417
   28MOL   C30910623   6.585   7.641   0.159 -0.3923 -0.7337 -0.0084
   28MOL   C31010624   6.585   7.516   0.065  0.0108 -0.7308  0.9736
   28MOL   C31110625   6.496   7.415   0.133  0.1080  0.5254 -0.1054
   28MOL   C31210626   6.311   7.488   0.476 -0.2851  0.3998 -0.0097
   28MOL   H31310627   6.435   7.331   0.389 -0.8580 -2.2537 -1.5380
   28MOL   H31410628   6.322   7.542   0.184  0.6753  2.2367 -0.2945
   28MOL   H31510629   6.547   7.594   0.367  0.0990 -1.0692 -0.6222
   28MOL   H31610630   6.440   0.015   0.286  0.4476  0.6385 -0.2580
   28MOL   H31710631   6.552   0.038   0.102  0.2142 -1.6678 -1.8219
   28MOL   H31810632   6.680   7.667   0.207 -0.1439  0.1135 -0.9410
   28MOL   H31910633   6.685   7.474   0.060  0.1541 -0.7073  2.9894
   28MOL   H32010634   6.552   7.540   7.654  0.1807 -2.5448  0.4735
   28MOL   H32110635   6.441   7.350   0.065  1.4725  0.3868 -1.1030
   28MOL   H32210636   6.566   7.365   0.200  1.5735  0.4135 -1.6906
   28MOL   H32310637   6.205   7.512   0.472 -0.9474 -2.4208 -0.7260
   28MOL   H32410638   6.356   7.587   0.472 -1.1726  0.7679 -1.3182
   28MOL   C32510639   6.350   7.429   0.615  0.1572 -0.6767 -0.0746
   28MOL   C32610640   6.297   7.520   0.734 -0.3286 -0.1758 -0.0603
   28MOL   C32710641   6.322   7.466   0.877  0.5180 -0.3154 -0.4381
   28MOL   C32810642   6.206   7.523   0.958  0.2859  1.1039  0.3690
   28MOL   C32910643   6.124   7.618   0.871  0.2637  0.3706 -0.9398
   28MOL   C33010644   6.152   7.559   0.727  0.1768  0.4201 -0.8928
   28MOL   C33110645   6.507   7.415   0.636 -0.2015  0.3189  0.2266
   28MOL   H33210646   6.308   7.329   0.619  3.2964 -2.1058 -1.2094
   28MOL   H33310647   6.351   7.614   0.728  0.2821 -0.3416  2.3776
   28MOL   H33410648   6.412   7.514   0.918 -0.2535 -0.6065  1.6476
   28MOL   H33510649   6.335   7.360   0.895  1.3779  0.1938  2.1682
   28MOL   H33610650   6.245   7.577   1.045 -1.0168  0.0685  1.6294
   28MOL   H33710651   6.151   7.435   0.991 -1.2788  0.9266 -2.5565
   28MOL   H33810652   6.157   0.031   0.891  2.2171 -0.5344  0.6466
   28MOL   H33910653   6.017   7.617   0.891  0.4674 -0.9622  0.1356
   28MOL   H34010654   6.135   7.623   0.641  2.4354  0.9127 -1.0027
   28MOL   H34110655   6.083   7.475   0.719  0.0757  0.5028 -0.8867
   28MOL   H34210656   6.540   7.477   0.719 -0.4081  0.8521 -0.0836
   28MOL   H34310657   6.562   7.473   0.562 -3.3265 -0.5049 -2.8646
   28MOL   C34410658   6.591   7.283   0.631  0.0098  0.1767 -0.5155
   28MOL   C34510659   6.555   7.198   0.755 -0.2035  0.1615  0.6752
   28MOL   C34610660   6.617   7.240   0.893 -0.3005  0.3001 -0.4802
   28MOL   C34710661   6.697   7.125   0.949 -0.2898 -0.0348 -0.3904
   28MOL   C34810662   6.618   7.010   0.891 -0.3882  0.3921 -0.6489
   28MOL   C34910663   6.571   7.049   0.746  0.3634 -0.0530 -0.4629
   28MOL   C35010664   6.743   7.318   0.625 -0.1178 -0.2300 -0.2821
   28MOL   H35110665   6.567   7.239   0.535 -1.5078 -0.7306  0.2601
   28MOL   H35210666   6.448   7.216   0.766 -0.1751 -0.1560  1.5015
   28MOL   H35310667   6.535   7.269   0.959 -1.3409 -1.0366 -1.1484
   28MOL   H35410668   6.668   7.333   0.869  0.5541 -0.3967 -1.4358
   28MOL   H35510669   6.798   7.136   0.910 -0.0630  1.5237  0.5737
   28MOL   H35610670   6.693   7.121   1.058 -2.5038 -1.7046 -0.5009
   28MOL   H35710671   6.543   6.973   0.960 -0.4393 -1.6380 -1.7441
   28MOL   H35810672   6.686   6.925   0.880 -0.5825  0.3645 -1.7504
   28MOL   H35910673   6.650   7.022   0.675  0.9267  0.9520 -0.2237
   28MOL   H36010674   6.483   7.006   0.699  0.9445 -0.7985 -0.8896
   28MOL   H36110675   6.798   7.238   0.675 -0.8563  0.8341  2.3427
   28MOL   H36210676   6.748   7.406   0.690 -0.9716  1.1164 -1.9969
   28MOL   C36310677   6.799   7.351   0.481 -0.9205 -0.2822  0.1816
   28MOL   C36410678   6.950   7.403   0.505  0.1901  0.2351  0.2592
   28MOL   C36510679   6.985   7.491   0.625 -0.0425 -0.4053  0.7413
   28MOL   C36610680   7.120   7.556   0.604 -0.6309  0.0536  0.0640
   28MOL   C36710681   7.140   7.542   0.449  0.4218  0.4908  0.5036
   28MOL   C36810682   7.008   7.488   0.394  0.0065 -0.0609 -0.3411
   28MOL   C36910683   6.807   7.227   0.381  0.1265  0.0421  0.0244
   28MOL   H37010684   6.749   7.432   0.428 -1.5746  0.7915  2.3889
   28MOL   H37110685   7.012   7.314   0.496 -0.1854  0.0665 -0.7360
   28MOL   H37210686   6.918   7.576   0.641 -0.6210 -0.6129 -0.4956
   28MOL   H37310687   6.991   7.428   0.714  2.6264  0.3565  1.1492
   28MOL   H37410688   7.120   7.662   0.632  0.3562  0.5919 -1.8153
   28MOL   H37510689   7.195   7.502   0.662 -0.2356  0.1740 -0.3255
   28MOL   H37610690   7.164   7.638   0.403 -0.5410  1.1088  1.2814
   28MOL   H37710691   7.231   7.482   0.442  0.3387  0.2631  1.2977
   28MOL   H37810692   7.041   7.437   0.303  0.1819  0.3287 -0.4938
   28MOL   H37910693   6.951   7.576   0.364 -1.5470 -0.6004  0.9155
   28MOL   H38010694   6.705   7.193   0.361 -0.0025  0.7137 -0.4691
   28MOL   H38110695   6.866   7.141   0.415 -0.8405 -1.0984 -1.1522
   28MOL   H38210696   6.865   7.256   0.294 -2.3305 -0.1429 -1.7447
   29MOL     C110697   5.431   5.728   5.864 -0.2044 -0.0849  0.1133
   29MOL     C210698   5.553   5.788   5.936  0.5665 -0.3786 -0.2456
   29MOL     C310699   5.542   5.939   5.960  0.3950  0.2425 -0.4703
   29MOL     C410700   5.689   5.991   5.975 -0.6958 -0.5907 -0.0850
   29MOL     C510701   5.782   5.879   5.932 -0.3979 -0.4534  0.3082
   29MOL     C610702   5.692   5.788   5.856  0.3843  0.4006  0.5719
   29MOL     C710703   5.298   5.760   5.935  0.3509 -0.0541  0.6761
   29MOL     H810704   5.416   5.782   5.770  1.5768  0.4986  0.1527
   29MOL     H910705   5.572   5.740   6.032 -1.3665 -2.5796 -0.9078
   29MOL    H1010706   5.498   5.973   5.866 -0.0919  1.3278  0.1447
   29MOL    H1110707   5.483   5.963   6.047  1.5656 -2.0104  1.0152
   29MOL    H1210708   5.699   6.084   5.920 -1.4260 -0.1234  0.5593
   29MOL    H1310709   5.704   6.014   6.080 -2.9009  0.6470  0.0034
   29MOL    H1410710   5.851   5.915   5.856  0.2774 -2.1502  0.0798
   29MOL    H1510711   5.837   5.832   6.014  0.6770 -0.4486 -0.3960
   29MOL    H1610712   5.732   5.687   5.845  1.2072  0.7527  0.2455
   29MOL    H1710713   5.673   5.829   5.757 -2.5065  0.1528  0.9872
   29MOL    H1810714   5.288   5.869   5.944  0.0200 -0.0165 -0.1789
   29MOL    H1910715   5.217   5.738   5.866  1.8558 -0.8943 -0.8361
   29MOL    H2010716   5.453   5.623   5.843  1.4302  0.5511 -1.5285
   29MOL    C2110717   5.277   5.703   6.076 -0.4260  0.1280 -0.7172
   29MOL    C2210718   5.162   5.775   6.150  0.9373  0.4034  0.9731
   29MOL    C2310719   5.150   5.926   6.146 -0.4186  0.1547  0.5209
   29MOL    C2410720   5.054   5.960   6.264  0.5161 -0.1196 -0.2266
   29MOL    C2510721   5.098   5.872   6.378  0.1299  0.3753  0.2897
   29MOL    C2610722   5.174   5.757   6.308  0.1920 -0.5522  0.5565
   29MOL    C2710723   5.257   5.549   6.069  0.5077  0.5527 -0.2134
   29MOL    H2810724   5.367   5.734   6.131 -0.3560  0.3920 -0.9792
   29MOL    H2910725   5.068   5.736   6.113  0.0092  1.2390  2.4064
   29MOL    H3010726   5.118   5.968   6.050  1.2216  0.6911  0.1978
   29MOL    H3110727   5.246   5.975   6.159  0.0687 -0.7810  0.4530
   29MOL    H3210728   5.069   6.065   6.287  1.1855 -0.4321  0.7976
   29MOL    H3310729   4.949   5.938   6.246  0.1761  1.6626 -0.5074
   29MOL    H3410730   5.015   5.840   6.441  0.4302  0.5677  0.7776
   29MOL    H3510731   5.168   5.928   6.440  2.4916 -2.1754  0.0274
   29MOL    H3610732   5.131   5.662   6.341 -1.8733  0.6309  1.4120
   29MOL    H3710733   5.278   5.764   6.339 -0.4423 -0.0905  2.6859
   29MOL    H3810734   5.149   5.539   6.058  0.3049  3.2194 -0.9614
   29MOL    H3910735   5.313   5.509   5.984 -2.3131 -2.7854 -0.6245
   29MOL    C4010736   5.318   5.463   6.181 -0.9574  0.2961 -0.5662
   29MOL    C4110737   5.252   5.319   6.199  0.1039 -0.4356 -0.1313
   29MOL    C4210738   5.269   5.227   6.077 -0.2738 -0.2640 -0.0183
   29MOL    C4310739   5.176   5.120   6.104  0.0154  0.2351  0.1998
   29MOL    C4410740   5.068   5.163   6.207  0.4055 -1.2249 -0.3775
   29MOL    C4510741   5.099   5.306   6.241  0.0505 -0.1603 -0.7424
   29MOL    C4610742   5.481   5.452   6.165  1.0051 -0.3668  0.2245
   29MOL    H4710743   5.295   5.508   6.277 -0.8581  1.8402 -1.2488
   29MOL    H4810744   5.307   5.268   6.279 -0.1918  1.6090  1.4228
   29MOL    H4910745   5.372   5.191   6.076  0.3561  1.4862 -1.0409
   29MOL    H5010746   5.240   5.279   5.986 -0.7210 -2.9850 -1.4651
   29MOL    H5110747   5.222   5.040   6.163 -0.5790 -0.5117 -0.3273
   29MOL    H5210748   5.133   5.070   6.017 -2.0653  2.2287  0.0504
   29MOL    H5310749   4.965   5.154   6.172  0.3091  0.0329 -0.4542
   29MOL    H5410750   5.076   5.097   6.293  0.1379 -1.4988 -0.5598
   29MOL    H5510751   5.026   5.359   6.180 -1.6650 -0.4393  1.0108
   29MOL    H5610752   5.096   5.334   6.346  0.3663 -0.0285 -0.7663
   29MOL    H5710753   5.511   5.424   6.064  1.0365  1.5358 -0.3123
   29MOL    H5810754   5.511   5.556   6.172 -0.8618  0.2879 -1.1906
   29MOL    C5910755   5.559   5.370   6.267 -0.3942  0.2044 -0.0715
   29MOL    C6010756   5.711   5.363   6.232  0.6169 -0.4830 -0.7003
   29MOL    C6110757   5.793   5.492   6.248 -0.6213  0.2701  0.0544
   29MOL    C6210758   5.896   5.473   6.141 -0.0172  0.5915 -0.5767
   29MOL    C6310759   5.828   5.413   6.022 -0.4979 -0.0580 -0.1114
   29MOL    C6410760   5.748   5.308   6.087 -0.1000  0.3470  0.2770
   29MOL    C6510761   5.552   5.423   6.411  0.2097 -0.4079  0.1439
   29MOL    H6610762   5.513   5.272   6.260 -0.8223  0.5541 -2.5469
   29MOL    H6710763   5.758   5.294   6.302  2.9175  2.5819  0.8866
   29MOL    H6810764   5.831   5.505   6.350 -2.0008  1.3881  0.4257
   29MOL    H6910765   5.743   5.585   6.223  0.6457  0.5543 -1.5146
   29MOL    H7010766   5.974   5.408   6.182 -0.8829 -0.5262 -0.6628
   29MOL    H7110767   5.946   5.565   6.111  1.1680 -0.0611 -0.6417
   29MOL    H7210768   5.888   5.367   5.944  0.2587  0.3331  0.2360
   29MOL    H7310769   5.756   5.481   5.976  0.1997  1.6553  1.2464
   29MOL    H7410770   5.663   5.273   6.027  1.0835 -1.0200 -0.6581
   29MOL    H7510771   5.812   5.221   6.102  0.5539  0.5958 -1.0215
   29MOL    H7610772   5.446   5.439   6.432  0.2159 -1.9318  1.3527
   29MOL    H7710773   5.600   5.521   6.416  0.2345 -0.4188  0.1238
   29MOL    C7810774   5.602   5.343   6.529 -0.1146 -0.9127 -0.0451
   29MOL    C7910775   5.597   5.438   6.654  0.0809 -0.1831 -0.2229
   29MOL    C8010776   5.670   5.577   6.649 -0.2643  0.2119 -0.0713
   29MOL    C8110777   5.690   5.612   6.795  0.5012  0.4775  0.0721
   29MOL    C8210778   5.743   5.485   6.851 -0.1113 -0.2269  0.1854
   29MOL    C8310779   5.657   5.377   6.787 -0.5729 -0.1509  0.3082
   29MOL    C8410780   5.515   5.209   6.551 -0.5045 -0.3008 -0.6306
   29MOL    H8510781   5.709   5.329   6.511  0.4320  1.1958  1.3315
   29MOL    H8610782   5.491   5.443   6.677  0.4794 -0.1626  1.6819
   29MOL    H8710783   5.616   5.656   6.596  0.2830 -0.2862 -1.3781
   29MOL    H8810784   5.766   5.579   6.599  0.3957  2.1156  1.1886
   29MOL    H8910785   5.598   5.654   6.837 -0.4081 -2.2733  0.9320
   29MOL    H9010786   5.763   5.692   6.805 -0.7451  1.4723  1.6071
   29MOL    H9110787   5.845   5.466   6.817  0.1815  0.8327  0.4449
   29MOL    H9210788   5.742   5.495   6.960 -0.6394  1.7457  0.0196
   29MOL    H9310789   5.712   5.288   6.758  2.0345  1.3028  0.6370
   29MOL    H9410790   5.573   5.346   6.850  1.1080 -3.7493  0.8651
   29MOL    H9510791   5.425   5.219   6.491  0.2066 -0.4025 -1.7164
   29MOL    H9610792   5.479   5.207   6.654  1.3563  1.4004  0.1064
   29MOL    C9710793   5.584   5.073   6.507 -0.7940 -0.4416  0.2514
   29MOL    C9810794   5.479   4.964   6.482  0.4357  0.4504  0.4474
   29MOL    C9910795   5.388   4.939   6.600  0.3663  0.0269 -0.1688
   29MOL   C10010796   5.255   4.878   6.535  0.9805  0.4226 -0.6879
   29MOL   C10110797   5.273   4.865   6.388 -0.6281  0.4704 -0.6678
   29MOL   C10210798   5.385   4.966   6.359 -0.3127  0.6715  0.2148
   29MOL   C10310799   5.694   5.036   6.617 -0.3577  0.6030  0.7061
   29MOL   H10410800   5.625   5.100   6.410 -1.2098  0.5115  0.3419
   29MOL   H10510801   5.531   4.870   6.464  0.5827  0.2635  1.7969
   29MOL   H10610802   5.425   4.856   6.660 -0.2783 -1.2614 -1.4935
   29MOL   H10710803   5.354   5.025   6.657  0.3516  0.2592 -0.5247
   29MOL   H10810804   5.182   4.959   6.547  1.4688  0.8511 -0.6129
   29MOL   H10910805   5.212   4.796   6.593  1.6744  0.8113  0.3876
   29MOL   H11010806   5.183   4.883   6.329 -1.7349  0.6864  1.0700
   29MOL   H11110807   5.292   4.759   6.367 -2.0332 -0.1149  0.9300
   29MOL   H11210808   5.426   4.932   6.263 -0.5570 -1.0145  0.6937
   29MOL   H11310809   5.343   5.063   6.333 -0.9836  0.6754  1.3124
   29MOL   H11410810   5.766   5.118   6.615 -1.7405  1.8199 -0.6424
   29MOL   H11510811   5.660   5.033   6.720  0.0486  0.4189  0.8363
   29MOL   C11610812   5.787   4.908   6.599 -0.1666 -0.5535 -0.2501
   29MOL   C11710813   5.934   4.937   6.647  0.4530  0.4309  0.2547
   29MOL   C11810814   6.025   5.004   6.546 -0.1651  0.0529  0.5209
   29MOL   C11910815   6.136   5.070   6.630  0.2518 -0.6084  0.3006
   29MOL   C12010816   6.111   5.040   6.783  0.3128  0.1252  0.0331
   29MOL   C12110817   5.962   4.994   6.791  0.1224  0.0680  0.9397
   29MOL   C12210818   5.729   4.786   6.670 -0.8706 -0.3483  0.5042
   29MOL   H12310819   5.796   4.872   6.497 -1.6330 -1.3157 -0.1203
   29MOL   H12410820   5.979   4.840   6.666 -1.0122 -0.4307 -0.6612
   29MOL   H12510821   6.062   4.934   6.471  0.1918 -2.4448  2.9341
   29MOL   H12610822   5.967   5.075   6.488  0.6555  1.1809  1.0675
   29MOL   H12710823   6.124   5.175   6.605  0.4865 -0.8313 -0.7678
   29MOL   H12810824   6.232   5.029   6.599  0.5642  1.0575 -0.9900
   29MOL   H12910825   6.117   5.124   6.853 -1.3214 -0.1396  0.5109
   29MOL   H13010826   6.183   4.960   6.803  1.5201  0.7662 -1.6298
   29MOL   H13110827   5.950   4.911   6.861  1.3642 -0.3117  0.7147
   29MOL   H13210828   5.907   5.085   6.816  2.4176  1.3003  1.7484
   29MOL   H13310829   5.624   4.782   6.641 -0.2923 -0.2747 -1.7180
   29MOL   H13410830   5.738   4.812   6.775 -0.9117 -3.2999  1.2839
   29MOL   C13510831   5.799   4.650   6.641  0.6543 -0.0395 -0.4991
   29MOL   C13610832   5.732   4.588   6.511 -0.5150 -0.4755 -0.3829
   29MOL   C13710833   5.590   4.526   6.521 -0.3524  0.2136 -0.6789
   29MOL   C13810834   5.581   4.435   6.397 -0.3258 -0.1737 -0.5266
   29MOL   C13910835   5.732   4.392   6.382  0.0363 -0.1190 -0.0785
   29MOL   C14010836   5.827   4.487   6.452  0.1867  0.7573 -0.3317
   29MOL   C14110837   5.789   4.556   6.761 -0.4766  0.2380 -0.4708
   29MOL   H14210838   5.904   4.659   6.615  0.4868  3.3456 -0.3164
   29MOL   H14310839   5.716   4.662   6.433 -0.0498 -1.9151 -1.8592
   29MOL   H14410840   5.571   4.461   6.606 -0.7819  1.8739  0.5202
   29MOL   H14510841   5.510   4.600   6.521  1.5921  2.3882 -2.2320
   29MOL   H14610842   5.539   4.481   6.307 -0.8162  2.2398  0.8903
   29MOL   H14710843   5.521   4.345   6.412 -0.8617  0.2148 -0.3428
   29MOL   H14810844   5.750   4.375   6.276 -3.5858 -0.3457 -0.6969
   29MOL   H14910845   5.747   4.296   6.433  0.3081 -0.6361 -1.1219
   29MOL   H15010846   5.891   4.433   6.522  0.0641  1.2831  0.2015
   29MOL   H15110847   5.902   4.514   6.378 -0.2194  2.4395 -0.1595
   29MOL   H15210848   5.775   4.456   6.721 -1.5096  0.1756  0.0341
   29MOL   H15310849   5.693   4.576   6.809 -0.9985  0.4118 -1.5862
   29MOL   C15410850   5.917   4.559   6.854  0.4920 -0.1455  0.3080
   29MOL   C15510851   5.895   4.546   7.006 -0.1733  0.1804  0.4293
   29MOL   C15610852   5.841   4.405   7.056 -0.3685  0.4618 -0.1800
   29MOL   C15710853   5.776   4.430   7.193  0.3932 -0.0349  0.2566
   29MOL   C15810854   5.767   4.584   7.204  0.4088 -0.1574  0.4882
   29MOL   C15910855   5.796   4.643   7.065 -0.1508  0.4369 -0.2101
   29MOL   C16010856   6.030   4.464   6.806 -0.2178 -0.2659 -1.2936
   29MOL   H16110857   5.962   4.658   6.856 -0.7955  0.5704 -2.6211
   29MOL   H16210858   5.989   4.566   7.058  0.6252 -0.5376 -0.7152
   29MOL   H16310859   5.758   4.368   6.997 -1.3325  0.6736  1.0292
   29MOL   H16410860   5.927   4.338   7.047 -1.0434 -0.8137  2.4635
   29MOL   H16510861   5.671   4.402   7.194  0.2915  0.1471 -2.3252
   29MOL   H16610862   5.839   4.397   7.275  0.2842  1.2542  0.8652
   29MOL   H16710863   5.856   4.608   7.262  1.0032 -0.1767 -0.4138
   29MOL   H16810864   5.675   4.625   7.247 -0.2394 -0.3865 -0.6817
   29MOL   H16910865   5.826   4.747   7.064 -1.5750  0.8633 -0.6668
   29MOL   H17010866   5.706   4.643   7.003 -0.4572 -2.3944  0.1548
   29MOL   H17110867   6.017   4.426   6.705  2.3726 -1.9882 -1.0311
   29MOL   H17210868   6.025   4.370   6.862  1.4843  0.7409  0.6372
   29MOL   C17310869   6.176   4.523   6.831  0.3132 -0.3720 -0.4302
   29MOL   C17410870   6.209   4.627   6.724 -0.2687  0.6853  0.2176
   29MOL   C17510871   6.222   4.564   6.585  0.1847  0.7922  0.4195
   29MOL   C17610872   6.318   4.658   6.507  0.0774  0.1334 -0.2394
   29MOL   C17710873   6.391   4.745   6.613  0.0776  1.0451 -0.0604
   29MOL   C17810874   6.332   4.715   6.753  0.1557  0.0970  0.0495
   29MOL   C17910875   6.284   4.410   6.850 -0.3463  0.5670 -0.2438
   29MOL   H18010876   6.190   4.577   6.925 -2.1129  1.2732 -0.9848
   29MOL   H18110877   6.121   4.692   6.723  1.4108  3.0103 -1.5182
   29MOL   H18210878   6.126   4.561   6.533 -0.0168  3.4726  0.6026
   29MOL   H18310879   6.280   4.473   6.601  1.1898  1.2351 -0.6135
   29MOL   H18410880   6.387   4.600   6.447 -1.2509  0.7311 -2.3900
   29MOL   H18510881   6.285   4.733   6.435  1.9018 -2.0296 -3.4213
   29MOL   H18610882   6.380   4.852   6.596 -0.4982  0.6821 -2.1858
   29MOL   H18710883   6.499   4.732   6.620 -0.0119  0.0754 -0.3911
   29MOL   H18810884   6.411   4.662   6.807  0.4695  0.3535 -0.1550
   29MOL   H18910885   6.311   4.801   6.816  0.3908  1.2233 -1.4115
   29MOL   H19010886   6.266   4.338   6.770  1.4164 -0.1927  0.0289
   29MOL   H19110887   6.383   4.449   6.824 -1.0598  1.6519 -1.4263
   29MOL   C19210888   6.280   4.335   6.990 -0.0879  0.0949  0.1691
   29MOL   C19310889   6.299   4.421   7.114 -1.1608  0.2779  0.0134
   29MOL   C19410890   6.435   4.495   7.131  0.0469  0.1306  0.0332
   29MOL   C19510891   6.432   4.546   7.276 -0.3106  0.2602  0.3198
   29MOL   C19610892   6.330   4.465   7.343 -0.2870 -0.3756  0.3641
   29MOL   C19710893   6.284   4.360   7.252  0.1766 -0.4475  0.0311
   29MOL   C19810894   6.383   4.221   6.990  0.0333  0.1615 -0.4070
   29MOL   H19910895   6.180   4.294   6.997  0.0280 -0.5685 -1.7286
   29MOL   H20010896   6.224   4.500   7.110 -1.8647 -0.4401 -0.9522
   29MOL   H20110897   6.449   4.565   7.048 -2.0071 -0.3910 -0.7862
   29MOL   H20210898   6.522   4.430   7.128  0.2961  0.3903  1.3309
   29MOL   H20310899   6.533   4.541   7.318 -0.8932 -1.5213  1.5433
   29MOL   H20410900   6.394   4.648   7.280  0.1328  0.5597 -2.1324
   29MOL   H20510901   6.245   4.532   7.357 -0.7920 -0.4170 -2.3374
   29MOL   H20610902   6.361   4.415   7.436  0.4623  0.7714  0.7401
   29MOL   H20710903   6.182   4.333   7.279 -0.6069  3.1030  0.8994
   29MOL   H20810904   6.352   4.276   7.262  1.9768  0.6566 -2.4006
   29MOL   H20910905   6.481   4.267   6.982 -1.2208  3.0902  0.5472
   29MOL   H21010906   6.385   4.162   7.081 -2.5192  1.4540  0.5433
   29MOL   C21110907   6.361   4.102   6.885  0.5915  0.7970 -0.6579
   29MOL   C21210908   6.497   4.037   6.851 -0.5653 -0.8063 -0.8610
   29MOL   C21310909   6.496   3.911   6.766 -0.2528  0.7746  0.6616
   29MOL   C21410910   6.645   3.893   6.729  0.3950  0.2955 -0.1119
   29MOL   C21510911   6.684   4.042   6.699  0.1706 -0.5626 -0.3352
   29MOL   C21610912   6.601   4.130   6.792  0.9793 -0.2916  0.0339
   29MOL   C21710913   6.266   3.992   6.934 -0.8240  0.1418 -0.0079
   29MOL   H21810914   6.325   4.141   6.789 -0.7103 -0.6234 -0.7651
   29MOL   H21910915   6.547   4.015   6.945 -0.0991  0.1224 -0.8958
   29MOL   H22010916   6.458   3.822   6.816 -1.0939 -0.3641 -1.9252
   29MOL   H22110917   6.434   3.916   6.677  1.1148  0.5724 -0.3124
   29MOL   H22210918   6.705   3.862   6.814  1.4764  2.0987 -0.1817
   29MOL   H22310919   6.662   3.820   6.651  0.3604 -1.6561  1.6665
   29MOL   H22410920   6.663   4.056   6.593  0.9859 -1.6997 -0.6610
   29MOL   H22510921   6.791   4.057   6.715  0.3880 -1.5161 -0.8374
   29MOL   H22610922   6.672   4.164   6.867 -1.0628  0.6901  1.5890
   29MOL   H22710923   6.554   4.218   6.747  0.2307 -0.5897  0.2346
   29MOL   H22810924   6.318   3.935   7.010 -0.8344  1.0145  0.6659
   29MOL   H22910925   6.264   3.927   6.846  1.7193 -0.9516  0.7060
   29MOL   C23010926   6.121   4.032   6.975 -0.3793  0.0042 -0.0544
   29MOL   C23110927   6.120   4.046   7.128 -0.6370 -0.1459 -0.7869
   29MOL   C23210928   5.984   4.095   7.183 -0.7037 -0.1531 -0.4329
   29MOL   C23310929   5.942   4.010   7.306 -0.1542 -0.0672 -0.4287
   29MOL   C23410930   6.073   3.945   7.345 -0.0256  0.7172  0.6309
   29MOL   C23510931   6.147   3.922   7.212  0.1323  0.1106  0.7742
   29MOL   C23610932   6.015   3.930   6.929 -0.0166 -0.4262 -0.0715
   29MOL   H23710933   6.087   4.126   6.930 -1.4925 -0.0706  0.6068
   29MOL   H23810934   6.188   4.126   7.157 -0.8234  0.0974 -1.0185
   29MOL   H23910935   5.988   4.194   7.229  1.2139  0.0941 -1.1079
   29MOL   H24010936   5.911   4.110   7.103 -0.5398  0.5253 -0.4610
   29MOL   H24110937   5.906   4.078   7.382  0.2497  1.1481 -1.3094
   29MOL   H24210938   5.868   3.931   7.296  1.0464 -1.2609 -0.0799
   29MOL   H24310939   6.066   3.850   7.399 -2.1018  0.6363  0.2539
   29MOL   H24410940   6.127   4.019   7.404 -0.6480 -1.2782  3.8325
   29MOL   H24510941   6.116   3.839   7.149  2.2305 -0.2501  0.1609
   29MOL   H24610942   6.248   3.898   7.247  2.2099  2.0880 -3.3695
   29MOL   H24710943   5.926   3.939   6.991 -0.5795 -1.4231 -0.7106
   29MOL   H24810944   6.064   3.833   6.941  2.0764  0.9151  2.7489
   29MOL   C24910945   5.963   3.923   6.782  0.1803 -0.0305 -0.9064
   29MOL   C25010946   5.865   4.043   6.756 -0.7998 -0.0376 -0.0370
   29MOL   C25110947   5.738   4.036   6.839 -0.2399 -0.4988 -0.2542
   29MOL   C25210948   5.625   4.103   6.764  0.6655  0.9406  0.5288
   29MOL   C25310949   5.654   4.054   6.621 -0.0627 -1.3646  0.6792
   29MOL   C25410950   5.806   4.060   6.615 -0.0990 -0.0252 -0.4466
   29MOL   C25510951   5.908   3.783   6.733  0.0279  0.3145 -0.3479
   29MOL   H25610952   6.055   3.947   6.730  0.9094  1.9904  1.2415
   29MOL   H25710953   5.912   4.137   6.786 -1.0151  0.3829 -0.9956
   29MOL   H25810954   5.737   4.101   6.927 -1.9638 -3.2173  1.8140
   29MOL   H25910955   5.716   3.933   6.865  0.2227 -0.5576 -0.0955
   29MOL   H26010956   5.630   4.212   6.768 -0.4785  1.0542 -0.8510
   29MOL   H26110957   5.528   4.070   6.801  1.6227 -0.2503  2.0163
   29MOL   H26210958   5.603   4.102   6.537 -0.0818 -1.9358  0.3593
   29MOL   H26310959   5.619   3.951   6.613  0.9412 -1.6912  0.4352
   29MOL   H26410960   5.839   4.158   6.580 -0.3535  0.4858  0.7008
   29MOL   H26510961   5.840   3.992   6.538 -0.5088  1.2185 -1.7374
   29MOL   H26610962   5.886   3.732   6.827 -1.3459  2.6338  0.6411
   29MOL   H26710963   5.811   3.804   6.687  0.4176  3.0058 -0.0429
   29MOL   C26810964   6.007   3.689   6.652  0.6748 -0.3143 -0.4025
   29MOL   C26910965   6.129   3.635   6.730 -0.0495 -0.1234  0.2912
   29MOL   C27010966   6.202   3.527   6.648  0.4522  0.7202 -0.0956
   29MOL   C27110967   6.293   3.454   6.744  0.0619 -0.1107  0.6593
   29MOL   C27210968   6.221   3.471   6.881  0.0906  0.0450  0.3797
   29MOL   C27310969   6.095   3.556   6.855 -1.0099 -0.1639 -0.0722
   29MOL   C27410970   6.050   3.759   6.508  0.1629 -0.0421 -0.2706
   29MOL   H27510971   5.940   3.606   6.629  0.5451 -0.2454 -0.2724
   29MOL   H27610972   6.199   3.714   6.757  0.2106  0.0231 -0.7576
   29MOL   H27710973   6.129   3.454   6.611  1.9238 -0.6772 -0.3139
   29MOL   H27810974   6.254   3.567   6.561 -0.5754  0.2308 -0.9549
   29MOL   H27910975   6.316   3.349   6.725  2.7191  0.4695  0.4577
   29MOL   H28010976   6.390   3.504   6.742 -0.1111  0.1973 -0.3741
   29MOL   H28110977   6.285   3.519   6.955  1.6010 -1.5288  0.1341
   29MOL   H28210978   6.193   3.368   6.907 -1.0844  0.1718 -0.3552
   29MOL   H28310979   6.065   3.611   6.944  1.2078  1.9489 -0.5740
   29MOL   H28410980   6.006   3.499   6.831 -0.4707 -1.0259 -0.0450
   29MOL   H28510981   6.150   3.802   6.518  0.1627  0.2568 -1.5748
   29MOL   H28610982   5.979   3.838   6.484 -1.2053 -1.3282 -0.5319
   29MOL   C28710983   6.040   3.675   6.378 -0.6886 -0.7063 -1.0592
   29MOL   C28810984   5.901   3.683   6.306 -0.7072 -0.1310 -0.2958
   29MOL   C28910985   5.770   3.669   6.390 -0.3285 -1.0513  0.6705
   29MOL   C29010986   5.657   3.728   6.305 -0.5279 -0.0239 -0.5237
   29MOL   C29110987   5.724   3.821   6.202  0.8742  0.1407  0.0879
   29MOL   C29210988   5.878   3.806   6.218 -0.3049 -0.2283 -0.1709
   29MOL   C29310989   6.168   3.701   6.285  0.3970 -0.0820 -0.0579
   29MOL   H29410990   6.040   3.569   6.404 -1.8828 -0.0588  1.7163
   29MOL   H29510991   5.902   3.597   6.240 -0.0187  0.3342 -0.8974
   29MOL   H29610992   5.748   3.564   6.406 -1.1949 -0.7607  1.4296
   29MOL   H29710993   5.771   3.719   6.488  1.5313 -3.2274  1.7981
   29MOL   H29810994   5.597   3.646   6.264 -1.8491  0.9286 -0.5300
   29MOL   H29910995   5.596   3.797   6.364  2.3184  0.9904  1.3360
   29MOL   H30010996   5.683   3.922   6.200 -1.5712 -0.8169 -0.4119
   29MOL   H30110997   5.692   3.771   6.110 -0.5434  0.3843  0.4287
   29MOL   H30210998   5.917   3.892   6.272  0.2930 -0.1061 -0.7828
   29MOL   H30310999   5.938   3.800   6.127  0.2789 -1.7349  0.3015
   29MOL   H30411000   6.261   3.673   6.335  0.7795  2.6143  0.8070
   29MOL   H30511001   6.179   3.806   6.258 -1.0489 -0.3823 -1.9419
   29MOL   C30611002   6.180   3.610   6.154 -0.3906 -0.7768  0.3999
   29MOL   C30711003   6.285   3.672   6.057 -0.2690  0.9137  0.0604
   29MOL   C30811004   6.245   3.802   5.986  0.2232  0.6447  0.1946
   29MOL   C30911005   6.375   3.877   5.963  0.0317  0.0376 -0.3552
   29MOL   C31011006   6.487   3.794   6.026  0.7834 -0.6542 -0.8516
   29MOL   C31111007   6.425   3.693   6.125 -0.3211 -0.1592 -0.0535
   29MOL   C31211008   6.211   3.465   6.186  0.5996  0.0393  0.9381
   29MOL   H31311009   6.088   3.601   6.095 -0.3654 -0.7696  0.3605
   29MOL   H31411010   6.308   3.598   5.980 -0.4644 -0.5037  1.3450
   29MOL   H31511011   6.165   3.859   6.034 -0.4258 -1.7681  2.0917
   29MOL   H31611012   6.199   3.769   5.893  0.5763 -1.8666  0.8613
   29MOL   H31711013   6.394   3.889   5.856  2.3898  0.0556  0.0452
   29MOL   H31811014   6.369   3.973   6.016  0.9355  0.7267 -1.4717
   29MOL   H31911015   6.553   3.861   6.081  0.3432 -0.4907 -0.5284
   29MOL   H32011016   6.542   3.752   5.941  0.9150 -0.7252 -0.7313
   29MOL   H32111017   6.489   3.606   6.137 -0.7537 -0.3477  0.9462
   29MOL   H32211018   6.414   3.743   6.222  2.6193 -0.4434  0.4536
   29MOL   H32311019   6.173   3.437   6.284 -1.9491 -1.3413 -0.3752
   29MOL   H32411020   6.319   3.456   6.190  0.7179  1.1393  0.4551
   29MOL   C32511021   6.166   3.358   6.090  0.0811  0.1997  0.6215
   29MOL   C32611022   6.020   3.314   6.119  0.7072  0.1557 -0.1288
   29MOL   C32711023   5.993   3.252   6.260 -0.3455  0.8683 -0.1465
   29MOL   C32811024   5.954   3.100   6.233  0.5715  0.2157  0.8194
   29MOL   C32911025   5.891   3.102   6.102 -0.0654  0.2435  0.2147
   29MOL   C33011026   5.953   3.220   6.021 -0.4142  0.2746  0.5752
   29MOL   C33111027   6.262   3.237   6.105 -0.4816 -0.0134 -0.5051
   29MOL   H33211028   6.179   3.391   5.987  0.7658  0.4422  0.7822
   29MOL   H33311029   5.953   3.400   6.115 -2.5296 -2.2233  0.2976
   29MOL   H33411030   5.910   3.304   6.306 -1.3677  0.0944 -1.0835
   29MOL   H33511031   6.067   3.248   6.340  0.6425 -0.6168 -1.0929
   29MOL   H33611032   5.897   3.057   6.316  1.5451 -4.1039 -0.6040
   29MOL   H33711033   6.037   3.030   6.228 -1.1660 -1.9911  1.5878
   29MOL   H33811034   5.788   3.119   6.131 -0.3852  0.5240 -1.0429
   29MOL   H33911035   5.897   3.005   6.053 -1.1483  1.2637 -2.0056
   29MOL   H34011036   5.877   3.267   5.958  1.4752  3.2344  0.3910
   29MOL   H34111037   6.030   3.182   5.954 -1.6907 -0.8204 -0.2908
   29MOL   H34211038   6.216   3.145   6.068  1.2908 -0.6469 -1.2071
   29MOL   H34311039   6.262   3.209   6.210 -2.9312  0.0096 -0.4788
   29MOL   C34411040   6.403   3.233   6.044  0.1802  0.0307  0.0842
   29MOL   C34511041   6.395   3.237   5.891  0.1671 -0.3507  0.0180
   29MOL   C34611042   6.324   3.127   5.815  0.5051 -0.1371  0.7638
   29MOL   C34711043   6.379   3.111   5.674  1.3980 -0.1677 -0.4108
   29MOL   C34811044   6.475   3.223   5.661 -0.1974 -0.5456  0.4083
   29MOL   C34911045   6.524   3.255   5.807 -0.0771  0.9025  0.2703
   29MOL   C35011046   6.480   3.113   6.095 -0.1654  0.8798 -0.2311
   29MOL   H35111047   6.451   3.326   6.075 -3.1101  1.0980  2.2712
   29MOL   H35211048   6.338   3.329   5.873  1.8868  0.8940  0.8349
   29MOL   H35311049   6.218   3.147   5.805  0.8474  1.4044 -0.0893
   29MOL   H35411050   6.338   3.030   5.862  0.1406  0.9693  3.2385
   29MOL   H35511051   6.423   3.013   5.656  1.1941 -0.6378  1.6068
   29MOL   H35611052   6.300   3.120   5.599  0.3455 -1.1555  0.5645
   29MOL   H35711053   6.423   3.307   5.614  2.0629 -0.0480 -1.3034
   29MOL   H35811054   6.551   3.196   5.588  0.0922  1.2081  0.0154
   29MOL   H35911055   6.602   3.182   5.829  0.5286  1.2398 -0.6926
   29MOL   H36011056   6.559   3.358   5.815  0.7630  0.6121  0.4427
   29MOL   H36111057   6.491   3.039   6.016 -1.3985 -0.6338  0.9820
   29MOL   H36211058   6.420   3.058   6.167  1.0177 -0.4316 -0.2234
   29MOL   C36311059   6.628   3.144   6.161  0.4410  0.0241  0.3308
   29MOL   C36411060   6.615   3.165   6.312  0.5794 -0.1746 -0.0555
   29MOL   C36511061   6.521   3.281   6.354  0.4128  0.1138  0.0082
   29MOL   C36611062   6.563   3.309   6.504  0.4818  0.8253 -0.3447
   29MOL   C36711063   6.712   3.267   6.505  0.6147 -0.3305  0.2584
   29MOL   C36811064   6.747   3.204   6.373  0.2635 -0.3205  0.2800
   29MOL   C36911065   6.725   3.029   6.128  0.0690  0.2892  0.3532
   29MOL   H37011066   6.664   3.238   6.120 -0.4457 -0.4522 -1.6036
   29MOL   H37111067   6.570   3.079   6.361  0.8613 -1.2854 -1.7076
   29MOL   H37211068   6.542   3.371   6.297  3.1326  0.9673  2.2808
   29MOL   H37311069   6.417   3.250   6.340  0.4085  0.8381 -1.7216
   29MOL   H37411070   6.548   3.411   6.539  2.3693  2.5878 -4.3296
   29MOL   H37511071   6.494   3.244   6.559  0.8534  0.8487  0.1484
   29MOL   H37611072   6.773   3.354   6.528 -0.9732  0.5324  1.2755
   29MOL   H37711073   6.736   3.194   6.583 -0.3277 -2.3294 -1.2783
   29MOL   H37811074   6.808   3.116   6.395  0.3826  0.2301  2.2482
   29MOL   H37911075   6.789   3.275   6.303 -2.1933 -1.4108 -2.4055
   29MOL   H38011076   6.671   2.954   6.070  1.0209  1.4301 -2.0453
   29MOL   H38111077   6.755   2.967   6.213  0.6505 -0.3354 -0.3009
   29MOL   H38211078   6.808   3.071   6.073 -0.5154 -1.2550 -1.7999
   30MOL     C111079   6.370   1.322   5.237 -0.1763  0.7290 -0.2782
   30MOL     C211080   6.274   1.228   5.162  0.1028  0.7026 -0.1483
   30MOL     C311081   6.279   1.086   5.218 -0.1651  0.9289  0.1701
   30MOL     C411082   6.334   0.987   5.118  0.2142 -0.3353  0.2153
   30MOL     C511083   6.295   1.054   4.985 -0.2957 -0.2481 -0.3340
   30MOL     C611084   6.322   1.209   5.020  0.3197 -0.2029 -0.0953
   30MOL     C711085   6.367   1.469   5.189  0.3673  0.6176  0.3670
   30MOL     H811086   6.325   1.331   5.336  0.6613  1.9887  0.0016
   30MOL     H911087   6.175   1.272   5.168  0.7026  1.9075  1.3098
   30MOL    H1011088   6.318   1.075   5.319 -0.5827 -2.5966  0.0145
   30MOL    H1111089   6.171   1.071   5.223 -0.0527 -0.2871 -0.6120
   30MOL    H1211090   6.441   1.004   5.135  0.0362  0.8811  0.1488
   30MOL    H1311091   6.296   0.886   5.131  3.0826 -1.4167  0.6643
   30MOL    H1411092   6.350   1.020   4.897  0.1106  1.6774 -0.8542
   30MOL    H1511093   6.191   1.034   4.961 -0.2755  0.4411 -1.0299
   30MOL    H1611094   6.258   1.270   4.957 -1.7175  0.0793  2.1984
   30MOL    H1711095   6.425   1.242   5.004 -0.6177  3.3601  0.8942
   30MOL    H1811096   6.415   1.477   5.092 -0.4086  1.6817  0.0657
   30MOL    H1911097   6.264   1.499   5.171  0.2834 -0.5219 -1.1938
   30MOL    H2011098   6.472   1.289   5.254 -0.3687  0.8573  1.2604
   30MOL    C2111099   6.441   1.568   5.281  0.1909  0.0727  1.1360
   30MOL    C2211100   6.592   1.537   5.307 -0.0702 -0.1344  0.7551
   30MOL    C2311101   6.678   1.636   5.392 -0.7217  0.3988 -0.0292
   30MOL    C2411102   6.826   1.608   5.354 -0.0524  0.1425 -0.0106
   30MOL    C2511103   6.825   1.503   5.236 -0.1366 -0.1079 -0.8837
   30MOL    C2611104   6.683   1.498   5.186 -0.2078  0.2131 -0.3493
   30MOL    C2711105   6.417   1.719   5.233 -0.6531  0.2256 -0.1652
   30MOL    H2811106   6.396   1.558   5.380 -0.9005 -1.3962  0.5208
   30MOL    H2911107   6.592   1.444   5.365  2.0549 -0.8269 -0.3250
   30MOL    H3011108   6.652   1.626   5.497 -1.7329  1.0092 -0.2186
   30MOL    H3111109   6.641   1.733   5.359 -0.4210  1.2007  1.9309
   30MOL    H3211110   6.887   1.697   5.335  2.4630 -0.5286  4.2452
   30MOL    H3311111   6.877   1.557   5.436  1.9184  2.6567  0.3767
   30MOL    H3411112   6.852   1.407   5.279 -0.0126  1.3610  2.4726
   30MOL    H3511113   6.899   1.530   5.161  0.9383  0.0260  0.2022
   30MOL    H3611114   6.666   1.398   5.146  2.4363 -0.5893  0.4534
   30MOL    H3711115   6.678   1.565   5.100 -0.7788  0.0220 -0.4710
   30MOL    H3811116   6.504   1.735   5.168  0.0286  0.5752  0.8265
   30MOL    H3911117   6.331   1.727   5.166 -1.3782 -2.1596  0.4209
   30MOL    C4011118   6.389   1.824   5.344 -0.1436  0.0767 -0.1506
   30MOL    C4111119   6.403   1.975   5.292 -0.0305 -0.3467 -1.7336
   30MOL    C4211120   6.373   2.002   5.141 -0.0769  0.7517  0.2501
   30MOL    C4311121   6.445   2.135   5.110 -0.3820 -0.9890  0.2716
   30MOL    C4411122   6.557   2.150   5.218 -0.1259 -0.3981 -0.3848
   30MOL    C4511123   6.551   2.027   5.305  0.5814  0.2598 -0.1709
   30MOL    C4611124   6.235   1.802   5.389  0.1183  0.1404  0.5554
   30MOL    H4711125   6.444   1.808   5.437  1.7132  0.8251 -1.1030
   30MOL    H4811126   6.350   2.040   5.363  1.3851 -3.0664  1.9970
   30MOL    H4911127   6.266   2.011   5.121 -0.0007 -0.3375 -0.6529
   30MOL    H5011128   6.417   1.927   5.076 -2.1397  0.9069 -1.3511
   30MOL    H5111129   6.381   2.223   5.119  0.0698 -0.7768  1.5964
   30MOL    H5211130   6.495   2.141   5.013 -0.5677  1.7720  0.2920
   30MOL    H5311131   6.658   2.171   5.183  0.5515 -2.0684  0.5568
   30MOL    H5411132   6.540   2.237   5.281  1.7717  0.4639 -1.0474
   30MOL    H5511133   6.618   1.948   5.272  0.7575  0.9545 -1.4952
   30MOL    H5611134   6.575   2.040   5.410  2.4568 -0.5052 -0.4923
   30MOL    H5711135   6.174   1.847   5.310  0.4673 -0.1630  0.1041
   30MOL    H5811136   6.219   1.694   5.385 -0.0537  0.1942 -0.4873
   30MOL    C5911137   6.196   1.855   5.526  0.3406  0.1472  0.3052
   30MOL    C6011138   6.050   1.893   5.533 -0.4420  0.3830  0.1902
   30MOL    C6111139   5.945   1.780   5.500  0.2892  0.7432 -1.0816
   30MOL    C6211140   5.837   1.855   5.423 -0.2848  0.4381 -0.7865
   30MOL    C6311141   5.913   1.960   5.339 -0.1309 -0.0683 -0.0831
   30MOL    C6411142   6.014   2.017   5.446  0.1224 -0.7517 -0.1987
   30MOL    C6511143   6.249   1.757   5.633 -0.1892 -0.4321  0.1118
   30MOL    H6611144   6.253   1.948   5.533 -1.1017  1.1015 -0.2629
   30MOL    H6711145   6.036   1.930   5.635  0.2006  1.4920 -0.1100
   30MOL    H6811146   5.905   1.736   5.592  1.3997  2.3844  0.2132
   30MOL    H6911147   5.988   1.695   5.447  1.1739  1.9540 -2.3216
   30MOL    H7011148   5.770   1.892   5.500 -0.8964 -1.8598 -0.1805
   30MOL    H7111149   5.772   1.788   5.367  3.1750 -3.7074 -0.1372
   30MOL    H7211150   5.842   2.031   5.298  0.5098 -0.3489 -1.7142
   30MOL    H7311151   5.972   1.916   5.258  1.6961 -0.2552  1.3136
   30MOL    H7411152   6.105   2.059   5.403 -0.6322  1.1849  0.0311
   30MOL    H7511153   5.965   2.090   5.510 -0.6342 -0.8601 -0.6487
   30MOL    H7611154   6.349   1.720   5.613  0.9540  2.4520  0.2455
   30MOL    H7711155   6.180   1.672   5.626  0.9934 -1.3232 -0.9641
   30MOL    C7811156   6.254   1.821   5.784  0.6648  0.2654  0.2096
   30MOL    C7911157   6.280   1.703   5.883  0.0578 -0.3340  0.0775
   30MOL    C8011158   6.258   1.724   6.035  0.1183  0.8251  0.1804
   30MOL    C8111159   6.306   1.594   6.099 -0.3451 -0.5794 -0.1324
   30MOL    C8211160   6.435   1.577   6.022 -0.2984  1.0240 -0.3030
   30MOL    C8311161   6.421   1.649   5.882  0.2102  0.7037  0.1836
   30MOL    C8411162   6.339   1.949   5.790  0.2036  0.0351 -0.1287
   30MOL    H8511163   6.149   1.845   5.804 -0.2343 -2.4736 -0.9541
   30MOL    H8611164   6.210   1.627   5.848  0.5291 -0.4565 -0.6011
   30MOL    H8711165   6.153   1.747   6.053  0.6012  2.4016  1.1815
   30MOL    H8811166   6.315   1.805   6.082 -0.1141  1.9212 -1.3832
   30MOL    H8911167   6.239   1.510   6.081  0.0548 -0.7979 -0.6029
   30MOL    H9011168   6.324   1.611   6.205  0.2391 -2.4544  0.0835
   30MOL    H9111169   6.513   1.622   6.084  1.0309 -0.0595 -1.1469
   30MOL    H9211170   6.458   1.470   6.022  0.4963  1.1511  2.5689
   30MOL    H9311171   6.494   1.729   5.880  1.4488 -0.3982  0.5266
   30MOL    H9411172   6.433   1.591   5.790  0.8818  1.9205 -0.4987
   30MOL    H9511173   6.424   1.954   5.722 -0.2348  3.0517 -0.5213
   30MOL    H9611174   6.389   1.951   5.887  0.5842 -2.1740 -0.2617
   30MOL    C9711175   6.266   2.088   5.785 -0.2077  0.1652  0.4968
   30MOL    C9811176   6.355   2.205   5.749 -0.2013  0.6409 -0.6857
   30MOL    C9911177   6.469   2.249   5.845  0.0307  0.0948 -0.5582
   30MOL   C10011178   6.560   2.332   5.758 -0.3525  0.0075 -0.0261
   30MOL   C10111179   6.517   2.308   5.610  1.0946  0.7982  0.3312
   30MOL   C10211180   6.415   2.189   5.609  0.5055  0.3598  0.1264
   30MOL   C10311181   6.178   2.111   5.907  0.8885 -0.2491 -0.3643
   30MOL   H10411182   6.189   2.084   5.709  0.5616 -0.3111 -0.2664
   30MOL   H10511183   6.293   2.295   5.756  1.1514  1.3895  3.4568
   30MOL   H10611184   6.431   2.304   5.931  0.2435  0.0436 -0.4304
   30MOL   H10711185   6.526   2.162   5.877  1.9999  1.9841  1.2307
   30MOL   H10811186   6.662   2.298   5.778  0.2164 -0.7117 -3.8496
   30MOL   H10911187   6.554   2.439   5.779  0.7259 -0.1729  1.2775
   30MOL   H11011188   6.597   2.284   5.540 -0.9401 -2.6857 -0.9556
   30MOL   H11111189   6.451   2.389   5.579  1.6902  0.5884 -1.5209
   30MOL   H11211190   6.338   2.204   5.534  0.7209 -0.6640 -0.3059
   30MOL   H11311191   6.465   2.093   5.594 -0.4971 -0.1464 -0.0112
   30MOL   H11411192   6.112   2.025   5.919 -0.3818  0.6055 -1.0491
   30MOL   H11511193   6.246   2.117   5.992 -1.2434  2.9592  1.2485
   30MOL   C11611194   6.082   2.243   5.909  0.7732  0.0204  0.8288
   30MOL   C11711195   5.977   2.250   5.785 -0.3088 -0.2782 -0.2341
   30MOL   C11811196   5.866   2.150   5.784  0.2998  0.4281  0.6219
   30MOL   C11911197   5.759   2.196   5.689 -0.2481 -0.3331  0.0166
   30MOL   C12011198   5.778   2.349   5.677 -0.2110 -0.4406 -0.3736
   30MOL   C12111199   5.898   2.391   5.761 -0.5886 -0.0475  0.2844
   30MOL   C12211200   6.014   2.267   6.039 -0.4169 -0.2479  0.1960
   30MOL   H12311201   6.140   2.333   5.890 -2.3354  1.1328 -4.3811
   30MOL   H12411202   6.042   2.238   5.698 -0.1780  2.4344 -0.5447
   30MOL   H12511203   5.887   2.044   5.767 -0.1830  0.4508 -0.1415
   30MOL   H12611204   5.811   2.151   5.879  0.6812 -0.0412  0.8497
   30MOL   H12711205   5.660   2.156   5.710  0.2579 -1.4066  0.4281
   30MOL   H12811206   5.775   2.163   5.586  0.1613  0.4276 -0.1683
   30MOL   H12911207   5.691   2.410   5.701 -0.7367 -0.6798 -1.6595
   30MOL   H13011208   5.803   2.380   5.576  0.4777  0.0018 -0.0734
   30MOL   H13111209   5.959   2.473   5.723 -0.3120 -1.4811 -2.4816
   30MOL   H13211210   5.860   2.434   5.854 -4.4779 -0.3872 -1.0744
   30MOL   H13311211   5.962   2.175   6.063 -0.3000 -0.1297  0.9060
   30MOL   H13411212   5.929   2.336   6.035 -0.5255 -0.3296  1.0052
   30MOL   C13511213   6.097   2.316   6.167 -0.8698 -0.0552 -0.4523
   30MOL   C13611214   6.146   2.194   6.262 -0.5545  0.1815  0.3086
   30MOL   C13711215   6.044   2.123   6.353 -0.3181  0.5191 -0.1562
   30MOL   C13811216   6.129   2.042   6.454  0.1480 -0.0538  0.0853
   30MOL   C13911217   6.262   2.111   6.465 -0.3369 -0.2438  0.3637
   30MOL   C14011218   6.259   2.221   6.358 -0.2651 -0.0540  0.1693
   30MOL   C14111219   6.020   2.423   6.247  0.0280 -0.6330 -0.4449
   30MOL   H14211220   6.192   2.356   6.133 -0.6467 -0.0060  0.2239
   30MOL   H14311221   6.179   2.122   6.187 -1.6780 -0.6681  0.6316
   30MOL   H14411222   5.985   2.201   6.402 -0.1990  0.1789  0.5399
   30MOL   H14511223   5.974   2.062   6.296 -0.4342 -0.2587  0.8016
   30MOL   H14611224   6.133   1.942   6.411  0.4575  1.1889 -2.9594
   30MOL   H14711225   6.082   2.035   6.552  0.6138 -0.1385  0.2979
   30MOL   H14811226   6.340   2.035   6.466 -1.1749 -1.1679 -1.9147
   30MOL   H14911227   6.266   2.152   6.566 -1.3082 -0.7659  0.6171
   30MOL   H15011228   6.238   2.317   6.404  0.7214  0.3362 -0.1787
   30MOL   H15111229   6.350   2.237   6.301  0.6936 -0.1305  1.6712
   30MOL   H15211230   6.044   2.418   6.354  0.6822  1.1692 -0.4871
   30MOL   H15311231   5.914   2.397   6.255  0.4913 -2.3458  0.3301
   30MOL   C15411232   6.052   2.565   6.198 -0.2387  0.7834 -0.2745
   30MOL   C15511233   5.933   2.662   6.210  0.9174 -0.1716 -0.6648
   30MOL   C15611234   5.858   2.667   6.344  0.2452  0.3679 -0.4627
   30MOL   C15711235   5.723   2.732   6.306 -0.1040 -0.4156 -0.1050
   30MOL   C15811236   5.694   2.700   6.156 -0.9212  0.3779  0.4661
   30MOL   C15911237   5.826   2.644   6.103 -0.1129 -0.1249  0.8131
   30MOL   C16011238   6.175   2.621   6.282 -0.4454  0.1751  0.1770
   30MOL   H16111239   6.079   2.548   6.094 -1.4176 -1.3760 -0.2569
   30MOL   H16211240   5.972   2.764   6.200 -0.9043  0.4678 -1.4139
   30MOL   H16311241   5.822   2.573   6.387  0.9483  0.9308  1.3976
   30MOL   H16411242   5.914   2.724   6.418  1.4844  0.1789 -1.2356
   30MOL   H16511243   5.644   2.710   6.378  0.3142 -2.0707 -0.1302
   30MOL   H16611244   5.737   2.839   6.322 -0.9949 -0.1292 -1.1384
   30MOL   H16711245   5.678   2.794   6.103 -0.1296  0.6331  0.6753
   30MOL   H16811246   5.610   2.631   6.143 -1.1571  0.6573  0.5056
   30MOL   H16911247   5.851   2.704   6.015  0.5010  0.1668  1.1869
   30MOL   H17011248   5.822   2.538   6.077  0.4010 -0.1544  0.8502
   30MOL   H17111249   6.251   2.543   6.286 -0.2169  0.3869 -0.0269
   30MOL   H17211250   6.148   2.633   6.387 -1.1316 -0.4443  0.0730
   30MOL   C17311251   6.252   2.743   6.223  0.6083  0.1195  0.0818
   30MOL   C17411252   6.299   2.741   6.080 -0.1117 -0.0154  0.4577
   30MOL   C17511253   6.192   2.775   5.971 -0.2867 -0.7037  0.1697
   30MOL   C17611254   6.227   2.706   5.834  0.0146 -0.1108  0.2044
   30MOL   C17711255   6.350   2.614   5.861  0.5007 -0.9962 -0.5749
   30MOL   C17811256   6.356   2.606   6.018 -0.0937 -0.9391 -0.0753
   30MOL   C17911257   6.371   2.779   6.317 -0.2412 -1.0816 -0.5852
   30MOL   H18011258   6.189   2.831   6.212  1.6360  0.9642  0.9178
   30MOL   H18111259   6.373   2.820   6.064 -0.7495  1.2862  3.6862
   30MOL   H18211260   6.186   2.884   5.969  1.1541 -0.6210 -0.0397
   30MOL   H18311261   6.098   2.737   6.011 -0.9342  0.5373 -0.1355
   30MOL   H18411262   6.137   2.652   5.804 -0.0437  0.0134  0.1577
   30MOL   H18511263   6.251   2.772   5.751  0.0170  0.1664  0.4250
   30MOL   H18611264   6.437   2.666   5.821 -1.0041  1.6452 -0.5091
   30MOL   H18711265   6.333   2.517   5.814 -1.5940 -0.9059 -0.0804
   30MOL   H18811266   6.288   2.529   6.053 -0.5746 -0.3993  0.1860
   30MOL   H18911267   6.458   2.575   6.042 -0.3957 -2.5792 -0.8603
   30MOL   H19011268   6.453   2.712   6.294  0.7941 -1.0370  2.7471
   30MOL   H19111269   6.413   2.876   6.292  0.0671 -0.3775  2.4813
   30MOL   C19211270   6.342   2.788   6.473 -0.1891  0.8002  0.3296
   30MOL   C19311271   6.222   2.880   6.503  0.1951 -0.0805  0.1562
   30MOL   C19411272   6.232   3.029   6.471  0.0162 -0.3920  0.7168
   30MOL   C19511273   6.175   3.102   6.589  0.2028  0.5794  0.4721
   30MOL   C19611274   6.092   3.000   6.664  0.2721  0.2157  0.0163
   30MOL   C19711275   6.176   2.873   6.651  0.1239 -0.5373 -1.0333
   30MOL   C19811276   6.465   2.817   6.553 -0.4149 -1.2237  0.2257
   30MOL   H19911277   6.314   2.690   6.510  1.2642  0.7755  1.4159
   30MOL   H20011278   6.136   2.850   6.443  1.2083 -0.3665 -1.1772
   30MOL   H20111279   6.175   3.050   6.380 -0.5441 -0.4856  1.0441
   30MOL   H20211280   6.335   3.063   6.463 -0.3094  0.5074  0.1952
   30MOL   H20311281   6.263   3.128   6.648  1.2913  0.2003 -0.9784
   30MOL   H20411282   6.115   3.186   6.553  0.3393  0.7117  0.5501
   30MOL   H20511283   6.003   2.981   6.605 -0.8889  2.5831  0.9401
   30MOL   H20611284   6.068   3.033   6.765 -0.4195  0.6773 -0.2981
   30MOL   H20711285   6.131   2.780   6.687  3.8635 -1.7637  0.7097
   30MOL   H20811286   6.257   2.880   6.722  1.3124  0.6275 -2.4637
   30MOL   H20911287   6.520   2.901   6.511 -1.6632 -0.5240 -0.0401
   30MOL   H21011288   6.427   2.856   6.647  1.4883  2.0527 -0.2838
   30MOL   C21111289   6.558   2.710   6.613 -0.0441 -0.1797 -0.3439
   30MOL   C21211290   6.697   2.776   6.667  0.1708  0.0414  0.0083
   30MOL   C21311291   6.785   2.854   6.566 -0.0324  0.2286  0.3520
   30MOL   C21411292   6.878   2.945   6.656 -0.9276 -0.0638 -0.1720
   30MOL   C21511293   6.817   2.951   6.797 -0.1267  0.5619  0.3242
   30MOL   C21611294   6.686   2.871   6.778 -0.0464  0.7725  0.3114
   30MOL   C21711295   6.483   2.640   6.727  0.7529 -0.0857  0.8227
   30MOL   H21811296   6.593   2.645   6.532  2.0629  0.3408  0.1166
   30MOL   H21911297   6.769   2.698   6.692 -0.6573 -0.3733  1.1340
   30MOL   H22011298   6.843   2.780   6.512 -0.8851  1.8201 -2.9064
   30MOL   H22111299   6.729   2.919   6.499 -0.5305  0.2585  0.7940
   30MOL   H22211300   6.979   2.906   6.666 -0.8002  0.0970 -0.8156
   30MOL   H22311301   6.876   3.039   6.600 -0.3588 -0.9741 -1.7493
   30MOL   H22411302   6.806   3.054   6.830  0.7859  0.5368  0.7346
   30MOL   H22511303   6.889   2.903   6.863  1.3977  1.6064 -0.5621
   30MOL   H22611304   6.655   2.816   6.867 -0.6977 -1.2164 -1.1090
   30MOL   H22711305   6.611   2.949   6.763 -1.9901 -0.8719  1.3183
   30MOL   H22811306   6.380   2.609   6.706  0.7577 -0.9848  2.0721
   30MOL   H22911307   6.472   2.722   6.799  0.9481 -0.5691  1.4084
   30MOL   C23011308   6.569   2.531   6.797  0.0407  0.2066  0.1140
   30MOL   C23111309   6.617   2.426   6.697 -0.2202 -0.1611 -0.9403
   30MOL   C23211310   6.715   2.323   6.749 -0.5868  0.1738  0.2002
   30MOL   C23311311   6.737   2.220   6.634 -0.1840  0.3664  0.2138
   30MOL   C23411312   6.602   2.224   6.563 -0.4378 -0.0050  0.6992
   30MOL   C23511313   6.524   2.352   6.607  0.1345 -0.3689 -0.6820
   30MOL   C23611314   6.496   2.466   6.927 -0.0594 -0.1155  0.3166
   30MOL   H23711315   6.669   2.559   6.832  0.3685 -2.4038  1.4441
   30MOL   H23811316   6.690   2.480   6.637  0.3680  1.2030  0.9440
   30MOL   H23911317   6.812   2.366   6.772 -1.6226  2.5266  0.2748
   30MOL   H24011318   6.679   2.267   6.836 -2.1236  1.0866  0.1713
   30MOL   H24111319   6.811   2.272   6.573 -0.6730 -0.1852 -0.8661
   30MOL   H24211320   6.772   2.120   6.661  1.9619  1.4583  1.5806
   30MOL   H24311321   6.537   2.145   6.598 -2.0585  0.8277 -0.4003
   30MOL   H24411322   6.631   2.220   6.458  0.8738  1.0056  0.9980
   30MOL   H24511323   6.424   2.331   6.645  0.6009 -2.0193 -0.3397
   30MOL   H24611324   6.497   2.416   6.523  0.0374  0.5255  0.0250
   30MOL   H24711325   6.566   2.398   6.976  1.0107  0.9952  0.3377
   30MOL   H24811326   6.420   2.401   6.884  3.1088 -1.9559 -2.7250
   30MOL   C24911327   6.456   2.558   7.044  0.0340 -0.3455  1.4429
   30MOL   C25011328   6.577   2.593   7.132  0.9188 -0.2318 -0.6875
   30MOL   C25111329   6.625   2.472   7.224  0.4709 -0.1743 -0.7050
   30MOL   C25211330   6.663   2.531   7.356  0.1713  0.2450 -0.2212
   30MOL   C25311331   6.569   2.645   7.377 -0.3885 -0.1263  0.3562
   30MOL   C25411332   6.548   2.704   7.237 -0.8672 -0.3343 -0.0981
   30MOL   C25511333   6.336   2.489   7.109  0.2113  1.1298  0.3601
   30MOL   H25611334   6.420   2.646   6.991 -1.1176 -0.5087  1.9257
   30MOL   H25711335   6.648   2.642   7.066 -0.9265  0.7651 -1.9759
   30MOL   H25811336   6.707   2.414   7.181 -0.9949 -2.9260  0.0290
   30MOL   H25911337   6.545   2.399   7.242  0.0577  0.1935 -1.0442
   30MOL   H26011338   6.766   2.566   7.359  0.5814 -0.9950  0.7387
   30MOL   H26111339   6.664   2.463   7.442 -0.1941 -0.1063 -0.4910
   30MOL   H26211340   6.583   2.722   7.453 -1.4883 -0.8138  1.2706
   30MOL   H26311341   6.478   2.593   7.406  0.6679 -1.8147  0.7092
   30MOL   H26411342   6.624   2.782   7.230  1.2257 -2.0136  2.9276
   30MOL   H26511343   6.451   2.754   7.232 -0.0451  1.2012 -1.4701
   30MOL   H26611344   6.351   2.381   7.098 -0.4120  1.0643  0.1014
   30MOL   H26711345   6.338   2.502   7.217  1.7796 -0.4911  0.5485
   30MOL   C26811346   6.193   2.511   7.044 -0.2893 -0.2877  0.1100
   30MOL   C26911347   6.144   2.644   7.084  0.4996  0.2286 -0.0833
   30MOL   C27011348   6.083   2.652   7.226 -0.5169 -0.4271 -0.5223
   30MOL   C27111349   6.001   2.784   7.226  0.5809  0.2560  0.5699
   30MOL   C27211350   5.929   2.765   7.086 -0.5995 -0.3581  0.3046
   30MOL   C27311351   6.044   2.716   6.996 -0.2728  0.2504 -0.0201
   30MOL   C27411352   6.105   2.381   7.060  0.3114 -0.6600 -0.0235
   30MOL   H27511353   6.208   2.524   6.936  0.9445  0.8526  0.4046
   30MOL   H27611354   6.232   2.708   7.073  1.0849 -0.6671 -0.7026
   30MOL   H27711355   6.023   2.561   7.233 -1.6696  0.4382  1.3964
   30MOL   H27811356   6.155   2.655   7.307  0.9124 -2.0565 -1.7184
   30MOL   H27911357   5.916   2.784   7.294 -1.2443 -2.7375 -1.5692
   30MOL   H28011358   6.058   2.876   7.235 -1.3654  1.4420  1.0436
   30MOL   H28111359   5.869   2.844   7.042  1.4730  0.8905 -0.3793
   30MOL   H28211360   5.867   2.675   7.086 -1.1586 -0.0177 -2.1354
   30MOL   H28311361   6.090   2.800   6.945  0.9638 -0.3574  0.0590
   30MOL   H28411362   6.002   2.665   6.909  0.3891 -0.4606  0.0656
   30MOL   H28511363   6.084   2.381   7.168  2.0074 -0.0465  0.3099
   30MOL   H28611364   6.149   2.284   7.036 -0.3786 -0.7464 -0.9549
   30MOL   C28711365   5.971   2.390   6.988 -0.1817  0.0731  0.4249
   30MOL   C28811366   5.977   2.373   6.838  0.0081 -0.0138 -0.4726
   30MOL   C28911367   5.987   2.231   6.779 -1.1707  0.4145  0.1162
   30MOL   C29011368   5.864   2.210   6.696  0.2911 -0.7929  0.3732
   30MOL   C29111369   5.814   2.352   6.657  0.0083 -0.7114  0.0411
   30MOL   C29211370   5.851   2.430   6.778  0.2833  0.1407  0.1522
   30MOL   C29311371   5.877   2.289   7.052 -0.2819  0.4730 -0.5264
   30MOL   H29411372   5.934   2.492   7.005  2.0010  0.3736  3.8847
   30MOL   H29511373   6.063   2.426   6.798  1.6908 -0.0472  2.9681
   30MOL   H29611374   6.070   2.218   6.710 -1.3168 -2.9662  0.4843
   30MOL   H29711375   5.985   2.153   6.856 -1.6747  0.2222 -0.0865
   30MOL   H29811376   5.877   2.151   6.605  0.8749  3.5493 -2.4747
   30MOL   H29911377   5.785   2.154   6.747 -1.8647  1.2606 -0.6050
   30MOL   H30011378   5.708   2.356   6.633  0.1613  0.1714 -0.5044
   30MOL   H30111379   5.870   2.381   6.568 -2.0676 -1.3758 -1.5360
   30MOL   H30211380   5.774   2.427   6.855 -0.4022 -2.6542 -0.6009
   30MOL   H30311381   5.857   2.538   6.761 -1.2532  0.6718  2.6684
   30MOL   H30411382   5.937   2.203   7.081 -1.9599 -0.8796 -0.9519
   30MOL   H30511383   5.811   2.250   6.974 -0.4413  0.2587 -0.2876
   30MOL   C30611384   5.802   2.340   7.174 -0.0421 -0.9733 -0.1757
   30MOL   C30711385   5.688   2.439   7.136  0.0035  0.1623  0.1546
   30MOL   C30811386   5.561   2.386   7.059  0.0444 -1.0969  0.1564
   30MOL   C30911387   5.479   2.512   7.066  0.2970 -0.1157 -0.0033
   30MOL   C31011388   5.507   2.587   7.195 -0.7364  0.1300  0.2673
   30MOL   C31111389   5.632   2.520   7.257 -0.5677  0.0203 -0.2117
   30MOL   C31211390   5.752   2.219   7.260  0.4508 -0.2369 -0.2314
   30MOL   H31311391   5.868   2.391   7.244 -2.4495 -1.1810  2.3573
   30MOL   H31411392   5.726   2.507   7.060 -0.8751 -0.2322 -0.6467
   30MOL   H31511393   5.522   2.302   7.116 -1.0094 -2.5718 -2.5912
   30MOL   H31611394   5.567   2.351   6.955  1.6876 -0.0172 -0.1225
   30MOL   H31711395   5.493   2.574   6.977 -1.1846 -0.2837 -0.3665
   30MOL   H31811396   5.373   2.493   7.050  0.0164  1.5963 -0.3240
   30MOL   H31911397   5.433   2.579   7.275 -0.9596  4.2406  0.5805
   30MOL   H32011398   5.525   2.692   7.174 -0.6742  0.0616 -0.0263
   30MOL   H32111399   5.708   2.590   7.291  0.3490 -0.8477 -0.4777
   30MOL   H32211400   5.608   2.452   7.339  0.9961 -1.2379 -0.7808
   30MOL   H32311401   5.691   2.160   7.192 -0.1242 -0.0971  0.1632
   30MOL   H32411402   5.673   2.242   7.331  0.9250 -1.5197  0.7370
   30MOL   C32511403   5.856   2.119   7.320 -0.0474 -0.0302  0.0580
   30MOL   C32611404   5.802   1.970   7.321 -0.1610 -0.6916 -0.1629
   30MOL   C32711405   5.803   1.905   7.183  0.1818 -0.0612  0.2142
   30MOL   C32811406   5.664   1.839   7.170  0.0072 -0.2908  0.1505
   30MOL   C32911407   5.617   1.817   7.311 -0.4385 -0.1441 -0.9952
   30MOL   C33011408   5.666   1.937   7.391 -0.3255  0.3700  0.0944
   30MOL   C33111409   5.882   2.153   7.477 -0.0753 -0.3971 -0.1837
   30MOL   H33211410   5.950   2.117   7.266  0.8607 -0.4551  1.5970
   30MOL   H33311411   5.880   1.909   7.367 -0.7615 -1.7966 -0.5781
   30MOL   H33411412   5.878   1.826   7.188 -0.0043 -0.1762  1.4981
   30MOL   H33511413   5.810   1.974   7.099 -2.3650 -0.6970 -0.5492
   30MOL   H33611414   5.643   1.750   7.111 -1.8877  0.0677  0.2566
   30MOL   H33711415   5.599   1.915   7.127  0.9439 -0.0759 -0.9036
   30MOL   H33811416   5.653   1.725   7.355 -1.5064 -0.5319 -0.9219
   30MOL   H33911417   5.510   1.803   7.322 -0.8849  3.8111  0.3716
   30MOL   H34011418   5.683   1.909   7.495 -2.0422  0.4625  0.4107
   30MOL   H34111419   5.600   2.024   7.387  1.8801  2.1019 -0.4282
   30MOL   H34211420   5.923   2.062   7.520 -0.1842 -0.5738 -0.4569
   30MOL   H34311421   5.788   2.176   7.528  0.0408 -0.4406  0.0490
   30MOL   C34411422   5.977   2.284   7.509 -0.1338  0.4995 -0.0753
   30MOL   C34511423   6.126   2.244   7.529 -0.3072 -0.1172 -0.6162
   30MOL   C34611424   6.233   2.354   7.555 -0.4779  0.4229 -0.4690
   30MOL   C34711425   6.359   2.284   7.542  0.5006 -0.0595  0.2484
   30MOL   C34811426   6.340   2.175   7.437 -0.5078  0.2422 -0.6597
   30MOL   C34911427   6.191   2.171   7.416 -0.7727 -0.1000  0.0920
   30MOL   C35011428   5.939   2.357   7.650 -0.2991 -0.0637  0.3128
   30MOL   H35111429   5.950   2.360   7.436 -1.7132 -0.4362 -0.5138
   30MOL   H35211430   6.121   2.173   7.612 -0.2478  0.5219 -0.0619
   30MOL   H35311431   6.226   2.389   7.658  1.5652 -0.6666  0.0404
   30MOL   H35411432   6.215   2.433   7.481  0.5024  1.1634  0.0702
   30MOL   H35511433   6.441   2.349   7.510  1.2894 -1.5289 -0.7717
   30MOL   H35611434   6.381   2.256   7.645  0.2241 -2.3038 -0.2757
   30MOL   H35711435   6.387   2.080   7.463  1.1671  1.1687 -0.1798
   30MOL   H35811436   6.393   2.231   7.359 -0.7938 -2.6871 -3.0271
   30MOL   H35911437   6.166   2.241   7.336 -1.8600  0.8659  1.2761
   30MOL   H36011438   6.161   2.073   7.378 -0.2508  0.0535 -0.7364
   30MOL   H36111439   6.017   2.430   7.673 -1.1809  1.3575 -1.0613
   30MOL   H36211440   5.948   2.293   0.047 -1.6896 -1.7696 -0.7863
   30MOL   C36311441   5.802   2.436   7.651  0.3513 -0.0290  0.0890
   30MOL   C36411442   5.755   2.457   0.111 -0.3173  0.3789 -0.0246
   30MOL   C36511443   5.698   2.339   0.183 -0.4544  0.3583 -0.0954
   30MOL   C36611444   5.613   2.374   0.301 -0.7072  0.5590  0.1535
   30MOL   C36711445   5.567   2.521   0.269 -0.0749 -0.3505  0.0579
   30MOL   C36811446   5.639   2.557   0.132  0.2177  0.5699  0.0721
   30MOL   C36911447   5.820   2.571   7.587 -0.2204  0.4339  0.9938
   30MOL   H37011448   5.720   2.388   7.598  0.2735 -1.3440  1.3776
   30MOL   H37111449   5.844   2.490   0.163  0.4238  3.2022 -2.8912
   30MOL   H37211450   5.633   2.280   0.118 -1.0597 -0.8841  1.6147
   30MOL   H37311451   5.777   2.268   0.208 -0.9783 -0.0265  0.4746
   30MOL   H37411452   5.532   2.302   0.308 -0.6093  0.3617 -0.6756
   30MOL   H37511453   5.663   2.377   0.398  0.6985 -0.2881 -0.5228
   30MOL   H37611454   5.459   2.526   0.262 -0.0378 -1.5522 -1.6990
   30MOL   H37711455   5.610   2.585   0.346 -0.5743  0.0869 -0.0296
   30MOL   H37811456   5.675   2.659   0.142 -1.5323  1.4196 -2.1474
   30MOL   H37911457   5.556   2.550   0.062 -0.4144  0.0176  0.8590
   30MOL   H38011458   5.866   2.575   7.489  0.5972 -0.7458  1.3182
   30MOL   H38111459   5.886   2.641   7.639  2.7434 -0.8535 -0.9265
   30MOL   H38211460   5.721   2.617   7.587  0.6276  2.3312  0.2451
   31MOL     C111461   5.094   5.497   3.459  0.3499 -0.3875  0.5247
   31MOL     C211462   5.201   5.595   3.505 -1.1471  0.2238  0.7147
   31MOL     C311463   5.267   5.570   3.637  0.2769  0.2483  0.1409
   31MOL     C411464   5.323   5.700   3.685 -0.1799 -0.2066 -0.1952
   31MOL     C511465   5.243   5.808   3.615  0.6405 -0.0236 -0.7464
   31MOL     C611466   5.139   5.735   3.537 -0.7528  0.9657  0.4767
   31MOL     C711467   5.048   5.523   3.312 -0.1391  0.0069  0.5415
   31MOL     H811468   5.133   5.396   3.462 -0.6991 -0.7623  2.1051
   31MOL     H911469   5.283   5.602   3.433  0.2521 -0.4840  2.2167
   31MOL    H1011470   5.202   5.526   3.712  1.8730 -2.2483  0.1370
   31MOL    H1111471   5.354   5.504   3.627  1.2962  1.6052 -0.1796
   31MOL    H1211472   5.315   5.708   3.793  0.8196 -1.8811  0.0164
   31MOL    H1311473   5.427   5.710   3.656 -0.3130  1.0680 -0.2363
   31MOL    H1411474   5.194   5.868   3.692  2.2614  0.8097 -0.3295
   31MOL    H1511475   5.295   5.887   3.561  0.0482  0.2024 -0.9934
   31MOL    H1611476   5.102   5.793   3.452  0.3382  0.6053 -0.2506
   31MOL    H1711477   5.057   5.704   3.602 -1.2503  2.4759  0.6125
   31MOL    H1811478   5.015   5.627   3.309  0.0068  0.0136 -1.5441
   31MOL    H1911479   5.136   5.520   3.248 -0.3400  0.2812  0.2522
   31MOL    H2011480   5.008   5.489   3.526 -0.0864  0.7689  0.1260
   31MOL    C2111481   4.932   5.434   3.251  0.4321 -0.2582 -0.3361
   31MOL    C2211482   4.893   5.464   3.106 -0.1105  0.0354  0.6753
   31MOL    C2311483   4.996   5.430   2.997  0.3225  0.4898  0.0206
   31MOL    C2411484   4.945   5.497   2.866 -0.1358  0.3682 -0.4208
   31MOL    C2511485   4.878   5.619   2.918  0.9536 -0.0035  0.0057
   31MOL    C2611486   4.841   5.603   3.070 -0.0210 -0.6250  0.0272
   31MOL    C2711487   4.964   5.283   3.276  0.0531  0.1871 -0.3841
   31MOL    H2811488   4.840   5.441   3.308 -0.3963 -3.3294 -1.2030
   31MOL    H2911489   4.809   5.402   3.076  0.2883  0.4088 -1.2656
   31MOL    H3011490   5.000   5.323   2.976 -0.2885  0.3136  0.7849
   31MOL    H3111491   5.094   5.472   3.020 -0.5202  2.4640  0.0818
   31MOL    H3211492   5.012   5.524   2.785 -1.1045 -2.7592 -2.3610
   31MOL    H3311493   4.866   5.441   2.815 -0.6899  1.7359 -1.0812
   31MOL    H3411494   4.786   5.641   2.864  0.7013  2.0578  1.2274
   31MOL    H3511495   4.945   5.704   2.905 -0.9170  1.5199  0.1443
   31MOL    H3611496   4.733   5.612   3.081 -0.1379 -0.1476 -1.3377
   31MOL    H3711497   4.887   5.683   3.128 -1.0950  0.5072 -0.6644
   31MOL    H3811498   5.061   5.259   3.232 -0.1457  1.6437 -1.6701
   31MOL    H3911499   4.992   5.269   3.380 -1.8698  0.8773  0.2352
   31MOL    C4011500   4.854   5.178   3.229  0.2766  0.0361 -0.1085
   31MOL    C4111501   4.919   5.042   3.206  0.0857 -0.0301  0.2919
   31MOL    C4211502   5.021   4.988   3.312 -0.6635  0.5922 -0.1201
   31MOL    C4311503   5.096   4.881   3.236  0.5151  0.0091 -0.6469
   31MOL    C4411504   5.102   4.931   3.095 -0.3249 -0.2596 -0.7666
   31MOL    C4511505   4.996   5.044   3.077 -0.2213  0.8974  0.6076
   31MOL    C4611506   4.730   5.166   3.327 -0.0549 -0.1379 -0.1255
   31MOL    H4711507   4.809   5.223   3.140 -0.1260 -1.9915 -0.9482
   31MOL    H4811508   4.846   4.964   3.184 -2.9873  2.3814  1.4858
   31MOL    H4911509   4.980   4.964   3.410  3.9507 -0.4310  1.6918
   31MOL    H5011510   5.092   5.068   3.332 -2.2716  1.7817  0.9360
   31MOL    H5111511   5.038   4.789   3.242 -1.0746  0.7854 -3.2364
   31MOL    H5211512   5.190   4.853   3.282  0.2185 -0.9767 -0.6218
   31MOL    H5311513   5.201   4.966   3.066  0.3547 -0.8350  0.8038
   31MOL    H5411514   5.082   4.848   3.028 -2.9484 -0.7160  0.5058
   31MOL    H5511515   5.057   5.133   3.067  1.1678 -0.0790  0.3411
   31MOL    H5611516   4.938   5.023   2.987  0.6037 -0.5592  0.4049
   31MOL    H5711517   4.770   5.130   3.422 -0.5507 -4.1396 -1.3431
   31MOL    H5811518   4.708   5.263   3.372 -1.4192 -0.7461  0.5513
   31MOL    C5911519   4.612   5.082   3.278  0.3345  0.5044  0.2462
   31MOL    C6011520   4.570   4.973   3.384 -0.0530  0.5118 -0.1342
   31MOL    C6111521   4.671   4.864   3.405  0.0019  0.2481 -0.3624
   31MOL    C6211522   4.597   4.740   3.455 -0.0825  0.1825  0.1994
   31MOL    C6311523   4.473   4.751   3.359  0.8214  0.2801 -0.6259
   31MOL    C6411524   4.442   4.904   3.348  0.7070 -0.4090 -0.1958
   31MOL    C6511525   4.496   5.186   3.268  1.3329 -0.1245 -0.4806
   31MOL    H6611526   4.623   5.021   3.189 -1.1844 -0.0924  0.4388
   31MOL    H6711527   4.553   5.024   3.479 -1.1707 -0.8372  0.4061
   31MOL    H6811528   4.749   4.897   3.474  0.2058  2.7706 -1.7132
   31MOL    H6911529   4.725   4.832   3.315  0.0147  0.3458 -0.3904
   31MOL    H7011530   4.568   4.754   3.559  0.4250  0.2859  0.3289
   31MOL    H7111531   4.653   4.646   3.463  1.2702  0.9321 -0.2133
   31MOL    H7211532   4.398   4.685   3.404  3.2774 -2.5609 -0.5196
   31MOL    H7311533   4.500   4.713   3.260 -0.2724  2.1286 -1.6504
   31MOL    H7411534   4.415   4.931   3.246 -1.3736 -0.8031  0.2167
   31MOL    H7511535   4.361   4.922   3.419  0.9277  0.2662 -0.1114
   31MOL    H7611536   4.473   5.216   3.370  0.3895 -1.7839 -0.1826
   31MOL    H7711537   4.408   5.140   3.224  1.9945  0.0709 -2.0513
   31MOL    C7811538   4.518   5.306   3.171  0.4109  0.1819 -0.3681
   31MOL    C7911539   4.527   5.255   3.027  0.0819  1.0284  0.2464
   31MOL    C8011540   4.557   5.364   2.921  0.4252 -0.7236 -1.1948
   31MOL    C8111541   4.461   5.349   2.801  0.2391 -0.1564  0.2614
   31MOL    C8211542   4.394   5.214   2.814  0.0473 -0.4093 -0.3551
   31MOL    C8311543   4.392   5.198   2.966  0.6428  0.1623 -0.4019
   31MOL    C8411544   4.416   5.417   3.197 -0.3583 -0.1566  0.3089
   31MOL    H8511545   4.608   5.363   3.194 -0.6140  2.3871 -1.7689
   31MOL    H8611546   4.602   5.177   3.023 -1.9392 -0.9364 -0.0960
   31MOL    H8711547   4.659   5.346   2.888  1.1093 -0.7414  0.8425
   31MOL    H8811548   4.554   5.469   2.950  0.9456 -0.5572 -1.7463
   31MOL    H8911549   4.518   5.362   2.709  0.0084 -1.2522 -0.0383
   31MOL    H9011550   4.388   5.430   2.789  0.0838 -0.6614 -2.4009
   31MOL    H9111551   4.293   5.214   2.772  0.1005 -2.7757 -0.5243
   31MOL    H9211552   4.451   5.127   2.784  0.8406 -0.1274  0.3107
   31MOL    H9311553   4.298   5.241   3.001 -0.6446 -1.1522 -2.1489
   31MOL    H9411554   4.375   5.091   2.982 -2.5339  0.6874  0.0267
   31MOL    H9511555   4.320   5.373   3.170  0.1439 -1.2876  0.3467
   31MOL    H9611556   4.440   5.496   3.126  0.8453 -2.5651 -2.0688
   31MOL    C9711557   4.418   5.490   3.343  0.2388 -0.1432  0.2388
   31MOL    C9811558   4.293   5.569   3.364 -0.2812 -0.4904  0.7880
   31MOL    C9911559   4.256   5.694   3.278  0.4536 -0.0238 -0.2863
   31MOL   C10011560   4.108   5.726   3.305  0.5743 -0.6060  0.5527
   31MOL   C10111561   4.049   5.606   3.377 -0.2507 -0.1353  0.5107
   31MOL   C10211562   4.152   5.489   3.361  0.2031  0.2796  0.2433
   31MOL   C10311563   4.546   5.579   3.364 -0.1789  1.1793 -0.1391
   31MOL   H10411564   4.420   5.408   3.415  0.0482  0.9785  1.5661
   31MOL   H10511565   4.290   5.607   3.466  0.4818  0.5060  0.4477
   31MOL   H10611566   4.320   5.777   3.307 -0.9416  0.2869  2.0049
   31MOL   H10711567   4.265   5.666   3.173 -1.4015 -0.2245 -0.4100
   31MOL   H10811568   4.055   5.733   3.210  1.8368  0.9960 -0.0642
   31MOL   H10911569   4.090   5.818   3.362 -1.0857  0.6034 -1.8345
   31MOL   H11011570   3.953   5.570   3.342 -0.6736  0.8461  0.6564
   31MOL   H11111571   4.042   5.638   3.481 -1.4698  0.6893  0.1731
   31MOL   H11211572   4.153   5.418   3.443 -0.0664  0.3269  0.2875
   31MOL   H11311573   4.133   5.436   3.267  0.3896 -0.9965  0.9121
   31MOL   H11411574   4.630   5.513   3.344 -1.0447 -0.1249  0.4590
   31MOL   H11511575   4.540   5.641   3.275 -0.3966 -0.6972 -1.4555
   31MOL   C11611576   4.573   5.644   3.490  0.1820 -0.6397 -0.5749
   31MOL   C11711577   4.559   5.548   3.617 -0.3988 -0.4001 -0.7052
   31MOL   C11811578   4.660   5.432   3.610  0.0923  0.1410  0.5811
   31MOL   C11911579   4.710   5.419   3.750 -0.0271  0.2529 -0.0131
   31MOL   C12011580   4.601   5.494   3.836 -0.9744  0.1176  0.1768
   31MOL   C12111581   4.569   5.613   3.753  0.2038  0.3923 -0.8101
   31MOL   C12211582   4.707   5.717   3.483  0.0414 -0.3802 -0.2227
   31MOL   H12311583   4.493   5.716   3.508  1.5025  0.5638  0.6208
   31MOL   H12411584   4.456   5.510   3.616 -0.8165  0.5591  1.9912
   31MOL   H12511585   4.610   5.339   3.583 -3.3130  2.1860 -0.5020
   31MOL   H12611586   4.748   5.447   3.548 -0.0859  2.0246  0.7413
   31MOL   H12711587   4.806   5.471   3.750 -0.7849  1.7000  0.5868
   31MOL   H12811588   4.719   5.319   3.791  0.3125  0.0988 -0.4691
   31MOL   H12911589   4.636   5.532   3.932 -1.6658  0.0473  0.4680
   31MOL   H13011590   4.511   5.438   3.860  0.3374 -2.8555 -1.6576
   31MOL   H13111591   4.478   5.667   3.776  0.0985  0.2556 -0.9050
   31MOL   H13211592   4.656   5.678   3.764  0.1958 -0.0435  2.0188
   31MOL   H13311593   4.743   5.728   3.381 -2.2947 -1.0474 -1.1591
   31MOL   H13411594   4.780   5.655   3.533 -1.9356 -2.7346 -0.1521
   31MOL   C13511595   4.698   5.860   3.540  0.8261 -0.4198 -0.0361
   31MOL   C13611596   4.676   5.972   3.421 -0.0095  0.3086 -0.6792
   31MOL   C13711597   4.551   5.947   3.339  0.2196  0.2364 -0.3830
   31MOL   C13811598   4.576   6.007   3.196  0.0969  0.0313  0.0208
   31MOL   C13911599   4.724   6.051   3.203  0.0623 -0.0526 -0.5940
   31MOL   C14011600   4.789   5.981   3.317  0.8924  0.0842 -0.5362
   31MOL   C14111601   4.831   5.890   3.617  0.2088  1.0723 -0.0781
   31MOL   H14211602   4.610   5.871   3.604  0.8760 -0.5131  0.0479
   31MOL   H14311603   4.652   6.068   3.467 -4.6061 -0.2309 -1.6487
   31MOL   H14411604   4.529   5.842   3.326  2.5648 -0.1720 -1.3877
   31MOL   H14511605   4.463   5.996   3.380  0.5391 -0.8964  1.7109
   31MOL   H14611606   4.514   6.092   3.169 -0.4524 -0.3246  0.1619
   31MOL   H14711607   4.559   5.922   3.130 -1.0688 -1.2007  1.8479
   31MOL   H14811608   4.736   6.160   3.207 -0.0106  0.0478 -2.5136
   31MOL   H14911609   4.769   6.013   3.111  1.4588 -1.2259  0.5708
   31MOL   H15011610   4.820   5.889   3.267 -0.5247  0.7858 -2.7649
   31MOL   H15111611   4.879   6.033   3.349  0.8969  0.3186 -0.9344
   31MOL   H15211612   4.914   5.882   3.546  0.0586 -1.3848 -0.0131
   31MOL   H15311613   4.858   5.805   3.680  1.1794 -0.1319 -2.0678
   31MOL   C15411614   4.835   6.028   3.696  0.0417 -0.6599  0.4740
   31MOL   C15511615   4.821   6.009   3.856 -0.0652 -0.0826 -0.0048
   31MOL   C15611616   4.927   5.911   3.912  0.4025 -0.3112 -0.0779
   31MOL   C15711617   4.860   5.795   3.992  0.1840  0.3936 -0.3551
   31MOL   C15811618   4.720   5.843   4.019 -0.8113 -0.7240 -0.4582
   31MOL   C15911619   4.697   5.953   3.913 -0.4106 -0.7102 -0.3197
   31MOL   C16011620   4.957   6.121   3.660  0.3947 -0.1828  0.6484
   31MOL   H16111621   4.749   6.085   3.662  0.9554  0.6667  0.3070
   31MOL   H16211622   4.830   6.108   3.902  0.0465 -0.2291  0.2942
   31MOL   H16311623   5.000   5.875   3.839  2.2443  0.3134  1.4147
   31MOL   H16411624   4.990   5.956   3.989 -2.0228 -0.8691  2.3261
   31MOL   H16511625   4.860   5.717   3.916  2.1653 -0.1440  0.1803
   31MOL   H16611626   4.913   5.757   4.079  1.9001  2.7142 -0.3333
   31MOL   H16711627   4.739   5.882   4.119  0.2252 -0.4234 -0.7717
   31MOL   H16811628   4.653   5.757   4.021 -0.9469 -0.5821  1.7526
   31MOL   H16911629   4.640   6.036   3.956 -0.5588 -0.5160 -0.8846
   31MOL   H17011630   4.642   5.923   3.824 -2.2472  0.4232  0.4125
   31MOL   H17111631   4.982   6.101   3.555  1.4509 -1.7778  1.1901
   31MOL   H17211632   5.036   6.070   3.715 -0.9656 -0.9586  1.9231
   31MOL   C17311633   4.942   6.270   3.705 -0.3819  0.3711  0.5382
   31MOL   C17411634   4.931   6.372   3.588  0.3369 -0.3233 -0.3246
   31MOL   C17511635   4.806   6.349   3.495 -0.1063  0.4266 -0.0563
   31MOL   C17611636   4.846   6.419   3.364  0.3339  0.0373 -0.5796
   31MOL   C17711637   4.993   6.451   3.363 -0.1629  0.3065 -0.2445
   31MOL   C17811638   5.047   6.379   3.484 -0.2339 -0.3841 -0.1133
   31MOL   C17911639   5.043   6.314   3.812 -0.3543  0.0082 -0.2469
   31MOL   H18011640   4.844   6.271   3.754 -2.4537 -1.4780 -3.3026
   31MOL   H18111641   4.913   6.474   3.620  0.0910 -0.3584 -0.3534
   31MOL   H18211642   4.713   6.384   3.538  0.6203 -1.1231  2.9150
   31MOL   H18311643   4.792   6.243   3.473  1.7852  0.1082  0.1671
   31MOL   H18411644   4.828   6.344   3.287  0.8164 -1.0883  0.3910
   31MOL   H18511645   4.781   6.505   3.347 -0.6796 -0.8131 -1.0598
   31MOL   H18611646   5.008   6.558   3.373 -0.2500  0.3125 -0.1795
   31MOL   H18711647   5.029   6.404   3.271  2.3221 -0.5206  1.0903
   31MOL   H18811648   5.090   6.284   3.454 -0.1014 -0.6442  0.8615
   31MOL   H18911649   5.130   6.440   3.520 -0.0493  0.4834 -1.9569
   31MOL   H19011650   5.046   6.238   3.890 -0.6890 -0.1458 -0.3827
   31MOL   H19111651   5.145   6.333   3.779  0.0685  1.3285  1.7040
   31MOL   C19211652   5.004   6.442   3.885 -0.3602  0.6970  0.5753
   31MOL   C19311653   5.114   6.538   3.939  0.4841  0.6139  1.0581
   31MOL   C19411654   5.191   6.605   3.829  0.1182 -0.2267  0.7789
   31MOL   C19511655   5.340   6.569   3.856  0.6242 -0.2083 -0.0215
   31MOL   C19611656   5.345   6.457   3.959  0.1790  0.5717 -0.0233
   31MOL   C19711657   5.217   6.478   4.040 -0.7517  0.1199 -0.0094
   31MOL   C19811658   4.894   6.415   3.983  0.3193  0.1590 -0.7687
   31MOL   H19911659   4.946   6.501   3.814  0.6559  1.2096  0.1583
   31MOL   H20011660   5.053   6.614   3.987 -1.3481  1.6110 -2.6840
   31MOL   H20111661   5.179   6.713   3.839  0.6387 -0.2207  1.3601
   31MOL   H20211662   5.154   6.582   3.729 -1.0560 -1.1453  1.4162
   31MOL   H20311663   5.407   6.562   3.770 -1.3249  2.5963 -1.8645
   31MOL   H20411664   5.378   6.659   3.904 -0.0589  1.1146 -1.8931
   31MOL   H20511665   5.441   6.450   4.011  0.7980 -0.2683 -1.2422
   31MOL   H20611666   5.342   6.358   3.915 -1.9533  0.7751 -0.3668
   31MOL   H20711667   5.229   6.547   4.124  0.8352 -0.2657  0.0976
   31MOL   H20811668   5.187   6.397   4.106  0.5311  1.6838  2.5812
   31MOL   H20911669   4.855   6.313   3.975  1.2219 -0.4658  2.1140
   31MOL   H21011670   4.939   6.417   4.082 -1.2949 -0.9545  0.0138
   31MOL   C21111671   4.780   6.524   3.988 -0.0320 -0.8011  0.6793
   31MOL   C21211672   4.668   6.489   3.895  0.3100 -0.3613 -0.0153
   31MOL   C21311673   4.586   6.363   3.916  0.0406  0.3779 -0.5351
   31MOL   C21411674   4.447   6.396   3.859  0.5621  0.2644  0.4042
   31MOL   C21511675   4.446   6.535   3.805  0.7379 -0.6117 -0.1531
   31MOL   C21611676   4.561   6.602   3.875  0.1335  0.4999  0.0386
   31MOL   C21711677   4.739   6.553   4.132 -0.0360 -0.0680  0.7195
   31MOL   H21811678   4.831   6.609   3.942 -0.8537 -0.5339  0.2689
   31MOL   H21911679   4.712   6.479   3.796  3.7799 -1.3674  1.5807
   31MOL   H22011680   4.625   6.267   3.880 -0.8217 -0.1948  0.0496
   31MOL   H22111681   4.581   6.340   4.022 -0.5379  5.4569  0.6326
   31MOL   H22211682   4.421   6.321   3.784  0.3022 -0.5512  1.3026
   31MOL   H22311683   4.378   6.377   3.941  0.5794  1.3801  0.6763
   31MOL   H22411684   4.349   6.579   3.828  1.8941  1.0890  1.6457
   31MOL   H22511685   4.465   6.530   3.698 -0.9407 -1.9365 -0.3899
   31MOL   H22611686   4.608   6.686   3.823 -0.7443  0.8966 -0.1181
   31MOL   H22711687   4.517   6.635   3.969 -0.9473 -0.3157 -0.1661
   31MOL   H22811688   4.766   6.468   4.194 -4.1925 -1.6814  0.5033
   31MOL   H22911689   4.632   6.571   4.140 -0.7861 -2.8472 -2.1725
   31MOL   C23011690   4.821   6.674   4.198  0.2683 -0.0176 -0.7691
   31MOL   C23111691   4.946   6.631   4.277  0.0613  0.2067 -0.4993
   31MOL   C23211692   5.057   6.741   4.301 -0.1436  0.0992 -0.6176
   31MOL   C23311693   5.155   6.672   4.402 -0.6652 -0.5599 -0.0220
   31MOL   C23411694   5.064   6.581   4.488  0.1735  0.5775  0.2897
   31MOL   C23511695   4.923   6.574   4.419  0.4124  0.8376 -0.3722
   31MOL   C23611696   4.718   6.766   4.268 -0.0827  0.2706  0.0291
   31MOL   H23711697   4.865   6.727   4.113 -0.7907  1.5087 -0.3908
   31MOL   H23811698   4.993   6.547   4.225 -2.3383 -0.5744 -1.5010
   31MOL   H23911699   5.111   6.774   4.213  0.4891 -0.3343 -0.3945
   31MOL   H24011700   5.013   6.820   4.362 -2.6516 -1.7110  0.0174
   31MOL   H24111701   5.236   6.621   4.349 -0.2521  2.1412 -2.1205
   31MOL   H24211702   5.210   6.743   4.463 -3.0731  2.1563 -0.8868
   31MOL   H24311703   5.058   6.624   4.588  0.7621 -0.6093  0.8454
   31MOL   H24411704   5.107   6.484   4.512 -0.1725  0.1547 -0.7892
   31MOL   H24511705   4.855   6.635   4.478  2.2926  0.9493  1.7696
   31MOL   H24611706   4.878   6.477   4.399 -0.5812  0.7613  2.1125
   31MOL   H24711707   4.773   6.849   4.313 -0.8649 -0.1793  1.8910
   31MOL   H24811708   4.685   6.710   4.356 -0.7289 -0.2888 -0.5606
   31MOL   C24911709   4.606   6.836   4.185 -0.6349 -0.0321  0.7543
   31MOL   C25011710   4.663   6.901   4.056 -0.5704  0.3358  0.6619
   31MOL   C25111711   4.760   7.021   4.065  0.0351 -0.5256 -0.0757
   31MOL   C25211712   4.776   7.067   3.921 -0.8052 -0.3579  0.6197
   31MOL   C25311713   4.625   7.074   3.877  0.0048 -0.7358 -0.3375
   31MOL   C25411714   4.563   6.953   3.948  0.2375  0.7953  0.3833
   31MOL   C25511715   4.530   6.938   4.276  0.6686 -0.0342  0.0086
   31MOL   H25611716   4.543   6.758   4.141 -0.6714  1.3850 -1.7667
   31MOL   H25711717   4.721   6.828   4.000  0.1935  2.2822 -1.1497
   31MOL   H25811718   4.854   6.985   4.108  0.8763  2.6760  0.8920
   31MOL   H25911719   4.719   7.102   4.126  1.3211 -0.3665  0.6087
   31MOL   H26011720   4.846   6.998   3.873 -0.8595  0.7538 -1.1038
   31MOL   H26111721   4.828   7.162   3.912  2.1301 -1.9608 -0.2857
   31MOL   H26211722   4.605   7.084   3.770 -1.4921 -0.1098 -0.0049
   31MOL   H26311723   4.573   7.158   3.922 -0.1213  0.7482 -3.1393
   31MOL   H26411724   4.537   6.870   3.882 -1.9893  0.9379  1.0567
   31MOL   H26511725   4.466   6.972   3.994  0.2805 -0.9850  1.2745
   31MOL   H26611726   4.593   7.019   4.313 -3.1547  2.0945  2.2168
   31MOL   H26711727   4.461   6.996   4.215  1.9455 -0.5360 -1.9408
   31MOL   C26811728   4.447   6.888   4.397 -0.1530  0.5820  0.3976
   31MOL   C26911729   4.340   6.787   4.350  0.2429  0.3314 -0.3579
   31MOL   C27011730   4.221   6.846   4.277  0.4485 -0.4449  0.0624
   31MOL   C27111731   4.097   6.796   4.360 -0.4717 -0.2217  0.4218
   31MOL   C27211732   4.148   6.663   4.426  0.1956  0.6914 -0.1305
   31MOL   C27311733   4.288   6.704   4.468 -0.1332  0.2241  0.3898
   31MOL   C27411734   4.387   7.000   4.481  0.5069 -0.0503 -0.8117
   31MOL   H27511735   4.510   6.833   4.467  0.8842  0.3287 -0.7390
   31MOL   H27611736   4.389   6.712   4.289  0.6219  0.9372 -0.7982
   31MOL   H27711737   4.218   6.953   4.261 -1.9263 -0.5711 -0.6671
   31MOL   H27811738   4.221   6.801   4.178  1.5705 -0.0636 -0.1093
   31MOL   H27911739   4.082   6.865   4.443 -1.4617 -1.0781  0.9621
   31MOL   H28011740   4.002   6.795   4.306  0.5544 -0.6464 -1.4120
   31MOL   H28111741   4.157   6.578   4.359  2.7692  0.3271  0.6289
   31MOL   H28211742   4.088   6.614   4.503  0.6581 -0.0518 -0.2446
   31MOL   H28311743   4.340   6.609   4.477  1.8392  1.4086  1.8596
   31MOL   H28411744   4.297   6.734   4.572 -0.0411 -0.4689  0.5824
   31MOL   H28511745   4.322   6.961   4.559  0.8708  1.3443  0.2206
   31MOL   H28611746   4.317   7.049   4.414 -2.1373 -0.9820  1.2075
   31MOL   C28711747   4.493   7.095   4.547 -0.6999 -0.6498 -0.4173
   31MOL   C28811748   4.406   7.211   4.619  0.2999 -0.1176 -0.4906
   31MOL   C28911749   4.302   7.290   4.539 -0.0348  0.3593  1.3419
   31MOL   C29011750   4.229   7.376   4.634 -0.0168  0.5888  0.3030
   31MOL   C29111751   4.243   7.313   4.767 -0.5913  1.3115 -0.2291
   31MOL   C29211752   4.318   7.180   4.744 -0.2732  0.6858  0.5877
   31MOL   C29311753   4.598   7.028   4.640  0.0264  1.1084  0.0647
   31MOL   H29411754   4.547   7.139   4.464 -2.0348 -1.1501 -1.5674
   31MOL   H29511755   4.480   7.281   4.657 -0.5817  0.0779  0.9475
   31MOL   H29611756   4.366   7.348   4.471 -2.1816  2.0904  0.7425
   31MOL   H29711757   4.237   7.222   4.485  1.5230  0.0905 -0.2645
   31MOL   H29811758   4.287   7.468   4.645  1.9512 -0.5304 -0.3500
   31MOL   H29911759   4.125   7.383   4.604 -0.4305 -2.1624  0.9850
   31MOL   H30011760   4.141   7.295   4.801  0.0872 -1.8985  0.2187
   31MOL   H30111761   4.274   7.378   4.849  1.9865 -0.0151 -0.1201
   31MOL   H30211762   4.249   7.099   4.721 -0.0962  0.6446  0.1966
   31MOL   H30311763   4.387   7.155   4.825 -0.0761  1.4403  0.6588
   31MOL   H30411764   4.652   6.958   4.575  0.3076  0.6819  0.7479
   31MOL   H30511765   4.551   6.959   4.710 -0.5173  1.5404  0.1260
   31MOL   C30611766   4.701   7.113   4.705 -0.3102  0.5175 -0.0771
   31MOL   C30711767   4.783   7.029   4.812 -0.4314 -0.0773 -0.4633
   31MOL   C30811768   4.887   6.929   4.768 -0.0656 -0.1127  0.4821
   31MOL   C30911769   5.010   6.939   4.863  0.5089 -0.2019 -0.0431
   31MOL   C31011770   4.952   7.030   4.981 -0.4020  0.4006 -0.0594
   31MOL   C31111771   4.852   7.126   4.915  0.0865  0.5011  0.2894
   31MOL   C31211772   4.794   7.189   4.601  0.0736 -0.5828 -0.1947
   31MOL   H31311773   4.646   7.183   4.768  1.7479  0.2796  2.0703
   31MOL   H31411774   4.717   6.970   4.875  3.1519 -1.5308  2.1144
   31MOL   H31511775   4.914   6.943   4.663 -0.1186  2.1472  0.7390
   31MOL   H31611776   4.848   6.827   4.769  1.8375 -0.8547  0.7339
   31MOL   H31711777   5.040   6.836   4.883  0.5082 -0.4701 -1.3979
   31MOL   H31811778   5.098   6.983   4.817 -0.1095  1.3342  0.1901
   31MOL   H31911779   5.036   7.066   5.039  0.4103 -2.2700  0.5009
   31MOL   H32011780   4.897   6.969   5.053  1.1688 -1.3085 -0.2797
   31MOL   H32111781   4.793   7.165   4.997 -1.6954  1.0910 -1.2444
   31MOL   H32211782   4.880   7.215   4.859 -1.7635 -0.1672 -1.7444
   31MOL   H32311783   4.812   7.124   4.516 -0.3724 -0.8248 -0.1047
   31MOL   H32411784   4.893   7.199   4.647  0.5953  1.8192 -1.7411
   31MOL   C32511785   4.768   7.334   4.553  0.4280 -0.5473  0.4230
   31MOL   C32611786   4.864   7.368   4.434 -0.3891 -0.0089  0.4647
   31MOL   C32711787   4.831   7.294   4.308  0.3429 -0.8723  0.0466
   31MOL   C32811788   4.960   7.282   4.225  0.1265  0.0024 -0.3154
   31MOL   C32911789   5.068   7.253   4.333 -0.0422 -0.7980 -0.7409
   31MOL   C33011790   5.016   7.345   4.456 -0.3597  0.1081  0.0526
   31MOL   C33111791   4.774   7.433   4.677  0.3744 -0.3607  0.1376
   31MOL   H33211792   4.666   7.333   4.514  0.8608  0.6839 -0.7793
   31MOL   H33311793   4.860   7.474   4.408 -0.1150 -0.6967 -2.5906
   31MOL   H33411794   4.751   7.350   4.258  1.3167  2.0396  1.6085
   31MOL   H33511795   4.800   7.191   4.326  1.6195 -0.9011  2.1575
   31MOL   H33611796   4.991   7.376   4.180  0.7972  0.7612  1.6644
   31MOL   H33711797   4.954   7.208   4.145  0.5119 -1.0131  0.5707
   31MOL   H33811798   5.169   7.273   4.299 -0.4814  1.3086 -0.8472
   31MOL   H33911799   5.068   7.145   4.350 -0.1050 -0.3973  2.0652
   31MOL   H34011800   5.074   7.437   4.467 -0.1794 -0.0125  0.1188
   31MOL   H34111801   5.041   7.281   4.541 -1.4870 -0.5355 -0.0913
   31MOL   H34211802   4.882   7.438   4.691  0.6001 -0.4507 -1.4186
   31MOL   H34311803   4.722   7.394   4.764 -0.2453 -0.6309 -0.3491
   31MOL   C34411804   4.739   7.582   4.641  1.9437  0.2619  0.7712
   31MOL   C34511805   4.767   7.689   4.751 -0.2285 -0.0015  0.1953
   31MOL   C34611806   4.907   7.674   4.817 -0.8389  0.1476  0.4616
   31MOL   C34711807   4.878   7.615   4.954  0.3006 -0.4234  0.5289
   31MOL   C34811808   4.755   7.682   4.998 -0.5230  0.2670  0.3182
   31MOL   C34911809   4.675   7.688   4.871  0.7848 -0.5666  0.0908
   31MOL   C35011810   4.595   7.595   4.591  0.1099  0.1089  0.6703
   31MOL   H35111811   4.809   7.619   4.567  2.0765 -0.2176  0.6529
   31MOL   H35211812   4.763   0.095   4.700  0.0406  1.3148  2.5619
   31MOL   H35311813   4.967   0.075   4.821 -1.1366  0.4051 -0.5725
   31MOL   H35411814   4.976   7.614   4.758 -2.3151 -1.2594  0.1161
   31MOL   H35511815   4.875   7.507   4.953 -0.0290 -0.4250  1.0694
   31MOL   H35611816   4.964   7.642   5.016  0.2300 -0.7397  0.7667
   31MOL   H35711817   4.776   0.096   5.022 -1.2713  0.0031  2.2204
   31MOL   H35811818   4.721   7.628   5.086 -0.1689 -0.4517  0.0167
   31MOL   H35911819   4.588   7.622   4.873 -0.5738  1.1840 -0.1009
   31MOL   H36011820   4.621   0.092   4.862 -1.6515 -2.0505 -1.4130
   31MOL   H36111821   4.520   7.569   4.666  0.4212  1.0185  1.2984
   31MOL   H36211822   4.576   7.530   4.506 -1.0467 -1.0318  1.7760
   31MOL   C36311823   4.555   0.049   4.536  0.0442  0.2390  1.1522
   31MOL   C36411824   4.643   0.089   4.414  0.4823 -0.3207 -0.1839
   31MOL   C36511825   4.634   0.236   4.376  0.7280 -0.2327  0.6793
   31MOL   C36611826   4.639   0.244   4.227 -0.5689  0.0573  0.0911
   31MOL   C36711827   4.588   0.110   4.178 -0.1469 -0.9286 -0.1518
   31MOL   C36811828   4.630   0.012   4.284  0.5024 -0.0369 -0.4503
   31MOL   C36911829   4.407   0.061   4.501 -0.0082  0.4769  0.5025
   31MOL   H37011830   4.573   0.124   4.613 -0.4109  0.7394  0.7786
   31MOL   H37111831   4.747   0.083   4.447  0.1744  0.3809  0.9192
   31MOL   H37211832   4.532   0.270   4.398  0.4392  0.0365 -1.0013
   31MOL   H37311833   4.709   0.300   4.422 -0.5812  1.8768 -0.0333
   31MOL   H37411834   4.579   0.331   4.199  0.6931  0.4650 -1.4116
   31MOL   H37511835   4.743   0.249   4.195 -0.5760  0.1207  0.0766
   31MOL   H37611836   4.479   0.118   4.175 -0.1368 -0.1320  1.1517
   31MOL   H37711837   4.630   0.081   4.082 -2.0327 -0.1883 -1.2376
   31MOL   H37811838   4.724   7.655   4.254  0.6669 -0.1742  0.2717
   31MOL   H37911839   4.545   7.633   4.285 -0.5259  1.1752  2.7181
   31MOL   H38011840   4.368   7.659   4.457  0.0540  2.0350 -2.9259
   31MOL   H38111841   4.375   0.141   4.436 -0.4466 -0.1578 -0.0626
   31MOL   H38211842   4.347   0.062   4.592 -0.0822 -1.7295  0.5033
   32MOL     C111843   5.004   4.147   7.211  0.0193  0.6358 -0.7218
   32MOL     C211844   5.034   4.148   7.364  0.4528  0.7730  0.2462
   32MOL     C311845   4.925   4.215   7.447 -0.1534 -0.7826 -0.4688
   32MOL     C411846   4.994   4.257   7.573  0.4571  0.2581 -0.4560
   32MOL     C511847   5.146   4.267   7.546 -0.7472  0.1639  0.5548
   32MOL     C611848   5.164   4.218   7.399  0.0402  0.2838  0.5230
   32MOL     C711849   4.888   4.054   7.173 -0.0792 -0.2664  0.5068
   32MOL     H811850   4.994   4.245   7.165 -0.2262  0.7203 -0.4890
   32MOL     H911851   5.048   4.045   7.399  2.1566  1.2874  1.1233
   32MOL    H1011852   4.876   4.299   7.396  0.1050  0.5601  1.4509
   32MOL    H1111853   4.839   4.151   7.467 -1.2703  0.5175 -0.9841
   32MOL    H1211854   4.938   4.336   7.621  0.6665 -0.6709  1.3553
   32MOL    H1311855   4.971   4.175   7.641 -0.2422  0.9856  0.1829
   32MOL    H1411856   5.173   4.373   7.548  0.8636 -0.2243  0.0954
   32MOL    H1511857   5.213   4.214   7.614 -0.1379 -1.3911 -1.2321
   32MOL    H1611858   5.250   4.150   7.396 -0.1710  0.0743 -3.1103
   32MOL    H1711859   5.183   4.298   7.327  1.2616 -1.2598 -0.9290
   32MOL    H1811860   4.908   3.960   7.224 -0.4288 -0.6183 -0.0081
   32MOL    H1911861   4.800   4.101   7.216 -0.4680 -0.0768 -0.4933
   32MOL    H2011862   5.092   4.097   7.170  0.9782  1.5347  0.2301
   32MOL    C2111863   4.868   4.022   7.023 -0.1068  0.2106  0.2562
   32MOL    C2211864   4.843   4.146   6.944 -0.7114 -0.2190 -0.6880
   32MOL    C2311865   4.726   4.230   6.995  0.9289 -0.1100 -0.0067
   32MOL    C2411866   4.685   4.321   6.875  0.1864 -0.3425  0.5458
   32MOL    C2511867   4.755   4.257   6.745  0.4901 -0.0521 -0.8175
   32MOL    C2611868   4.814   4.124   6.795 -0.6417 -0.6375 -0.3768
   32MOL    C2711869   4.985   3.930   6.969  0.5284 -0.1242 -0.2878
   32MOL    H2811870   4.769   3.976   7.014 -0.1835  0.1209  1.4031
   32MOL    H2911871   4.929   4.213   6.952 -1.1648  0.2885  0.0188
   32MOL    H3011872   4.753   4.284   7.086 -1.4354 -0.2503  0.8206
   32MOL    H3111873   4.636   4.171   7.013  0.9115  0.3958  1.7092
   32MOL    H3211874   4.576   4.326   6.868  0.1122 -2.0647  0.2764
   32MOL    H3311875   4.733   4.415   6.901  1.8781 -1.8070  2.9863
   32MOL    H3411876   4.823   4.324   6.694 -0.0421 -0.6898 -2.4193
   32MOL    H3511877   4.672   4.240   6.676  1.9512 -1.6536 -2.1981
   32MOL    H3611878   4.904   4.098   6.739 -0.2130 -0.9084  0.4338
   32MOL    H3711879   4.743   4.044   6.773  0.4143 -1.4695 -0.7948
   32MOL    H3811880   4.957   3.896   6.870  3.3592  1.2925 -1.6197
   32MOL    H3911881   5.077   3.982   6.943 -0.1609  0.7852 -0.9043
   32MOL    C4011882   5.018   3.804   7.056 -0.6322  0.8264  0.1623
   32MOL    C4111883   4.892   3.718   7.106  0.3857 -0.2607 -0.2131
   32MOL    C4211884   4.914   3.652   7.239 -0.0498  0.3540  0.0417
   32MOL    C4311885   4.801   3.536   7.245  0.3300 -0.1694  0.1593
   32MOL    C4411886   4.743   3.529   7.101  0.0480 -0.4653 -0.5142
   32MOL    C4511887   4.827   3.623   7.010 -0.1274 -0.6604  0.2221
   32MOL    C4611888   5.128   3.707   6.995 -0.0297 -0.0616  0.0626
   32MOL    H4711889   5.078   3.835   7.142  0.7490 -0.6113 -0.2663
   32MOL    H4811890   4.814   3.790   7.133 -0.2455 -1.3434  0.8653
   32MOL    H4911891   4.905   3.710   7.331  3.9896 -0.1369  0.8383
   32MOL    H5011892   5.009   3.602   7.256 -0.9788 -1.7230 -0.6541
   32MOL    H5111893   4.722   3.565   7.315 -0.5100 -0.9585 -0.4588
   32MOL    H5211894   4.849   3.448   7.286 -0.2597 -0.4061  0.3491
   32MOL    H5311895   4.750   3.426   7.067 -1.4050 -1.1651  1.2064
   32MOL    H5411896   4.638   3.556   7.107  0.5238  1.7722 -1.8902
   32MOL    H5511897   4.907   3.569   6.960  0.4137  0.3332 -0.0011
   32MOL    H5611898   4.769   3.670   6.930 -0.4422  0.9462  1.3659
   32MOL    H5711899   5.133   3.619   7.059 -0.8703 -0.3118 -0.2033
   32MOL    H5811900   5.087   3.672   6.900  3.7600 -1.0914 -1.2536
   32MOL    C5911901   5.262   3.767   6.973  0.9054  0.3371 -0.0684
   32MOL    C6011902   5.345   3.807   7.106  0.1924 -0.8863  0.4040
   32MOL    C6111903   5.459   3.914   7.090 -0.1283  0.5548 -0.2344
   32MOL    C6211904   5.532   3.925   7.233 -0.4179 -0.0217  0.2108
   32MOL    C6311905   5.502   3.783   7.288 -0.4369 -0.1132  0.1934
   32MOL    C6411906   5.408   3.703   7.189 -0.3879 -0.1890 -0.1971
   32MOL    C6511907   5.347   3.693   6.878  0.2586 -0.2537 -0.1432
   32MOL    H6611908   5.242   3.858   6.917 -1.0435  0.8016  1.3333
   32MOL    H6711909   5.281   3.859   7.177  1.1692  0.7991  0.0841
   32MOL    H6811910   5.417   4.013   7.073  3.2677  2.2924  0.9433
   32MOL    H6911911   5.529   3.893   7.009  0.5706  0.9411  0.2706
   32MOL    H7011912   5.488   4.002   7.296 -0.2371 -0.3933  0.8018
   32MOL    H7111913   5.639   3.943   7.226 -0.0950 -2.5093 -2.0996
   32MOL    H7211914   5.457   3.788   7.387 -1.1661 -0.5566 -0.1081
   32MOL    H7311915   5.596   3.730   7.302  0.0930  0.9264  0.5583
   32MOL    H7411916   5.474   3.632   7.139  2.8306 -0.1866  3.8036
   32MOL    H7511917   5.334   3.639   7.237 -1.2030  1.1424  0.3422
   32MOL    H7611918   5.371   3.597   6.923 -0.3733 -1.3044 -1.9798
   32MOL    H7711919   5.432   3.755   6.850 -0.0701 -0.1690 -0.9714
   32MOL    C7811920   5.300   3.656   6.736  0.1628 -0.2277  0.0814
   32MOL    C7911921   5.240   3.775   6.652 -0.5353 -0.3430  0.5427
   32MOL    C8011922   5.165   3.739   6.522 -0.4852  0.6696 -0.1222
   32MOL    C8111923   5.143   3.881   6.458 -0.2836  0.6095 -0.1922
   32MOL    C8211924   5.278   3.946   6.483 -0.0740  0.3288 -0.2167
   32MOL    C8311925   5.338   3.884   6.610  0.1529  0.0938 -0.2904
   32MOL    C8411926   5.414   3.586   6.652  0.1735 -0.5293  0.2921
   32MOL    H8511927   5.222   3.585   6.761 -1.2915  1.7002  1.2167
   32MOL    H8611928   5.164   3.828   6.710 -0.6306  0.8483 -0.6671
   32MOL    H8711929   5.077   3.680   6.548 -0.1094 -0.1604 -0.6923
   32MOL    H8811930   5.221   3.681   6.448  0.0065 -0.6180  1.2396
   32MOL    H8911931   5.060   3.942   6.493 -2.2832 -1.7978 -0.5475
   32MOL    H9011932   5.120   3.866   6.352 -2.1413  0.0452  0.2656
   32MOL    H9111933   5.337   3.934   6.392  3.3370  1.3279  1.7815
   32MOL    H9211934   5.273   4.054   6.494  0.4331  0.4287 -0.9186
   32MOL    H9311935   5.434   3.839   6.584  0.6723 -0.9870  3.1778
   32MOL    H9411936   5.346   3.964   6.683  0.2874 -0.2958  0.1238
   32MOL    H9511937   5.503   3.641   6.684 -1.1715  1.0105  1.4721
   32MOL    H9611938   5.407   3.609   6.545 -0.1573 -2.8134 -0.1912
   32MOL    C9711939   5.416   3.432   6.676  0.3569 -0.2506 -0.4558
   32MOL    C9811940   5.562   3.373   6.666  0.3038 -0.4027 -0.1670
   32MOL    C9911941   5.674   3.450   6.730  0.0623 -0.1568  0.4134
   32MOL   C10011942   5.794   3.355   6.734 -0.5205  0.2001  0.2965
   32MOL   C10111943   5.731   3.218   6.739 -0.1569  0.0593 -0.2874
   32MOL   C10211944   5.578   3.235   6.731 -0.1481  0.5541  0.2120
   32MOL   C10311945   5.326   3.358   6.576  0.5088 -0.5968  0.1231
   32MOL   H10411946   5.375   3.409   6.775 -1.8980  2.1536 -0.7929
   32MOL   H10511947   5.598   3.366   6.563 -0.2662  1.0190 -0.4663
   32MOL   H10611948   5.709   3.542   6.683 -1.6511  1.7882  2.8491
   32MOL   H10711949   5.646   3.483   6.830  0.0959 -1.4824  0.8753
   32MOL   H10811950   5.849   3.373   6.827 -0.9015  2.3305  0.1331
   32MOL   H10911951   5.862   3.368   6.650  0.8818  0.1043  1.3960
   32MOL   H11011952   5.763   3.165   6.829  0.6262  1.2762  0.1555
   32MOL   H11111953   5.750   3.157   6.651  0.2026 -0.6847  0.2996
   32MOL   H11211954   5.526   3.157   6.674 -0.3406 -0.8032  2.2015
   32MOL   H11311955   5.528   3.247   6.827 -0.4183 -0.6807  0.2393
   32MOL   H11411956   5.304   3.421   6.490 -0.5371 -1.6151 -0.3706
   32MOL   H11511957   5.387   3.282   6.528  1.1878 -0.8902  1.4465
   32MOL   C11611958   5.193   3.289   6.633  0.5650  0.1674 -0.0700
   32MOL   C11711959   5.087   3.259   6.521 -0.0027 -0.3179 -0.4331
   32MOL   C11811960   5.012   3.384   6.469 -0.1934 -0.6422 -0.7267
   32MOL   C11911961   5.004   3.371   6.318 -0.4331  0.2691 -0.3986
   32MOL   C12011962   5.045   3.224   6.291  0.2207 -0.7671  0.5108
   32MOL   C12111963   5.143   3.197   6.399 -0.0693 -0.0962  0.2919
   32MOL   C12211964   5.230   3.154   6.711 -0.3455  0.3606  0.1848
   32MOL   H12311965   5.152   3.367   6.697 -2.1643 -0.2743 -1.2517
   32MOL   H12411966   5.009   3.197   6.563 -0.1097  0.4524  0.5064
   32MOL   H12511967   4.918   3.373   6.523  0.3866  1.2963  0.7546
   32MOL   H12611968   5.050   3.483   6.497  0.5730 -1.2969  0.6073
   32MOL   H12711969   5.080   3.436   6.275 -0.3887 -0.1508 -0.9636
   32MOL   H12811970   4.916   3.409   6.265 -0.2184 -0.1470 -1.0605
   32MOL   H12911971   5.089   3.213   6.192 -0.2510  0.7757  0.1193
   32MOL   H13011972   4.954   3.164   6.300 -0.8634  1.1165  2.7721
   32MOL   H13111973   5.156   3.090   6.411 -1.4679 -0.2153  0.8518
   32MOL   H13211974   5.235   3.244   6.363  0.8880 -0.6603  1.9410
   32MOL   H13311975   5.317   3.174   6.773  0.4858 -0.6734 -0.6201
   32MOL   H13411976   5.260   3.084   6.633 -1.4032  0.9352 -0.7553
   32MOL   C13511977   5.122   3.090   6.804 -0.1423 -0.3606 -0.2019
   32MOL   C13611978   5.144   3.138   6.949 -0.1043  0.6104  0.0559
   32MOL   C13711979   5.033   3.099   7.045  0.8524 -0.5321  0.6275
   32MOL   C13811980   5.010   3.215   7.146 -0.6579  0.4696 -0.1084
   32MOL   C13911981   5.113   3.314   7.107 -0.6222  0.1267  0.0214
   32MOL   C14011982   5.136   3.294   6.955  0.6437  0.2393  0.3114
   32MOL   C14111983   5.145   2.941   6.789  0.3311 -0.4032 -0.9890
   32MOL   H14211984   5.021   3.127   6.784 -0.0567 -0.1336 -0.2061
   32MOL   H14311985   5.244   3.119   6.987 -0.3383  3.0668  1.9703
   32MOL   H14411986   4.937   3.077   6.997  0.3835  0.0468  1.2981
   32MOL   H14511987   5.051   2.999   7.086 -0.0847 -1.1298 -0.3596
   32MOL   H14611988   5.033   3.185   7.248  0.1539  1.0615 -0.1137
   32MOL   H14711989   4.918   3.270   7.127 -0.8276  1.3115  2.9570
   32MOL   H14811990   5.205   3.295   7.163 -2.0394 -0.7214  2.1262
   32MOL   H14911991   5.085   3.414   7.140  1.2988  0.7459 -0.2011
   32MOL   H15011992   5.054   3.326   6.891  1.8516  0.0783 -1.3722
   32MOL   H15111993   5.228   3.343   6.924  0.5188 -0.4347 -1.1645
   32MOL   H15211994   5.114   2.904   6.887 -1.9613  1.2973 -1.0389
   32MOL   H15311995   5.253   2.927   6.782  0.4949  0.4358 -0.2286
   32MOL   C15411996   5.066   2.872   6.678  0.0216  0.2232 -0.2476
   32MOL   C15511997   5.136   2.743   6.624  0.1525 -0.9117  0.1810
   32MOL   C15611998   5.168   2.635   6.724 -0.1705 -0.6263 -0.5222
   32MOL   C15711999   5.273   2.537   6.651 -0.3294  0.3038  0.0904
   32MOL   C15812000   5.345   2.636   6.551  0.1543 -0.3790 -0.2468
   32MOL   C15912001   5.261   2.763   6.535  0.8264  0.2971 -0.6863
   32MOL   C16012002   4.917   2.850   6.729 -0.2588  0.2579 -0.2612
   32MOL   H16112003   5.068   2.951   6.603 -0.3778  0.5728  0.1109
   32MOL   H16212004   5.063   2.692   6.561  0.2679 -0.0546 -0.6577
   32MOL   H16312005   5.208   2.672   6.818  0.5042  0.2946 -1.1604
   32MOL   H16412006   5.078   2.584   6.758  0.5403 -1.0898  0.7250
   32MOL   H16512007   5.343   2.490   6.719 -0.4240 -0.4269 -0.3098
   32MOL   H16612008   5.210   2.461   6.604 -0.2590  0.5480 -0.3961
   32MOL   H16712009   5.359   2.587   6.455 -0.8064  0.9004 -1.0573
   32MOL   H16812010   5.443   2.675   6.580 -0.1660  1.1980 -1.2098
   32MOL   H16912011   5.226   2.783   6.434  0.1817 -0.2893 -0.5843
   32MOL   H17012012   5.317   2.851   6.566  0.5130  0.0364  0.6439
   32MOL   H17112013   4.892   2.948   6.771  2.9216 -0.3851  3.3895
   32MOL   H17212014   4.920   2.786   6.817 -2.8166 -1.2332 -1.2032
   32MOL   C17312015   4.803   2.800   6.643  1.0291  0.1352  0.1758
   32MOL   C17412016   4.806   2.867   6.504  0.1649  0.5607 -0.3426
   32MOL   C17512017   4.754   3.016   6.492 -0.2008  0.7528 -0.7628
   32MOL   C17612018   4.695   3.021   6.345 -0.1055  0.0907 -0.3598
   32MOL   C17712019   4.711   2.881   6.277  0.1782  0.4667 -0.5315
   32MOL   C17812020   4.729   2.788   6.389 -0.6285 -0.4687  0.1938
   32MOL   C17912021   4.663   2.804   6.711  0.0196  0.1730  0.0240
   32MOL   H18012022   4.830   2.697   6.622  1.2107 -0.1243  1.6524
   32MOL   H18112023   4.908   2.870   6.466 -0.4615 -1.4077 -2.2918
   32MOL   H18212024   4.817   3.096   6.531 -1.0196  1.3239 -0.6080
   32MOL   H18312025   4.663   3.017   6.552 -0.0664  2.4824 -0.5609
   32MOL   H18412026   4.590   3.048   6.353  0.2344  1.3166  0.1840
   32MOL   H18512027   4.729   3.095   6.272  1.0153  0.0806  0.1340
   32MOL   H18612028   4.803   2.880   6.217 -0.1610 -2.2918 -1.0462
   32MOL   H18712029   4.627   2.839   6.221 -1.3380 -0.7128  2.5280
   32MOL   H18812030   4.630   2.750   6.419  0.0598 -3.0155 -0.6367
   32MOL   H18912031   4.778   2.696   6.357  0.8791  0.7223 -0.9164
   32MOL   H19012032   4.652   2.907   6.746  1.0398 -0.2675  1.7117
   32MOL   H19112033   4.584   2.800   6.636  0.7677 -0.0038 -0.7681
   32MOL   C19212034   4.643   2.708   6.834 -0.0007 -0.3950 -0.1603
   32MOL   C19312035   4.681   2.563   6.796 -0.4811 -0.6629  0.5057
   32MOL   C19412036   4.616   2.515   6.671 -0.0665  0.0910 -0.1343
   32MOL   C19512037   4.599   2.363   6.696 -0.1064 -0.1699 -0.1449
   32MOL   C19612038   4.672   2.334   6.833  0.0181  0.5881 -0.3071
   32MOL   C19712039   4.659   2.464   6.912 -0.1250  0.4379  0.4774
   32MOL   C19812040   4.509   2.727   6.913  0.7410  0.1112  0.0348
   32MOL   H19912041   4.718   2.723   6.912  0.0156 -1.0679 -0.0392
   32MOL   H20012042   4.789   2.560   6.781 -0.5279  1.0569 -0.2605
   32MOL   H20112043   4.669   2.536   6.577 -0.2149 -1.7759 -0.6482
   32MOL   H20212044   4.519   2.566   6.669 -0.3660 -0.4975 -0.8315
   32MOL   H20312045   4.493   2.339   6.705  0.1399 -1.1439  0.2346
   32MOL   H20412046   4.636   2.304   6.612 -1.3453 -1.8251  0.4498
   32MOL   H20512047   4.778   2.313   6.813 -0.1397 -0.5110 -0.0617
   32MOL   H20612048   4.623   2.251   6.884 -0.7904  1.4423  0.2984
   32MOL   H20712049   4.724   2.475   6.999 -1.2307  0.6958  1.2793
   32MOL   H20812050   4.556   2.472   6.945  0.2143  1.0517  1.3954
   32MOL   H20912051   4.441   2.671   6.850  3.3064 -1.8874 -1.0192
   32MOL   H21012052   4.527   2.679   7.009  0.6687 -1.3379 -0.6731
   32MOL   C21112053   4.455   2.874   6.928  0.8388 -0.2698 -0.6904
   32MOL   C21212054   4.310   2.872   6.991  0.1576 -0.5234  0.6361
   32MOL   C21312055   4.201   2.815   6.904 -0.5425 -0.4806 -0.1476
   32MOL   C21412056   4.100   2.763   7.008 -0.0158  0.5713 -0.1494
   32MOL   C21512057   4.186   2.709   7.123  0.5756 -0.6927 -0.2433
   32MOL   C21612058   4.299   2.803   7.119 -0.1817  0.5493 -0.4842
   32MOL   C21712059   4.551   2.963   7.013 -0.3230 -0.6849 -0.4556
   32MOL   H21812060   4.451   2.915   6.827  0.5703  1.7319  0.1133
   32MOL   H21912061   4.285   2.977   7.005  1.9233 -0.3204  2.4541
   32MOL   H22012062   4.175   2.888   6.827 -0.3227 -0.1998  0.0448
   32MOL   H22112063   4.238   2.732   6.844  0.0505  0.5405 -1.2051
   32MOL   H22212064   4.045   2.846   7.051 -1.7533 -0.6002 -0.0523
   32MOL   H22312065   4.018   2.697   6.978 -0.8551 -0.1931  3.4961
   32MOL   H22412066   4.223   2.608   7.107 -2.0798 -1.8584  0.7354
   32MOL   H22512067   4.133   2.717   7.217 -0.3961  1.1628 -0.9341
   32MOL   H22612068   4.282   2.880   7.195  0.2126 -1.1098  1.3403
   32MOL   H22712069   4.392   2.760   7.157 -0.5094  0.6767  0.4781
   32MOL   H22812070   4.655   2.948   6.984 -0.6494 -0.0881 -1.9565
   32MOL   H22912071   4.555   2.913   7.110  1.1707  1.1439  0.4744
   32MOL   C23012072   4.525   3.116   7.025 -0.1394 -0.1005  0.0768
   32MOL   C23112073   4.565   3.189   6.894 -0.0192  0.0841  0.3242
   32MOL   C23212074   4.520   3.335   6.882  0.0745  0.3402  0.1305
   32MOL   C23312075   4.620   3.414   6.798  0.5676 -0.0218 -0.1395
   32MOL   C23412076   4.740   3.320   6.779 -0.0266 -0.1313 -0.4474
   32MOL   C23512077   4.716   3.197   6.860  0.3330 -0.6790 -0.5897
   32MOL   C23612078   4.592   3.179   7.154 -0.0279 -0.1716 -0.0030
   32MOL   H23712079   4.419   3.126   7.045 -0.6872  1.2322 -3.2380
   32MOL   H23812080   4.511   3.143   6.812  1.3371 -0.5320 -0.2370
   32MOL   H23912081   4.417   3.349   6.849  1.0249  1.4437 -2.4778
   32MOL   H24012082   4.537   3.373   6.983 -2.0591 -1.7966  1.3566
   32MOL   H24112083   4.589   3.454   6.701 -0.0414  0.4711  0.2525
   32MOL   H24212084   4.650   3.504   6.852 -3.2758  0.2919  1.6461
   32MOL   H24312085   4.841   3.358   6.789 -0.3937  1.4885 -2.5376
   32MOL   H24412086   4.746   3.284   6.676 -1.2867 -1.1000 -0.1954
   32MOL   H24512087   4.774   3.195   6.952 -0.3993  0.2034 -0.1032
   32MOL   H24612088   4.750   3.112   6.801 -1.2012 -2.1880  0.6424
   32MOL   H24712089   4.584   3.287   7.150 -1.2402 -0.2882 -1.1007
   32MOL   H24812090   4.700   3.164   7.153  0.1267  0.7340  1.9437
   32MOL   C24912091   4.538   3.143   7.296 -0.6776 -0.5958 -0.0739
   32MOL   C25012092   4.400   3.209   7.342 -0.5563  0.4707 -0.1053
   32MOL   C25112093   4.402   3.363   7.336 -0.8200 -0.3337  0.4675
   32MOL   C25212094   4.298   3.395   7.438  0.7472 -0.9124  0.4806
   32MOL   C25312095   4.344   3.311   7.557 -0.4583 -0.5001 -0.3118
   32MOL   C25412096   4.357   3.175   7.490  0.1142 -0.3757  0.1652
   32MOL   C25512097   4.656   3.167   7.396  0.0335 -0.3131  0.6196
   32MOL   H25612098   4.533   3.034   7.296 -0.0843 -0.6229  0.4727
   32MOL   H25712099   4.323   3.168   7.278 -0.5489 -0.2158  0.3247
   32MOL   H25812100   4.377   3.394   7.234 -0.3373 -0.4899  0.2999
   32MOL   H25912101   4.494   3.415   7.362  0.3335 -1.3610 -1.4331
   32MOL   H26012102   4.195   3.373   7.409  0.5739  1.5386 -0.8871
   32MOL   H26112103   4.309   3.502   7.456 -1.8361 -0.6098  0.4653
   32MOL   H26212104   4.270   3.312   7.637  0.9046 -0.8161  0.9774
   32MOL   H26312105   4.434   3.353   7.602 -1.2032 -1.3242  2.0349
   32MOL   H26412106   4.255   3.137   7.487  0.0682 -0.3634  1.3029
   32MOL   H26512107   4.409   3.107   7.557 -0.5800 -1.5000 -0.4354
   32MOL   H26612108   4.736   3.233   7.361 -0.7153 -0.6072 -1.7587
   32MOL   H26712109   4.611   3.225   7.475  0.3020  0.2876  0.3346
   32MOL   C26812110   4.725   3.037   7.452  0.4935 -0.4973  0.4768
   32MOL   C26912111   4.822   3.059   7.572 -0.6010 -0.1646  0.0157
   32MOL   C27012112   4.751   3.117   0.009 -0.1098  0.7263  0.1231
   32MOL   C27112113   4.861   3.180   0.100  0.1861 -1.2615  0.6042
   32MOL   C27212114   4.988   3.174   0.011 -0.4808  0.4575 -0.2897
   32MOL   C27312115   4.935   3.163   7.552 -0.1303  0.0785  0.6802
   32MOL   C27412116   4.785   2.951   7.337 -0.8044 -0.1510  0.4152
   32MOL   H27512117   4.639   2.982   7.489  0.0114  0.0698  0.2084
   32MOL   H27612118   4.865   2.963   7.602 -2.7353 -1.0222  0.4055
   32MOL   H27712119   4.685   3.200   7.676  0.4324  1.2735  0.5275
   32MOL   H27812120   4.706   3.042   0.075  1.0442  1.2251  1.4965
   32MOL   H27912121   4.829   3.281   0.128 -2.6959 -2.0536  0.3592
   32MOL   H28012122   4.870   3.127   0.194  0.3420 -1.8937  0.2363
   32MOL   H28112123   5.048   3.087   0.037  0.4426  0.4307 -2.3734
   32MOL   H28212124   5.051   3.262   0.027 -0.0894 -0.0571  1.0116
   32MOL   H28312125   4.996   3.151   7.463 -1.8746  1.1005 -0.6876
   32MOL   H28412126   4.884   3.259   7.542 -0.6383 -0.2925 -0.3732
   32MOL   H28512127   4.874   3.002   7.300 -1.7537  3.4857  2.9092
   32MOL   H28612128   4.728   2.928   7.247  1.5697  0.6195 -1.3386
   32MOL   C28712129   4.833   2.811   7.387 -0.2005 -0.6031 -0.2163
   32MOL   C28812130   4.707   2.744   7.453 -0.2514  1.1371 -0.3651
   32MOL   C28912131   4.580   2.729   7.364 -0.8611  0.2582  0.6238
   32MOL   C29012132   4.501   2.618   7.424  0.1969  0.2068  0.1717
   32MOL   C29112133   4.597   2.536   7.523  0.0799  0.4849  0.3175
   32MOL   C29212134   4.733   2.600   7.511 -0.7682 -0.8130  0.6795
   32MOL   C29312135   4.892   2.730   7.269  0.2588  0.3321  0.1340
   32MOL   H29412136   4.907   2.806   7.466  2.5056  2.7392 -2.3743
   32MOL   H29512137   4.676   2.790   7.547  2.0869  1.4245  0.2946
   32MOL   H29612138   4.525   2.823   7.363 -2.6702 -0.7759 -0.2804
   32MOL   H29712139   4.604   2.701   7.262 -1.4378 -2.9132  1.3157
   32MOL   H29812140   4.417   2.655   7.483 -0.0680  2.1427 -1.3704
   32MOL   H29912141   4.468   2.542   7.353 -0.4085  0.6019  0.0235
   32MOL   H30012142   4.601   2.429   7.500  2.5632  0.6621 -0.1728
   32MOL   H30112143   4.558   2.556   7.623 -0.7399  0.3441  0.0318
   32MOL   H30212144   4.799   2.545   7.444 -0.0887  0.9167 -0.0945
   32MOL   H30312145   4.791   2.605   7.603 -1.0828 -2.4402  0.9848
   32MOL   H30412146   4.926   2.802   7.194 -0.1365  1.5819  1.1188
   32MOL   H30512147   4.821   2.676   7.207 -0.4553  0.8874  0.4533
   32MOL   C30612148   5.011   2.632   7.299  0.0525  0.2513 -0.3462
   32MOL   C30712149   5.006   2.505   7.205 -0.1360 -0.4321  0.3948
   32MOL   C30812150   5.031   2.526   7.054 -0.3200  0.4477 -0.3847
   32MOL   C30912151   5.037   2.382   6.998 -0.4975 -0.3918  0.2369
   32MOL   C31012152   5.101   2.297   7.111  0.3882 -0.3705 -0.3063
   32MOL   C31112153   5.081   2.374   7.242  0.1141 -0.3288 -0.5148
   32MOL   C31212154   5.149   2.702   7.294 -0.1201  0.8015 -0.3361
   32MOL   H31312155   4.997   2.593   7.400 -0.9389  2.5071  0.4123
   32MOL   H31412156   4.902   2.471   7.208  0.0550 -1.0231  0.3578
   32MOL   H31512157   5.128   2.570   7.031 -0.8911  1.4984 -0.8183
   32MOL   H31612158   4.955   2.582   6.999 -0.2224  1.3324  0.3583
   32MOL   H31712159   4.939   2.346   6.968  0.1855 -0.9406 -1.4002
   32MOL   H31812160   5.097   2.372   6.907 -1.2699  1.3724 -0.4880
   32MOL   H31912161   5.204   2.265   7.103  0.0401 -1.6608  0.3068
   32MOL   H32012162   5.044   2.205   7.125  0.1571 -0.2366 -0.3519
   32MOL   H32112163   5.025   2.315   7.315 -0.8369  0.2264 -0.7813
   32MOL   H32212164   5.180   2.398   7.280 -0.8494  0.7665  1.3777
   32MOL   H32312165   5.145   2.759   7.201 -2.7275  1.2289  0.0005
   32MOL   H32412166   5.218   2.621   7.270 -1.3267 -0.4398  0.3038
   32MOL   C32512167   5.207   2.790   7.410 -0.8881 -0.2379 -0.0817
   32MOL   C32612168   5.333   2.860   7.355  0.0128  0.0634  0.2729
   32MOL   C32712169   5.401   2.959   7.453 -0.1331  0.8101  0.5422
   32MOL   C32812170   5.501   3.026   7.354  0.2036 -0.0146  0.7042
   32MOL   C32912171   5.420   3.049   7.218  0.8425 -0.0635  0.6786
   32MOL   C33012172   5.311   2.941   7.229 -0.0233  0.7098  0.0364
   32MOL   C33112173   5.260   2.687   7.519  0.4721 -0.3259 -0.0603
   32MOL   H33212174   5.138   2.860   7.457  0.5317  1.1425 -0.0241
   32MOL   H33312175   5.406   2.782   7.333 -0.0577 -0.3681  1.5262
   32MOL   H33412176   5.456   2.908   7.531  1.0801 -1.5519 -1.7840
   32MOL   H33512177   5.320   3.019   7.496 -1.2768 -0.1248 -0.2640
   32MOL   H33612178   5.577   2.953   7.325  0.4019  0.7664 -0.7966
   32MOL   H33712179   5.548   3.113   7.399  0.0269  0.6619 -0.4006
   32MOL   H33812180   5.489   3.049   7.135  1.7610 -1.0626  1.4308
   32MOL   H33912181   5.364   3.143   7.223  2.4904  0.9687  0.0641
   32MOL   H34012182   5.327   2.883   7.138  2.2140  1.8260 -0.3005
   32MOL   H34112183   5.210   2.982   7.240  0.1981  0.8025  1.9718
   32MOL   H34212184   5.363   2.711   7.542  0.5636  0.3381 -1.1144
   32MOL   H34312185   5.280   2.588   7.478 -0.0062 -0.3697 -0.2008
   32MOL   C34412186   5.164   2.668   7.643 -0.7833 -0.0612 -0.4530
   32MOL   C34512187   5.166   2.799   0.045  0.0403 -0.5248 -0.4777
   32MOL   C34612188   5.302   2.821   0.112  0.8355  0.5044  0.1264
   32MOL   C34712189   5.272   2.912   0.233 -0.4455 -0.7241 -0.4139
   32MOL   C34812190   5.141   2.848   0.283 -0.6086 -0.0898  0.7140
   32MOL   C34912191   5.063   2.809   0.154  0.1722  0.9465 -0.7084
   32MOL   C35012192   5.209   2.543   0.030 -0.0552  0.9274 -0.3296
   32MOL   H35112193   5.062   2.650   7.609 -0.4812 -2.0306 -0.3976
   32MOL   H35212194   5.144   2.877   7.662 -0.5594  0.6487  0.9344
   32MOL   H35312195   5.376   2.870   0.049  0.0264  1.7650  0.1375
   32MOL   H35412196   5.337   2.725   0.149 -0.0008 -0.0037 -0.3957
   32MOL   H35512197   5.352   2.923   0.305 -1.1151  0.5976  0.1367
   32MOL   H35612198   5.259   3.013   0.193 -1.4639 -0.6713  0.0332
   32MOL   H35712199   5.087   2.924   0.340 -1.8728 -0.7459  0.3975
   32MOL   H35812200   5.164   2.762   0.346 -3.0716 -0.2438  1.4522
   32MOL   H35912201   5.012   2.713   0.168 -0.4164  1.3775  0.1039
   32MOL   H36012202   4.988   2.884   0.128 -1.2947  0.7674  2.7744
   32MOL   H36112203   5.185   2.557   0.135 -1.6945  0.9669 -0.6924
   32MOL   H36212204   5.318   2.552   0.025 -0.2725  3.8385 -0.5027
   32MOL   C36312205   5.147   2.419   7.666  0.0011 -0.2019 -0.4179
   32MOL   C36412206   5.248   2.299   7.644  0.2096 -0.0882 -0.1913
   32MOL   C36512207   5.358   2.331   7.540  0.0222 -0.1768  0.0161
   32MOL   C36612208   5.419   2.198   7.502  0.0761 -0.3992 -0.5164
   32MOL   C36712209   5.298   2.105   7.504  0.4806 -0.7442  0.0178
   32MOL   C36812210   5.187   2.168   7.586 -0.0449 -0.1275  0.0011
   32MOL   C36912211   5.028   2.378   0.066 -0.6298 -0.6618  0.1729
   32MOL   H37012212   5.091   2.433   7.573 -0.8822 -0.1580  0.1073
   32MOL   H37112213   5.306   2.270   0.042 -1.3862 -0.4418  0.7808
   32MOL   H37212214   5.306   2.368   7.452 -0.2418  0.1815  0.3182
   32MOL   H37312215   5.435   2.397   7.580  1.8658 -2.8481  0.9333
   32MOL   H37412216   5.461   2.209   7.402  3.2322  2.1304  1.0179
   32MOL   H37512217   5.501   2.163   7.565  0.2712 -4.5784 -2.8864
   32MOL   H37612218   5.265   2.075   7.405 -1.9728  0.4693  0.4471
   32MOL   H37712219   5.323   2.010   7.551  0.5782 -0.7633 -0.0705
   32MOL   H37812220   5.166   2.101   7.669 -0.6534  0.0724  0.0118
   32MOL   H37912221   5.095   2.181   7.528  0.2651 -1.5399 -0.8102
   32MOL   H38012222   5.057   2.312   0.148 -1.3568 -1.2058 -0.0004
   32MOL   H38112223   4.946   2.330   0.014 -0.8570 -0.2503  0.1441
   32MOL   H38212224   4.970   2.455   0.118 -0.1774 -1.0434  1.2641
   33MOL     C112225   4.400   2.087   0.188  0.6411  0.5730 -0.1566
   33MOL     C212226   4.497   2.184   0.264  0.0252 -0.0789  0.6661
   33MOL     C312227   4.479   2.326   0.210 -0.4612 -0.7101  0.1767
   33MOL     C412228   4.627   2.381   0.168  0.2805 -0.5468 -0.2382
   33MOL     C512229   4.720   2.283   0.230  0.0260 -0.0391 -0.1445
   33MOL     C612230   4.646   2.149   0.240 -0.6434  0.2088 -0.2333
   33MOL     C712231   4.400   1.940   0.249 -0.6222  0.0811 -0.2344
   33MOL     H812232   4.304   2.136   0.173  0.0791 -0.8450 -1.3709
   33MOL     H912233   4.483   2.187   0.372  0.2381 -0.7527  0.7146
   33MOL    H1012234   4.421   2.324   0.118  0.1674 -0.0751 -0.2400
   33MOL    H1112235   4.427   2.393   0.278  0.2294 -0.0015  0.0256
   33MOL    H1212236   4.643   2.378   0.060  1.5552  1.5214 -0.1188
   33MOL    H1312237   4.638   2.485   0.196 -0.8155 -0.5270  0.1657
   33MOL    H1412238   4.811   2.266   0.171 -0.9259 -1.5578 -1.2255
   33MOL    H1512239   4.742   2.311   0.333  3.7767 -2.2950 -0.2230
   33MOL    H1612240   4.697   2.078   0.306  0.0954 -0.3485 -1.3848
   33MOL    H1712241   4.670   2.111   0.140  1.7970 -0.7191  0.6510
   33MOL    H1812242   4.490   1.883   0.226 -0.7750  0.6724 -2.4131
   33MOL    H1912243   4.397   1.953   0.357  1.2637  1.7698 -0.3636
   33MOL    H2012244   4.435   2.076   0.085 -0.7504 -0.4552 -0.5364
   33MOL    C2112245   4.278   1.856   0.197  0.9360 -0.6225 -0.5288
   33MOL    C2212246   4.145   1.905   0.253 -0.1917 -0.7864 -0.3353
   33MOL    C2312247   4.130   1.858   0.397 -0.6616 -0.1188  0.2654
   33MOL    C2412248   3.987   1.846   0.422  0.7642  0.1316 -0.5931
   33MOL    C2512249   3.914   1.852   0.288 -0.5019  0.3506 -0.7282
   33MOL    C2612250   4.023   1.834   0.191 -0.1132  0.0979  0.2106
   33MOL    C2712251   4.276   1.862   0.035  0.0660  0.3821 -0.1419
   33MOL    H2812252   4.298   1.752   0.221 -1.2465 -1.2279 -1.2014
   33MOL    H2912253   4.123   2.011   0.246  0.0204 -0.8797 -2.9000
   33MOL    H3012254   4.181   1.940   0.449 -0.7378  0.1820 -0.1345
   33MOL    H3112255   4.186   1.766   0.412  4.1467  2.4710 -0.7324
   33MOL    H3212256   3.978   1.751   0.473 -0.3254 -0.4549 -1.8388
   33MOL    H3312257   3.951   1.926   0.487  1.0049  1.7191 -2.3599
   33MOL    H3412258   3.865   1.949   0.276 -0.7408  0.3022 -0.1500
   33MOL    H3512259   3.837   1.776   0.277  2.2002 -2.7752  1.2811
   33MOL    H3612260   3.999   1.864   0.089  2.9812  1.0821 -0.2681
   33MOL    H3712261   4.048   1.728   0.181 -1.0026 -0.4737  3.5300
   33MOL    H3812262   4.188   1.812   7.686 -0.1527 -0.0171  0.8611
   33MOL    H3912263   4.244   1.964   0.013 -0.9295  0.3594  1.1642
   33MOL    C4012264   4.401   1.814   7.645 -0.8136  1.3751  0.4700
   33MOL    C4112265   4.432   1.668   7.667 -0.8543  0.7693  0.2951
   33MOL    C4212266   4.550   1.604   7.591 -0.1465  0.2941 -0.8791
   33MOL    C4312267   4.540   1.452   7.601  0.2341  0.3017 -0.0897
   33MOL    C4412268   4.391   1.420   7.626  0.3058  0.0358  0.1625
   33MOL    C4512269   4.319   1.565   7.632  0.0015  0.1883  0.2870
   33MOL    C4612270   4.368   1.862   7.497 -0.0952  0.2352 -0.5904
   33MOL    H4712271   4.484   1.875   7.681 -0.3736  1.8234 -1.2613
   33MOL    H4812272   4.465   1.651   0.080 -0.3438  0.7884  0.1349
   33MOL    H4912273   4.641   1.654   7.623  0.4410 -0.6928 -1.0134
   33MOL    H5012274   4.544   1.618   7.483  0.6467 -0.0418 -0.9719
   33MOL    H5112275   4.607   1.423   7.682  0.8289 -0.4242 -0.8366
   33MOL    H5212276   4.580   1.418   7.506  0.2876  1.3099 -0.4272
   33MOL    H5312277   4.341   1.353   7.556  2.6896  1.2475 -2.7916
   33MOL    H5412278   4.375   1.383   0.037  1.7553 -0.8284  0.0738
   33MOL    H5512279   4.288   1.608   7.537  0.9585  0.3820  0.0495
   33MOL    H5612280   4.234   1.560   0.010  0.4111  0.1537  0.8003
   33MOL    H5712281   4.417   1.797   7.425  0.5441  0.4536 -0.3571
   33MOL    H5812282   4.260   1.847   7.487 -0.6915  1.4849  3.0817
   33MOL    C5912283   4.416   2.007   7.462  0.3002  0.4904  0.1733
   33MOL    C6012284   4.574   2.014   7.448 -0.1777  0.3848  0.2560
   33MOL    C6112285   4.644   2.156   7.467  0.2385 -0.0686 -0.0429
   33MOL    C6212286   4.776   2.155   7.386  0.4285 -0.4945 -0.0764
   33MOL    C6312287   4.783   2.012   7.321  0.4065 -1.4380  0.2472
   33MOL    C6412288   4.637   1.960   7.319  0.0995  0.3214 -0.6726
   33MOL    C6512289   4.341   2.071   7.339  0.3263  0.1636  0.3130
   33MOL    H6612290   4.393   2.057   7.556 -1.6489 -0.6606  0.3496
   33MOL    H6712291   4.618   1.958   7.530 -0.8235 -0.0749  0.2914
   33MOL    H6812292   4.665   2.186   7.570  1.9844 -1.4971  0.0272
   33MOL    H6912293   4.582   2.242   7.439  0.1070  0.4740  1.8006
   33MOL    H7012294   4.863   2.177   7.448 -0.5938  0.6507  0.9737
   33MOL    H7112295   4.767   2.239   7.317  1.1401 -0.1600  0.2291
   33MOL    H7212296   4.834   1.951   7.395 -1.3266 -1.5535  1.3910
   33MOL    H7312297   4.836   2.007   7.226  0.8989  1.6944  0.2777
   33MOL    H7412298   4.580   1.991   7.231 -2.1081 -1.1235  0.1755
   33MOL    H7512299   4.638   1.851   7.316 -2.9418  0.1602  1.3942
   33MOL    H7612300   4.336   2.004   7.252 -1.2024  0.4024  0.1925
   33MOL    H7712301   4.403   2.149   7.296  0.1162 -0.1944 -0.6597
   33MOL    C7812302   4.200   2.133   7.371  0.2619  0.3104  1.0965
   33MOL    C7912303   4.180   2.216   7.501 -0.1618  0.2449  0.1512
   33MOL    C8012304   4.035   2.256   7.527 -0.4599 -0.6125 -0.1538
   33MOL    C8112305   4.040   2.395   7.592  0.5593 -0.2685 -0.3236
   33MOL    C8212306   4.189   2.424   7.620 -0.2548  0.2205 -0.8833
   33MOL    C8312307   4.263   2.348   7.516 -0.1134  0.6672  0.4611
   33MOL    C8412308   4.140   2.192   7.243 -0.5434  0.1594 -0.0466
   33MOL    H8512309   4.144   2.043   7.394 -0.5105  0.5500  0.2068
   33MOL    H8612310   4.215   2.160   7.587  0.9157  0.3893 -0.1837
   33MOL    H8712311   3.993   2.186   7.600 -0.5485  0.6522  1.0239
   33MOL    H8812312   3.964   2.232   7.448  0.6003 -1.8238 -0.7682
   33MOL    H8912313   3.979   2.404   7.682  1.6583  2.1953  0.2045
   33MOL    H9012314   3.999   2.467   7.520  0.9709 -0.1378 -0.4254
   33MOL    H9112315   4.209   2.530   7.608  1.0542 -0.1804 -2.3837
   33MOL    H9212316   4.221   2.403   0.032  1.9143  4.0283 -0.6839
   33MOL    H9312317   4.268   2.396   7.418 -1.5836  3.6536  1.7607
   33MOL    H9412318   4.363   2.337   7.558  0.0731 -0.8263 -0.3401
   33MOL    H9512319   4.220   2.260   7.212  2.6216 -2.1184  2.8040
   33MOL    H9612320   4.054   2.254   7.269 -1.5664 -0.4534 -1.8377
   33MOL    C9712321   4.093   2.096   7.134  0.2194  0.4090 -0.3346
   33MOL    C9812322   4.051   2.177   7.012  0.7201  1.3314 -0.7121
   33MOL    C9912323   4.153   2.252   6.937 -0.4937 -0.4404  0.7142
   33MOL   C10012324   4.096   2.287   6.802  0.0414  0.0639 -0.1724
   33MOL   C10112325   3.993   2.180   6.776 -0.0557 -0.3968  0.3269
   33MOL   C10212326   4.002   2.085   6.895 -0.7541  0.0173  0.0119
   33MOL   C10312327   3.974   2.009   7.184 -0.2435 -1.0318  0.7290
   33MOL   H10412328   4.169   2.029   7.094  2.1164  1.4759  1.3944
   33MOL   H10512329   3.969   2.247   7.029 -1.1741 -1.5571  2.5995
   33MOL   H10612330   4.179   2.343   6.991 -1.3287  0.6156 -0.6102
   33MOL   H10712331   4.240   2.187   6.923  2.1737  2.8599  1.2364
   33MOL   H10812332   4.173   2.286   6.725  1.8873  0.7996  1.6200
   33MOL   H10912333   4.046   2.384   6.805  0.6076  0.3748 -0.7369
   33MOL   H11012334   4.008   2.125   6.683  1.7238 -0.6929  0.7725
   33MOL   H11112335   3.893   2.223   6.774  0.8932  1.8194 -0.1250
   33MOL   H11212336   3.907   2.035   6.914 -1.2989  0.8991 -0.3379
   33MOL   H11312337   4.078   2.011   6.871 -0.2703  0.1501  1.1054
   33MOL   H11412338   3.950   2.046   7.284  2.8627  2.1647  0.3765
   33MOL   H11512339   3.881   2.030   7.130  1.2272  0.6230 -1.2259
   33MOL   C11612340   4.003   1.865   7.212 -0.1589  0.1980 -0.5996
   33MOL   C11712341   3.918   1.807   7.327 -0.0731  0.1075  0.5795
   33MOL   C11812342   3.934   1.867   7.471  0.1813 -0.2514 -0.0723
   33MOL   C11912343   3.794   1.874   7.531 -0.2135 -0.1173  0.3383
   33MOL   C12012344   3.710   1.777   7.450 -0.3491  0.2924 -0.2800
   33MOL   C12112345   3.768   1.809   7.316  0.2205 -0.0607 -0.1165
   33MOL   C12212346   4.001   1.772   7.083  0.1585 -0.6818 -0.0356
   33MOL   H12312347   4.101   1.882   7.258  0.4915  4.3778 -3.3365
   33MOL   H12412348   3.941   1.702   7.345  0.6455 -0.1160 -1.5366
   33MOL   H12512349   3.992   1.811   7.544  1.4330  0.5378 -0.4356
   33MOL   H12612350   3.978   1.967   7.474 -1.2523  0.3546  2.5091
   33MOL   H12712351   3.759   1.975   7.506 -1.3219 -0.5071  0.2944
   33MOL   H12812352   3.792   1.871   7.640  1.0041 -1.3396  0.3376
   33MOL   H12912353   3.603   1.793   7.460 -0.3020 -0.2352  1.0598
   33MOL   H13012354   3.720   1.675   7.485  0.4154 -0.5758 -2.8860
   33MOL   H13112355   3.729   1.752   7.232 -1.5180  1.8803 -0.6718
   33MOL   H13212356   3.728   1.905   7.284  1.0025  0.4974  0.5651
   33MOL   H13312357   4.058   1.818   7.002 -0.3602 -0.8090 -0.4749
   33MOL   H13412358   3.895   1.771   7.056  0.2267 -0.8707 -0.2949
   33MOL   C13512359   4.046   1.625   7.100  0.1269  0.4407 -0.1480
   33MOL   C13612360   4.187   1.614   7.160 -0.3167  0.1119 -0.5649
   33MOL   C13712361   4.315   1.644   7.081  0.6205  0.3304 -1.2464
   33MOL   C13812362   4.432   1.596   7.168 -0.4077 -0.0027 -0.1668
   33MOL   C13912363   4.371   1.487   7.257  0.1603  0.9212  0.5965
   33MOL   C14012364   4.225   1.477   7.213  0.4756  0.5423 -0.1865
   33MOL   C14112365   4.031   1.542   6.972  0.0191  0.4934 -0.5623
   33MOL   H14212366   3.990   1.595   7.189 -1.9475  1.5886 -1.0459
   33MOL   H14312367   4.184   1.669   7.254 -1.4965 -1.7838  0.5583
   33MOL   H14412368   4.302   1.585   6.991 -0.7887  0.7136 -1.3055
   33MOL   H14512369   4.329   1.747   7.047  2.6641  0.1975 -0.8743
   33MOL   H14612370   4.465   1.676   7.234 -1.4686 -0.1477  0.5652
   33MOL   H14712371   4.515   1.562   7.107  0.0702  0.7670  0.0521
   33MOL   H14812372   4.367   1.504   7.364 -0.3107  1.2406  0.5297
   33MOL   H14912373   4.422   1.391   7.241 -0.0419  1.1236 -1.4110
   33MOL   H15012374   4.219   1.397   7.139  1.8919 -0.6942  0.9963
   33MOL   H15112375   4.160   1.452   7.297 -0.2337 -1.0194 -1.1861
   33MOL   H15212376   4.091   1.451   6.971 -0.6821 -0.0111  1.8575
   33MOL   H15312377   4.068   1.606   6.891 -0.4575  0.3263 -0.9123
   33MOL   C15412378   3.893   1.501   6.923 -0.0830 -0.1711  0.6408
   33MOL   C15512379   3.871   1.556   6.780  0.6862 -0.3563  0.1416
   33MOL   C15612380   3.970   1.519   6.677  0.0947  0.2349  0.7196
   33MOL   C15712381   3.989   1.648   6.586 -0.4260 -0.3245 -0.1463
   33MOL   C15812382   3.871   1.741   6.620 -0.1175  0.0481 -0.1167
   33MOL   C15912383   3.849   1.707   6.767 -0.3316 -0.1948  0.1735
   33MOL   C16012384   3.859   1.354   6.940  0.5500 -0.0795  0.3854
   33MOL   H16112385   3.823   1.560   6.982 -0.6758 -0.5586  0.3288
   33MOL   H16212386   3.778   1.516   6.739 -0.4853  0.7959  1.6332
   33MOL   H16312387   4.066   1.490   6.720  0.8572  3.1912  1.1655
   33MOL   H16412388   3.933   1.441   6.611  3.0569 -1.8900  1.4720
   33MOL   H16512389   4.084   1.696   6.611  0.3449 -1.5452 -0.6772
   33MOL   H16612390   3.990   1.613   6.483 -2.3170  0.3225 -0.4024
   33MOL   H16712391   3.786   1.724   6.554  0.9176 -0.0195 -1.4513
   33MOL   H16812392   3.902   1.846   6.621 -0.4027  0.1443 -0.7455
   33MOL   H16912393   3.754   1.748   6.800  0.8067  1.7964  1.1444
   33MOL   H17012394   3.928   1.757   6.824  0.0759  1.5641 -1.8459
   33MOL   H17112395   3.888   1.314   7.037 -1.4506 -0.0845  0.9986
   33MOL   H17212396   3.924   1.304   6.869  0.0811  2.7605 -2.1373
   33MOL   C17312397   3.713   1.314   6.920  0.3720  0.3773 -0.5135
   33MOL   C17412398   3.634   1.324   7.056 -0.1978 -0.5181 -0.0626
   33MOL   C17512399   3.657   1.222   7.175  0.1817  0.1909 -0.1860
   33MOL   C17612400   3.522   1.202   7.243 -0.7175  0.0405 -0.6099
   33MOL   C17712401   3.430   1.313   7.184  0.0958  0.0842 -0.4320
   33MOL   C17812402   3.483   1.337   7.046  0.3404  0.3239 -0.6176
   33MOL   C17912403   3.699   1.173   6.856 -0.3398 -0.1563 -0.8320
   33MOL   H18012404   3.658   1.384   6.857 -1.7561  0.4496  1.3697
   33MOL   H18112405   3.666   1.421   7.094 -0.4783 -0.1869 -0.6672
   33MOL   H18212406   3.728   1.262   7.247  1.9229 -1.4123 -0.9806
   33MOL   H18312407   3.697   1.125   7.145 -1.2985 -0.1187 -1.2106
   33MOL   H18412408   3.478   1.108   7.208  2.3120 -1.9298  0.6829
   33MOL   H18512409   3.520   1.198   7.352 -1.8885  0.3793 -0.6107
   33MOL   H18612410   3.449   1.402   7.244 -0.8421 -0.3258  0.5011
   33MOL   H18712411   3.323   1.293   7.187 -0.1219  1.1100 -1.1320
   33MOL   H18812412   3.442   1.273   6.967  0.9324  1.4870 -1.8836
   33MOL   H18912413   3.449   1.438   7.022  3.9506  1.6115 -0.6269
   33MOL   H19012414   3.764   1.106   6.912 -0.0287  1.0537  0.2818
   33MOL   H19112415   3.608   1.116   6.875  1.1262 -1.5815  2.2960
   33MOL   C19212416   3.745   1.154   6.707  0.0848 -0.2286 -0.4173
   33MOL   C19312417   3.656   1.237   6.614  0.2335  0.3720 -0.6435
   33MOL   C19412418   3.510   1.219   6.610  0.6422  1.2986 -0.3912
   33MOL   C19512419   3.452   1.269   6.486 -0.4012 -0.2725  0.1589
   33MOL   C19612420   3.569   1.244   6.388 -0.7376  0.0571 -0.7490
   33MOL   C19712421   3.700   1.248   6.471  0.0361 -0.4560  0.8630
   33MOL   C19812422   3.747   1.006   6.660 -0.1261  0.2629 -0.5178
   33MOL   H19912423   3.840   1.205   6.698  0.2244 -0.1322  1.4484
   33MOL   H20012424   3.670   1.341   6.645  1.5118 -0.4919  1.7859
   33MOL   H20112425   3.454   1.262   6.693  1.6362 -0.1252  1.0526
   33MOL   H20212426   3.496   1.112   6.626 -1.0796  1.5585 -0.0524
   33MOL   H20312427   3.367   1.216   6.445  0.0353  1.2513 -2.8693
   33MOL   H20412428   3.436   1.376   6.501  0.5109 -0.0195 -0.5676
   33MOL   H20512429   3.564   1.312   6.304 -0.3358  0.5271 -0.3953
   33MOL   H20612430   3.563   1.143   6.348  1.9192 -0.6075  0.4085
   33MOL   H20712431   3.739   1.347   6.449 -0.5595  0.0160  1.8861
   33MOL   H20812432   3.775   1.179   6.434 -0.0041  0.2954 -0.6673
   33MOL   H20912433   3.691   0.941   6.727 -0.9040  1.5154  0.0634
   33MOL   H21012434   3.693   1.002   6.566  1.0172 -1.3097 -1.1340
   33MOL   C21112435   3.890   0.946   6.619  0.4726 -0.9847  0.2159
   33MOL   C21212436   4.003   0.967   6.728 -0.8952 -0.2530  0.4860
   33MOL   C21312437   4.006   0.868   6.848 -0.1281 -0.1709  0.0556
   33MOL   C21412438   4.146   0.889   6.906 -0.3059  0.5964 -0.3639
   33MOL   C21512439   4.240   0.927   6.794 -0.6229 -0.3535  0.6871
   33MOL   C21612440   4.149   0.988   6.680  0.4212 -0.5871  1.0286
   33MOL   C21712441   3.877   0.804   6.571  0.3752 -0.6318 -0.2792
   33MOL   H21812442   3.919   1.010   6.537 -2.8039  0.9721  0.4941
   33MOL   H21912443   3.982   1.064   6.773  4.8691  1.0642  0.7468
   33MOL   H22012444   3.925   0.888   6.918  0.3526  0.6839  0.3779
   33MOL   H22112445   3.999   0.765   6.812  1.7362 -0.7766  1.3646
   33MOL   H22212446   4.143   0.966   6.983  1.5573  2.8696 -2.5128
   33MOL   H22312447   4.172   0.794   6.954 -1.3913  0.3308 -0.2761
   33MOL   H22412448   4.284   0.838   6.747 -1.5449 -0.5443  0.1726
   33MOL   H22512449   4.312   0.996   6.836  0.2590 -0.0483 -1.2434
   33MOL   H22612450   4.174   1.094   6.674  1.1353 -0.9074 -4.0734
   33MOL   H22712451   4.172   0.943   6.583  0.5704 -0.3988  0.9765
   33MOL   H22812452   3.823   0.751   6.649  0.1724  0.9070  0.6377
   33MOL   H22912453   3.973   0.751   6.571  1.1523  0.7403  1.1642
   33MOL   C23012454   3.819   0.782   6.421  0.1574 -0.0840  0.5095
   33MOL   C23112455   3.751   0.642   6.399 -0.2079 -0.3094 -0.0889
   33MOL   C23212456   3.845   0.526   6.424  0.1907  0.7850 -0.0617
   33MOL   C23312457   3.764   0.408   6.491 -0.0753  0.3774  0.4401
   33MOL   C23412458   3.618   0.463   6.494  0.5500 -0.3819 -0.0873
   33MOL   C23512459   3.631   0.617   6.496  0.0556 -0.0836  0.5184
   33MOL   C23612460   3.922   0.819   6.316 -0.0821 -0.5778  0.0863
   33MOL   H23712461   3.745   0.860   6.407 -1.2367 -1.4785 -0.0138
   33MOL   H23812462   3.706   0.643   6.299 -0.5913  0.0388  0.0841
   33MOL   H23912463   3.896   0.502   6.330 -0.8292 -0.5765 -0.2846
   33MOL   H24012464   3.927   0.551   6.492  1.0780  1.5511 -1.3747
   33MOL   H24112465   3.779   0.312   6.442  0.8761  0.7934 -0.0853
   33MOL   H24212466   3.796   0.387   6.593 -1.6918 -2.7590  0.3863
   33MOL   H24312467   3.556   0.429   6.577  1.8299 -1.4008  0.4644
   33MOL   H24412468   3.562   0.440   6.404 -0.7732  0.3805  0.5209
   33MOL   H24512469   3.657   0.638   6.600  1.3412 -1.1921  0.4227
   33MOL   H24612470   3.541   0.667   6.459  0.9877  0.5673 -0.8901
   33MOL   H24712471   4.007   0.756   6.341  1.7773  1.2042 -1.6308
   33MOL   H24812472   3.960   0.918   6.337  0.8191 -0.7644 -0.6234
   33MOL   C24912473   3.882   0.814   6.165  0.4899  0.1332  0.7974
   33MOL   C25012474   4.011   0.819   6.077  0.1029 -0.1852  0.1193
   33MOL   C25112475   4.101   0.696   6.075  0.0941 -0.2552  0.3719
   33MOL   C25212476   4.221   0.746   6.004  0.2194 -0.2579 -0.8036
   33MOL   C25312477   4.235   0.897   6.037 -0.3083 -0.4891 -0.6705
   33MOL   C25412478   4.106   0.933   6.117 -0.0932 -0.1615  0.4844
   33MOL   C25512479   3.778   0.926   6.141  0.4619 -0.1182 -0.0135
   33MOL   H25612480   3.840   0.715   6.145 -0.0306  0.4077  0.5193
   33MOL   H25712481   3.972   0.841   5.977 -1.1977 -0.9117  0.4550
   33MOL   H25812482   4.059   0.619   6.009 -1.5237  0.4901  0.5190
   33MOL   H25912483   4.113   0.657   6.176 -1.1219 -0.5772  0.3948
   33MOL   H26012484   4.193   0.736   5.899  2.3389  0.8345 -1.4966
   33MOL   H26112485   4.307   0.682   6.025  0.5090 -0.3739 -2.2959
   33MOL   H26212486   4.250   0.960   5.948 -1.4588  1.5724  0.5450
   33MOL   H26312487   4.316   0.908   6.108 -2.2586 -0.7039  1.6356
   33MOL   H26412488   4.066   1.029   6.086  0.0305 -0.4131 -0.4977
   33MOL   H26512489   4.129   0.931   6.223 -0.8121  0.3792  0.6535
   33MOL   H26612490   3.693   0.897   6.204  0.7814 -1.2230 -0.0852
   33MOL   H26712491   3.821   1.016   6.185  0.1358 -0.1202  0.3183
   33MOL   C26812492   3.727   0.946   5.981  0.5120 -0.6118 -0.6160
   33MOL   C26912493   3.662   1.085   5.970 -0.7510 -0.3381  0.3537
   33MOL   C27012494   3.646   1.127   5.823  0.4677 -1.4280 -0.1042
   33MOL   C27112495   3.637   1.278   5.822 -0.1284 -0.2704  1.1362
   33MOL   C27212496   3.732   1.324   5.940 -0.3178  0.1618 -0.0888
   33MOL   C27312497   3.744   1.200   6.032 -0.0994 -0.0289  0.5894
   33MOL   C27412498   3.638   0.834   5.934  0.6591  0.0207  0.3126
   33MOL   H27512499   3.810   0.957   5.912  0.2084 -2.6025 -1.3166
   33MOL   H27612500   3.569   1.084   6.027 -2.4444 -2.1169 -2.2927
   33MOL   H27712501   3.726   1.086   5.761 -0.4972 -1.8087 -1.1074
   33MOL   H27812502   3.552   1.087   5.787 -0.5366  0.2481  0.5913
   33MOL   H27912503   3.647   1.325   5.724  1.9151 -0.1258  1.3868
   33MOL   H28012504   3.538   1.310   5.854  0.3830 -1.3887  3.9744
   33MOL   H28112505   3.683   1.409   5.987 -2.7397 -1.1748 -0.0830
   33MOL   H28212506   3.830   1.364   5.917  0.2511  0.4100  2.5794
   33MOL   H28312507   3.704   1.223   6.131 -3.6657  1.2091 -1.0557
   33MOL   H28412508   3.850   1.174   6.034 -0.1689 -0.4748 -0.9924
   33MOL   H28512509   3.536   0.864   5.957 -0.2696 -0.5223 -2.8137
   33MOL   H28612510   3.656   0.747   5.997  1.7876  0.3979  0.5321
   33MOL   C28712511   3.657   0.784   5.790 -0.0274  0.6338 -0.5365
   33MOL   C28812512   3.790   0.692   5.773 -0.3178 -0.1855  0.1165
   33MOL   C28912513   3.789   0.554   5.845  0.2115 -0.2477 -0.0692
   33MOL   C29012514   3.908   0.485   5.772 -0.1561  0.0367  0.2483
   33MOL   C29112515   3.954   0.566   5.652 -0.0801 -0.6957 -0.0607
   33MOL   C29212516   3.836   0.665   5.628  0.0434  0.0162 -0.5214
   33MOL   C29312517   3.528   0.708   5.745  0.0556 -0.1099 -0.2296
   33MOL   H29412518   3.676   0.872   5.728 -1.1178  0.0244 -1.7463
   33MOL   H29512519   3.874   0.747   5.815  1.8709 -2.3538 -1.2722
   33MOL   H29612520   3.788   0.550   5.954  0.0285  0.8313 -0.0285
   33MOL   H29712521   3.703   0.498   5.810 -2.0821  1.9409  1.9051
   33MOL   H29812522   3.987   0.479   5.847 -0.2797 -1.6855  0.2484
   33MOL   H29912523   3.881   0.383   5.744 -1.6007  0.0894  1.4134
   33MOL   H30012524   3.990   0.507   5.569  2.0264 -0.0815  0.3732
   33MOL   H30112525   4.044   0.622   5.680  0.3651 -1.9058  0.9517
   33MOL   H30212526   3.754   0.616   5.575 -0.6800 -0.0344  0.6116
   33MOL   H30312527   3.865   0.755   5.575 -0.5212  0.2266 -0.4844
   33MOL   H30412528   3.494   0.646   5.827  0.0472  0.7632  0.4301
   33MOL   H30512529   3.561   0.630   5.676  0.7898  0.4399 -0.5081
   33MOL   C30612530   3.419   0.797   5.673 -0.3344 -0.0482 -0.3683
   33MOL   C30712531   3.455   0.826   5.519 -0.3987  0.0538  0.2011
   33MOL   C30812532   3.442   0.700   5.430  0.7049 -0.7944 -0.5407
   33MOL   C30912533   3.381   0.753   5.297 -0.5544 -0.3184 -0.0780
   33MOL   C31012534   3.355   0.903   5.310  0.3149  0.2547  0.1519
   33MOL   C31112535   3.376   0.939   5.455  0.4985 -0.3293  0.3399
   33MOL   C31212536   3.276   0.750   5.715  0.0455 -0.0716  0.4015
   33MOL   H31312537   3.427   0.900   5.707 -2.4093  0.1541 -0.4748
   33MOL   H31412538   3.559   0.858   5.527 -0.0524 -0.3564 -2.3343
   33MOL   H31512539   3.384   0.613   5.462 -1.4601 -0.0125 -2.1778
   33MOL   H31612540   3.544   0.661   5.427  1.0292  0.0323 -0.1295
   33MOL   H31712541   3.445   0.717   5.216  1.1024 -2.1259  1.9754
   33MOL   H31812542   3.282   0.713   5.277 -0.2078 -0.3546 -1.8696
   33MOL   H31912543   3.255   0.935   5.280  0.3451  1.4043  1.2331
   33MOL   H32012544   3.430   0.958   5.253 -0.7557  0.8287 -0.7315
   33MOL   H32112545   3.431   1.032   5.465  0.5909 -0.3145 -0.2546
   33MOL   H32212546   3.281   0.956   5.506 -0.4331  1.6454 -1.9409
   33MOL   H32312547   3.272   0.654   5.665  0.8437 -0.0053  0.2005
   33MOL   H32412548   3.203   0.813   5.666  0.5528  0.6647  0.5763
   33MOL   C32512549   3.232   0.742   5.861  0.2431  0.0789  0.3156
   33MOL   C32612550   3.209   0.593   5.901  0.3207 -0.1688  0.0301
   33MOL   C32712551   3.095   0.524   5.828  0.2626 -0.9081  0.4059
   33MOL   C32812552   3.033   0.437   5.931  0.2318 -0.1132  0.4868
   33MOL   C32912553   3.051   0.494   6.069  0.5739 -0.3671  0.8510
   33MOL   C33012554   3.171   0.579   6.054 -0.3635  0.2264 -0.3645
   33MOL   C33112555   3.112   0.840   5.885 -0.5111  0.9233 -0.1265
   33MOL   H33212556   3.310   0.776   5.929  1.7775 -0.1538 -1.2621
   33MOL   H33312557   3.293   0.528   5.876  0.7150  0.7681 -1.1528
   33MOL   H33412558   3.116   0.471   5.735  1.0990 -1.1377  0.7168
   33MOL   H33512559   3.014   0.591   5.800 -0.1934 -2.3514 -1.9206
   33MOL   H33612560   3.064   0.333   5.939 -0.8846 -0.4066  1.0127
   33MOL   H33712561   2.930   0.421   5.900  0.4601  1.8920 -1.4204
   33MOL   H33812562   3.059   0.423   6.152 -0.3436 -2.2685 -0.6559
   33MOL   H33912563   2.971   0.564   6.092  2.5124  1.7468  1.3425
   33MOL   H34012564   3.263   0.534   6.093  0.9815  0.3520 -3.2320
   33MOL   H34112565   3.152   0.667   6.115 -2.9199 -0.7788  0.3395
   33MOL   H34212566   3.056   0.817   5.976  0.9512  3.2913  1.4407
   33MOL   H34312567   3.040   0.818   5.806  0.3672  0.8472 -0.9119
   33MOL   C34412568   3.133   0.996   5.892 -0.5746  0.1439  0.4900
   33MOL   C34512569   3.193   1.053   6.020  0.1901  0.2645 -0.7865
   33MOL   C34612570   3.107   1.073   6.143 -0.0182 -0.2852 -0.8728
   33MOL   C34712571   3.156   1.204   6.208 -0.6007  0.6628 -0.2083
   33MOL   C34812572   3.280   1.244   6.134  0.7401 -0.1997 -0.8102
   33MOL   C34912573   3.259   1.183   5.995  0.4101  0.3111  1.0341
   33MOL   C35012574   2.998   1.059   5.848  0.1197 -0.1685  0.2219
   33MOL   H35112575   3.209   1.018   5.816  0.6015  0.0539  1.6139
   33MOL   H35212576   3.270   0.981   6.048 -1.0103 -0.3551  0.9910
   33MOL   H35312577   3.130   0.992   6.213 -0.8126  0.1553 -0.0878
   33MOL   H35412578   3.001   1.087   6.119  0.8340  1.8298 -3.6793
   33MOL   H35512579   3.080   1.282   6.201 -0.7422  0.6426  0.9999
   33MOL   H35612580   3.170   1.192   6.316 -3.8912  2.4614  0.4903
   33MOL   H35712581   3.369   1.194   6.174  0.5869 -0.0522 -0.2868
   33MOL   H35812582   3.305   1.349   6.145  0.8900 -0.1290 -1.8222
   33MOL   H35912583   3.190   1.243   5.935  1.4280 -1.0467 -1.5834
   33MOL   H36012584   3.354   1.176   5.943 -0.2485 -1.5947  0.0466
   33MOL   H36112585   2.974   1.152   5.900 -2.8412 -0.6577 -0.1737
   33MOL   H36212586   2.917   1.000   5.888 -0.3045  0.2955  0.0543
   33MOL   C36312587   2.989   1.079   5.697 -0.0532  0.0749  0.2578
   33MOL   C36412588   2.855   1.045   5.629  0.2282 -0.0185 -0.1984
   33MOL   C36512589   2.821   0.894   5.626  0.6062 -0.4780 -0.1242
   33MOL   C36612590   2.744   0.864   5.496 -0.3129  0.1681 -0.1320
   33MOL   C36712591   2.805   0.958   5.393  0.2372  0.6851  0.0590
   33MOL   C36812592   2.854   1.081   5.478  0.2551 -0.2147 -0.4789
   33MOL   C36912593   3.037   1.229   5.668 -0.0481  0.1593 -0.0840
   33MOL   H37012594   3.062   1.020   5.642 -2.4228 -0.9771 -1.8569
   33MOL   H37112595   2.783   1.097   5.692  1.8189  2.3035 -0.2438
   33MOL   H37212596   2.912   0.834   5.636  0.7590 -0.3823 -0.9230
   33MOL   H37312597   2.750   0.870   5.705 -0.7072 -0.0699 -1.1757
   33MOL   H37412598   2.768   0.759   5.477  0.9903  0.2171  1.1969
   33MOL   H37512599   2.640   0.898   5.503 -0.0145  0.7777  1.5183
   33MOL   H37612600   2.885   0.916   5.332  1.6066  2.0399  0.9150
   33MOL   H37712601   2.726   0.994   5.327 -0.3356 -0.4130  0.1271
   33MOL   H37812602   2.774   1.152   5.458  0.4623  0.5429  1.2282
   33MOL   H37912603   2.950   1.123   5.448  1.9660 -2.2479  1.9183
   33MOL   H38012604   2.954   1.294   5.697  0.4307  0.3820  0.7971
   33MOL   H38112605   3.064   1.251   5.565  0.2710 -1.5188 -0.3628
   33MOL   H38212606   3.121   1.251   5.733 -1.1347  1.5032  0.8990
   34MOL     C112607   6.781   6.890   7.091  0.4333 -0.2764 -0.3663
   34MOL     C212608   6.837   6.780   7.011 -0.2541  0.1333  0.3287
   34MOL     C312609   6.881   6.820   6.879 -0.3953 -0.2541 -0.5914
   34MOL     C412610   6.908   6.685   6.812  0.8652  0.2290 -0.0605
   34MOL     C512611   6.816   6.584   6.866  0.2665  0.1675  0.0318
   34MOL     C612612   6.744   6.666   6.980 -0.1184 -0.1678 -0.2077
   34MOL     C712613   6.750   6.848   7.242 -0.4452  0.9151 -0.3438
   34MOL     H812614   6.840   6.981   7.089 -2.6011  1.7792 -2.4919
   34MOL     H912615   6.918   6.737   7.069 -2.1117 -0.7595  2.3135
   34MOL    H1012616   6.805   6.883   6.833  0.7650  0.9785 -0.8657
   34MOL    H1112617   6.969   6.885   6.876  0.8982 -1.8863  0.8495
   34MOL    H1212618   6.901   6.701   6.704 -3.1123  2.2096  0.3880
   34MOL    H1312619   7.011   6.660   6.837  0.4040  0.0124  1.6370
   34MOL    H1412620   6.733   6.569   6.797  0.1672  2.1387 -0.3084
   34MOL    H1512621   6.854   6.489   6.902  0.2974 -0.3824 -1.4560
   34MOL    H1612622   6.720   6.600   7.063  1.2051 -0.5069 -0.0865
   34MOL    H1712623   6.648   6.707   6.950 -0.1673  0.5071  0.8601
   34MOL    H1812624   6.696   6.753   7.248 -0.0596  0.6484 -0.9349
   34MOL    H1912625   6.837   6.810   7.295 -1.4343 -0.2225  0.4828
   34MOL    H2012626   6.691   6.936   7.050  0.4556 -0.6526 -0.8451
   34MOL    C2112627   6.678   6.964   7.317 -1.0775 -0.2894 -0.2234
   34MOL    C2212628   6.753   7.099   7.320  0.6338  0.3695  0.1596
   34MOL    C2312629   6.905   7.103   7.357 -0.3165 -0.7916  0.3540
   34MOL    C2412630   6.932   7.247   7.399  0.2939  0.0049 -0.6900
   34MOL    C2512631   6.808   7.287   7.477 -0.4467  0.0010 -0.6703
   34MOL    C2612632   6.698   7.198   7.423  0.4864 -0.2150  0.0022
   34MOL    C2712633   6.536   6.987   7.261  0.4321 -0.1164  0.3471
   34MOL    H2812634   6.675   6.927   7.419  1.3904  1.0826  0.3882
   34MOL    H2912635   6.745   7.142   7.220  1.2832  0.3802  0.1105
   34MOL    H3012636   6.954   7.081   7.262  1.0893  1.3121  0.5688
   34MOL    H3112637   6.934   7.031   7.434  0.2177  0.0676  0.9568
   34MOL    H3212638   7.023   7.265   7.456  0.3643 -1.5235 -0.2850
   34MOL    H3312639   6.938   7.304   7.306 -2.2654 -2.1775 -2.2585
   34MOL    H3412640   6.787   7.394   7.472  1.8280  0.4738 -0.6384
   34MOL    H3512641   6.831   7.267   7.582  1.6675 -1.1253 -1.3105
   34MOL    H3612642   6.622   7.264   7.382 -0.4022 -1.8927 -1.1087
   34MOL    H3712643   6.662   7.141   7.508 -0.0203  0.3342  0.1569
   34MOL    H3812644   6.491   7.076   7.305  3.5260  1.0351  1.3579
   34MOL    H3912645   6.547   7.018   7.157  1.9442 -0.1520  0.4887
   34MOL    C4012646   6.442   6.871   7.273 -0.1075  0.5340  0.9109
   34MOL    C4112647   6.414   6.844   7.423  0.7720  0.1500 -0.9233
   34MOL    C4212648   6.360   6.698   7.453 -0.0047  0.1748 -0.2378
   34MOL    C4312649   6.245   6.713   7.548 -0.2516 -0.3961 -0.7964
   34MOL    C4412650   6.253   6.858   7.607  0.7523  0.2101  0.7580
   34MOL    C4512651   6.328   6.942   7.501 -0.5432  0.4505  0.2484
   34MOL    C4612652   6.315   6.895   7.196 -0.1675  0.0909 -0.2112
   34MOL    H4712653   6.494   6.785   7.231  1.4479  1.5125  0.8031
   34MOL    H4812654   6.507   6.839   7.479  1.5237  2.7054 -1.9012
   34MOL    H4912655   6.443   6.646   7.501  1.1333  1.8616 -0.2985
   34MOL    H5012656   6.333   6.648   7.360 -0.4123  0.3331 -0.2032
   34MOL    H5112657   6.254   6.629   7.617 -1.4693  0.3193  0.2557
   34MOL    H5212658   6.153   6.691   7.494 -0.8253 -2.5580  0.9909
   34MOL    H5312659   6.154   6.894   7.633  0.8879  0.2201  1.2688
   34MOL    H5412660   6.316   6.849   0.006  0.2720 -1.0606  0.9772
   34MOL    H5512661   6.260   7.012   7.452  0.1663  1.4514  0.6730
   34MOL    H5612662   6.393   7.011   7.555  2.1606 -1.9568  0.1957
   34MOL    H5712663   6.244   6.822   7.235 -1.3451  1.6443  0.6250
   34MOL    H5812664   6.265   6.987   7.224  2.4944  1.4768  0.1115
   34MOL    C5912665   6.321   6.876   7.041 -0.4637 -0.7044  0.8475
   34MOL    C6012666   6.237   6.752   6.998 -0.2732 -0.4201 -0.7591
   34MOL    C6112667   6.093   6.765   7.017 -0.3677  0.4752 -0.5524
   34MOL    C6212668   6.038   6.634   7.088  0.0102 -0.2738  0.4831
   34MOL    C6312669   6.152   6.533   7.063  0.0683 -0.0033  0.0762
   34MOL    C6412670   6.281   6.621   7.054 -0.0195 -0.2581 -0.3144
   34MOL    C6512671   6.271   7.000   6.964  0.1627 -0.0955 -0.8174
   34MOL    H6612672   6.424   6.851   7.016 -0.0012  0.7158  1.2809
   34MOL    H6712673   6.256   6.755   6.890  0.3522  1.3195 -0.6129
   34MOL    H6812674   6.038   6.781   6.925 -1.2298 -0.7696 -0.2747
   34MOL    H6912675   6.069   6.852   7.078  0.0941  0.7160 -0.7128
   34MOL    H7012676   5.934   6.602   7.074 -0.5262  0.8854  1.6874
   34MOL    H7112677   6.039   6.649   7.196  1.6884 -0.6265  0.5270
   34MOL    H7212678   6.154   6.481   6.967  1.1013 -0.2125  0.2009
   34MOL    H7312679   6.167   6.447   7.128 -1.2211 -1.1173 -1.0810
   34MOL    H7412680   6.305   6.633   7.159 -1.7178  0.2218  0.0287
   34MOL    H7512681   6.374   6.578   7.016  0.7075  1.5500 -0.6276
   34MOL    H7612682   6.181   7.031   7.018  0.7736 -2.0822  1.4452
   34MOL    H7712683   6.236   6.963   6.868 -1.6266 -0.5190 -0.0402
   34MOL    C7812684   6.374   7.113   6.952  0.0138 -0.1609  0.2959
   34MOL    C7912685   6.499   7.079   6.859  0.0722  0.4367 -0.1021
   34MOL    C8012686   6.620   7.173   6.866  0.7485 -0.2700 -0.7670
   34MOL    C8112687   6.682   7.175   6.723  1.0364  0.0729 -0.4368
   34MOL    C8212688   6.604   7.073   6.644  0.2596 -0.4242  0.4123
   34MOL    C8312689   6.468   7.080   6.709  0.7680 -0.5271  0.0676
   34MOL    C8412690   6.299   7.244   6.909  0.4068 -0.7214  0.0104
   34MOL    H8512691   6.411   7.135   7.052 -1.8567 -0.1811  1.0037
   34MOL    H8612692   6.545   6.984   6.886  0.5981  1.4428  2.7199
   34MOL    H8712693   6.692   7.145   6.944  0.5610 -1.2750 -0.9477
   34MOL    H8812694   6.584   7.274   6.884 -2.5243 -1.1683 -1.9429
   34MOL    H8912695   6.790   7.161   6.721  0.9037 -0.9971 -0.4990
   34MOL    H9012696   6.653   7.270   6.678 -0.5971 -0.4722 -0.5825
   34MOL    H9112697   6.614   7.093   6.538  1.7790 -2.1755  0.2014
   34MOL    H9212698   6.648   6.978   6.673 -1.1310 -1.0466  0.5386
   34MOL    H9312699   6.412   7.169   6.678  1.5598 -0.3199 -0.8055
   34MOL    H9412700   6.410   6.999   6.666 -0.8329  0.0419  1.1376
   34MOL    H9512701   6.227   7.221   6.831 -0.1888 -1.8817  0.8929
   34MOL    H9612702   6.374   7.314   6.872 -1.1931  1.1888  0.3329
   34MOL    C9712703   6.233   7.332   7.021  0.3646  0.2006  0.7298
   34MOL    C9812704   6.114   7.421   6.967 -0.1851  0.0912  0.4962
   34MOL    C9912705   6.144   7.513   6.846  1.3204  0.0207  0.8823
   34MOL   C10012706   6.023   7.506   6.754 -0.3830  0.1786  0.0790
   34MOL   C10112707   5.968   7.373   6.761  0.3151 -0.0513  0.3433
   34MOL   C10212708   6.006   7.328   6.909  0.4416  0.4486  0.2926
   34MOL   C10312709   6.336   7.417   7.100 -0.1100  0.2584 -1.1853
   34MOL   H10412710   6.183   7.260   7.086 -2.4033  2.0282  0.7319
   34MOL   H10512711   6.072   7.479   7.049 -1.2386 -2.1348  1.5573
   34MOL   H10612712   6.170   7.616   6.873  2.7219 -0.0805 -0.0503
   34MOL   H10712713   6.230   7.476   6.790  0.8267  2.1175 -1.3597
   34MOL   H10812714   6.042   7.534   6.650  2.2814  2.7889  1.2088
   34MOL   H10912715   5.951   7.577   6.796  0.8824 -0.2283  3.0449
   34MOL   H11012716   6.016   7.306   6.690 -3.2677 -2.0747 -0.2839
   34MOL   H11112717   5.859   7.362   6.760  0.1207  1.7873 -2.0818
   34MOL   H11212718   5.917   7.321   6.971  1.5636 -0.7401  1.7786
   34MOL   H11312719   6.037   7.224   6.910  1.8412  0.8396 -0.6938
   34MOL   H11412720   6.413   7.348   7.134  1.5525  2.5418 -0.1835
   34MOL   H11512721   6.388   7.479   7.028  1.2067  0.6288  0.0690
   34MOL   C11612722   6.294   7.493   7.232 -0.1950  0.3594  0.1564
   34MOL   C11712723   6.205   7.403   7.327  0.1785 -0.8592  0.9811
   34MOL   C11812724   6.271   7.283   7.391 -0.8938  0.4609 -0.7251
   34MOL   C11912725   6.213   7.271   7.533 -0.0930  1.0830 -0.7411
   34MOL   C12012726   6.170   7.414   7.570  0.3434 -0.0222 -0.4888
   34MOL   C12112727   6.129   7.479   7.438  0.2431  0.3303 -0.1402
   34MOL   C12212728   6.413   7.546   7.311 -0.2995 -0.0583 -0.2612
   34MOL   H12312729   6.242   7.582   7.198  0.6054  1.5593  2.0125
   34MOL   H12412730   6.123   7.367   7.264  1.2377 -1.7650  0.0967
   34MOL   H12512731   6.234   7.198   7.333  0.5548  0.6623 -1.9849
   34MOL   H12612732   6.379   7.281   7.388 -0.8837  0.9228 -0.6781
   34MOL   H12712733   6.293   7.232   7.595  1.6047  0.9195 -2.9761
   34MOL   H12812734   6.127   7.205   7.542 -1.0916  2.6841  2.0863
   34MOL   H12912735   6.247   7.476   7.615 -0.0200 -0.2268  0.4343
   34MOL   H13012736   6.090   7.411   7.644 -0.7931 -3.1970 -1.7682
   34MOL   H13112737   6.022   7.458   7.428  0.4046 -0.7131  0.2910
   34MOL   H13212738   6.147   7.586   7.432  0.8071  0.2208 -0.4758
   34MOL   H13312739   6.494   7.473   7.308  0.2434  0.4859  1.0214
   34MOL   H13412740   6.383   7.549   7.415  2.6066  0.1202  0.6162
   34MOL   C13512741   6.474   7.674   7.258 -0.7621  0.1189  0.1020
   34MOL   C13612742   6.604   7.645   7.172 -0.3000 -0.2570 -1.2794
   34MOL   C13712743   6.725   7.590   7.252 -0.5127  0.6858 -0.2748
   34MOL   C13812744   6.847   7.632   7.171 -0.0027 -0.3817  0.0062
   34MOL   C13912745   6.804   0.044   7.067 -0.4159  0.0277  0.1350
   34MOL   C14012746   6.664   0.086   7.109 -0.1296  0.1394  0.0833
   34MOL   C14112747   6.490   0.092   7.367  0.2491 -0.3462 -0.3080
   34MOL   H14212748   6.399   0.020   7.188 -1.7968  0.1193  1.1881
   34MOL   H14312749   6.583   7.580   7.087  0.8297 -2.2124 -0.1104
   34MOL   H14412750   6.723   7.633   7.352 -2.9070  1.9853 -0.8555
   34MOL   H14512751   6.726   7.482   7.269  0.7527  0.8269  0.6507
   34MOL   H14612752   6.901   7.558   7.113  0.3171  1.1354 -1.6842
   34MOL   H14712753   6.923   7.664   7.243  1.2575  0.9686 -1.8868
   34MOL   H14812754   6.798   0.015   6.962  2.8254  1.0989 -0.4155
   34MOL   H14912755   6.870   0.131   7.069 -0.9487  0.4229  0.6121
   34MOL   H15012756   6.669   0.170   7.179 -1.0018 -0.4391  0.8495
   34MOL   H15112757   6.614   0.126   7.021  0.9437  1.0917 -0.1091
   34MOL   H15212758   6.581   0.150   7.354  0.6665 -1.2041 -1.3255
   34MOL   H15312759   6.512   0.046   7.463 -0.9572 -0.1694  0.0614
   34MOL   C15412760   6.364   0.169   7.390  0.1321 -0.1220 -0.6231
   34MOL   C15512761   6.340   0.212   7.540  0.3392  0.6319  0.3959
   34MOL   C15612762   6.460   0.267   7.619 -0.4928 -0.1410 -0.2770
   34MOL   C15712763   6.402   0.289   0.070  0.6264 -0.0031 -0.4262
   34MOL   C15812764   6.295   0.186   0.080  0.2791  0.2243  0.2668
   34MOL   C15912765   6.289   0.112   7.639  0.0016  0.0327  0.5638
   34MOL   C16012766   6.360   0.289   7.288  0.2581 -0.5051  0.0057
   34MOL   H16112767   6.275   0.112   7.362 -0.6604  0.5150  0.5582
   34MOL   H16212768   6.265   0.290   7.541 -1.2558 -0.8522  2.5903
   34MOL   H16312769   6.543   0.197   7.612  1.6712  2.3349  0.2251
   34MOL   H16412770   6.495   0.357   7.569 -0.2717 -1.0696 -1.8388
   34MOL   H16512771   6.480   0.274   0.145 -1.6068 -2.4721  1.4964
   34MOL   H16612772   6.357   0.385   0.096  0.3335 -0.2783  0.1031
   34MOL   H16712773   6.196   0.228   0.099  0.3499 -0.5500  2.4791
   34MOL   H16812774   6.312   0.111   0.158  0.7210  1.1605  1.0866
   34MOL   H16912775   6.191   0.081   7.605  0.1804  0.2002 -0.1212
   34MOL   H17012776   6.355   0.026   7.646  1.6244  1.0816 -1.3354
   34MOL   H17112777   6.401   0.254   7.193  0.7147 -1.6121  0.6017
   34MOL   H17212778   6.439   0.350   7.332 -0.3825  0.7949 -0.5895
   34MOL   C17312779   6.219   0.359   7.266  0.7447 -0.2474 -0.7137
   34MOL   C17412780   6.158   0.324   7.129  0.5985 -0.5441 -0.5014
   34MOL   C17512781   6.020   0.387   7.089 -0.3116  0.5722 -0.3286
   34MOL   C17612782   5.939   0.279   7.009 -0.4175 -0.2139 -0.1417
   34MOL   C17712783   6.029   0.150   7.014 -0.1227  0.0755  0.2930
   34MOL   C17812784   6.122   0.171   7.135 -0.4248 -0.1827  0.2805
   34MOL   C17912785   6.212   0.511   7.283  0.3435 -0.5348 -0.8079
   34MOL   H18012786   6.154   0.315   7.342  3.1978  0.3606  1.8513
   34MOL   H18112787   6.229   0.331   7.046 -1.7023 -0.4006 -2.5141
   34MOL   H18212788   6.035   0.483   7.039 -0.1508  1.0095  0.5394
   34MOL   H18312789   5.967   0.403   7.183 -0.3639 -0.9325 -0.0934
   34MOL   H18412790   5.849   0.258   7.068 -0.5818  0.6014 -0.0929
   34MOL   H18512791   5.908   0.302   6.907  0.5118 -0.6792 -0.5321
   34MOL   H18612792   6.079   0.153   6.917 -1.9816  0.0117 -0.6785
   34MOL   H18712793   5.973   0.056   7.010  1.3000 -0.9380  2.8616
   34MOL   H18812794   6.072   0.137   7.225 -0.7904  1.8609  0.8784
   34MOL   H18912795   6.214   0.115   7.118  0.5586  0.8896  1.9484
   34MOL   H19012796   6.304   0.553   7.244 -0.1234  0.3382 -0.9962
   34MOL   H19112797   6.126   0.558   7.235 -1.7000 -2.3348  0.9871
   34MOL   C19212798   6.200   0.561   7.434  0.3353 -0.3107 -1.0247
   34MOL   C19312799   6.053   0.533   7.482  0.7133  0.5854 -0.2325
   34MOL   C19412800   5.948   0.649   7.473 -0.2409  0.3299 -0.3430
   34MOL   C19512801   5.857   0.644   7.599 -0.3313  0.0577 -0.4386
   34MOL   C19612802   5.909   0.529   7.686  0.7970  0.0539  0.0165
   34MOL   C19712803   6.052   0.496   7.631 -0.2353 -0.0380 -0.5788
   34MOL   C19812804   6.234   0.711   7.449 -0.2685 -0.4027  0.4095
   34MOL   H19912805   6.264   0.500   7.498  2.0291 -0.9713 -3.2493
   34MOL   H20012806   6.016   0.441   7.437 -0.3479  1.2067 -0.6350
   34MOL   H20112807   5.889   0.644   7.382  1.5541 -1.2680 -1.4449
   34MOL   H20212808   5.988   0.750   7.474  1.8693 -0.4705 -1.5479
   34MOL   H20312809   5.847   0.737   7.654  1.3249  0.8631 -1.4529
   34MOL   H20412810   5.752   0.639   7.572 -1.1119  3.0651  1.7894
   34MOL   H20512811   5.846   0.441   7.681  2.6188 -1.1917 -3.1037
   34MOL   H20612812   5.925   0.558   0.100 -0.9682 -0.8114  0.5402
   34MOL   H20712813   6.089   0.395   7.649  0.6185  0.3214 -0.2905
   34MOL   H20812814   6.114   0.566   7.687 -0.9329  0.1493 -0.0423
   34MOL   H20912815   6.167   0.768   7.385  3.5188  1.3546 -2.1688
   34MOL   H21012816   6.211   0.742   7.550 -1.4283 -1.0669  0.3599
   34MOL   C21112817   6.377   0.760   7.432  0.2532 -0.3284  0.7955
   34MOL   C21212818   6.388   0.916   7.440 -0.1514  0.5404  0.3307
   34MOL   C21312819   6.315   0.982   7.331 -0.1907  0.3296  0.5079
   34MOL   C21412820   6.222   1.087   7.403 -0.4422  0.0443  0.6659
   34MOL   C21512821   6.297   1.122   7.535  0.7341 -0.0021  0.3266
   34MOL   C21612822   6.352   0.982   7.570 -0.0033 -0.0945 -0.0464
   34MOL   C21712823   6.460   0.693   7.541  0.0557 -0.5286 -0.1542
   34MOL   H21812824   6.410   0.724   7.335 -0.6754  1.7754 -0.3280
   34MOL   H21912825   6.491   0.948   7.432 -0.2431  0.4886 -1.2515
   34MOL   H22012826   6.387   1.037   7.271  1.8097  0.2088  2.7295
   34MOL   H22112827   6.273   0.914   7.258  0.7467  0.4902 -0.1818
   34MOL   H22212828   6.209   1.184   7.355 -1.2355 -0.4642 -0.1671
   34MOL   H22312829   6.122   1.049   7.427 -0.9571  0.7486 -0.3232
   34MOL   H22412830   6.236   1.168   7.614 -0.8038  1.0111 -1.4118
   34MOL   H22512831   6.380   1.193   7.530  0.9419 -0.2568  0.1954
   34MOL   H22612832   6.437   1.000   7.636 -0.4148  4.6027 -0.6210
   34MOL   H22712833   6.281   0.927   7.632 -1.3456  0.1849 -1.2998
   34MOL   H22812834   6.458   0.584   7.530 -0.1090 -0.6162  0.7051
   34MOL   H22912835   6.418   0.724   7.636  0.1356  0.4527 -0.4406
   34MOL   C23012836   6.612   0.727   7.541 -0.5519  0.1495 -0.4276
   34MOL   C23112837   6.665   0.703   7.400 -0.2271 -0.7106 -1.1557
   34MOL   C23212838   6.821   0.710   7.385  0.1690 -0.0868 -0.3844
   34MOL   C23312839   6.835   0.683   7.231 -0.1508 -0.0065 -0.1175
   34MOL   C23412840   6.734   0.568   7.211  0.0220 -0.0913 -0.2788
   34MOL   C23512841   6.634   0.568   7.331 -0.0145 -0.5499  0.0874
   34MOL   C23612842   6.686   0.650   7.656  0.0535  0.5178 -0.8623
   34MOL   H23712843   6.624   0.832   7.569 -1.6736 -0.0918  1.0019
   34MOL   H23812844   6.632   0.783   7.333  1.6024 -0.2476 -1.5529
   34MOL   H23912845   6.852   0.811   7.412 -0.8255 -0.4518  2.2623
   34MOL   H24012846   6.869   0.633   7.444 -3.0063 -1.4260  0.5977
   34MOL   H24112847   6.810   0.769   7.168 -0.8383  0.5560  0.9017
   34MOL   H24212848   6.937   0.649   7.215  0.9184  1.1745  3.5747
   34MOL   H24312849   6.784   0.471   7.215  0.7241  0.2829  0.3136
   34MOL   H24412850   6.693   0.581   7.111 -1.2592  1.0310  0.3741
   34MOL   H24512851   6.665   0.489   7.399  0.8891 -1.0379 -0.8925
   34MOL   H24612852   6.533   0.561   7.290 -0.7808  0.0787  1.7864
   34MOL   H24712853   6.793   0.661   7.641  0.1008 -0.7494 -1.5150
   34MOL   H24812854   6.666   0.546   7.630  2.6446  0.1927 -1.6405
   34MOL   C24912855   6.660   0.672   0.119  0.0174 -0.4825 -0.1051
   34MOL   C25012856   6.747   0.782   0.192  0.0780  0.7177 -0.3752
   34MOL   C25112857   6.715   0.927   0.148 -0.0605 -0.1136 -0.6502
   34MOL   C25212858   6.819   1.005   0.216  0.4236 -0.0840 -0.0146
   34MOL   C25312859   6.933   0.905   0.237  0.3974  0.2776 -0.3742
   34MOL   C25412860   6.892   0.763   0.191  0.3651 -0.3509  0.5502
   34MOL   C25512861   6.680   0.541   0.200 -0.3626  0.2968  0.0457
   34MOL   H25612862   6.557   0.703   0.131 -0.5261 -2.6672  1.1750
   34MOL   H25712863   6.721   0.789   0.297  0.3174  2.8889 -0.4332
   34MOL   H25812864   6.612   0.959   0.165  0.6240  2.0411 -0.4117
   34MOL   H25912865   6.734   0.929   0.041  1.4237  0.6172 -0.3843
   34MOL   H26012866   6.787   1.052   0.309 -0.1201  0.2590 -0.3696
   34MOL   H26112867   6.863   1.083   0.154  1.6247  0.6789  1.7806
   34MOL   H26212868   6.970   0.902   0.340 -0.7895  0.9213  0.0908
   34MOL   H26312869   7.023   0.930   0.181 -0.0545  3.1276  0.1017
   34MOL   H26412870   6.922   0.678   0.252 -0.3620 -0.6987  0.4292
   34MOL   H26512871   6.936   0.755   0.092 -1.9583  0.2575 -0.5703
   34MOL   H26612872   6.617   0.468   0.150 -1.0777  1.1561 -0.3301
   34MOL   H26712873   6.783   0.507   0.204 -0.7722 -0.9321  0.4433
   34MOL   C26812874   6.616   0.538   0.339  0.4496 -0.0069 -0.2464
   34MOL   C26912875   6.640   0.391   0.401  0.4800 -1.2586  0.8010
   34MOL   C27012876   6.576   0.362   0.534 -0.0282  0.3694  0.3433
   34MOL   C27112877   6.652   0.240   0.600  0.0399 -0.6977 -0.9353
   34MOL   C27212878   6.785   0.230   0.529 -0.3141  0.1467 -0.1494
   34MOL   C27312879   6.786   0.345   0.431  0.3637 -0.1572  0.1472
   34MOL   C27412880   6.464   0.589   0.350  0.2496 -0.2740 -0.0663
   34MOL   H27512881   6.668   0.614   0.398 -1.4976  3.1685 -2.5002
   34MOL   H27612882   6.605   0.314   0.333  1.3063  0.0709 -1.1562
   34MOL   H27712883   6.595   0.444   0.603  1.7073  0.4603 -0.2111
   34MOL   H27812884   6.468   0.355   0.532 -0.0211  0.5193 -0.6877
   34MOL   H27912885   6.676   0.260   0.705 -0.3899  2.0113 -1.3163
   34MOL   H28012886   6.590   0.150   0.594 -0.9150 -0.1755  0.5871
   34MOL   H28112887   6.789   0.135   0.474 -2.9007 -1.6680  2.6496
   34MOL   H28212888   6.866   0.235   0.601 -0.5263 -1.0147  0.1894
   34MOL   H28312889   6.840   0.330   0.339  2.1764 -0.0939  1.1847
   34MOL   H28412890   6.839   0.427   0.480  2.8939 -1.6762  0.0106
   34MOL   H28512891   6.407   0.517   0.409 -0.0791 -0.2589 -0.3653
   34MOL   H28612892   6.419   0.574   0.252  0.0885  3.4403 -0.6252
   34MOL   C28712893   6.433   0.729   0.406 -0.2031 -0.1357  0.5159
   34MOL   C28812894   6.290   0.787   0.362  0.5469  0.4457 -0.0371
   34MOL   C28912895   6.265   0.803   0.208 -0.3770  0.0245  0.5334
   34MOL   C29012896   6.114   0.824   0.194 -0.1808  0.2514 -1.0656
   34MOL   C29112897   6.059   0.750   0.310  0.0274 -0.5737 -0.2428
   34MOL   C29212898   6.176   0.701   0.400  0.5278  0.0583  0.1658
   34MOL   C29312899   6.442   0.729   0.559 -0.1933 -0.4076 -0.1418
   34MOL   H29412900   6.503   0.799   0.360  0.6346 -0.3642  1.4257
   34MOL   H29512901   6.284   0.884   0.411 -0.6173 -0.0895  0.9060
   34MOL   H29612902   6.327   0.881   0.164 -0.6378  1.4318  2.5746
   34MOL   H29712903   6.273   0.708   0.156 -1.7353  0.6262 -0.8498
   34MOL   H29812904   6.099   0.932   0.205  0.6203  0.3090 -0.5074
   34MOL   H29912905   6.066   0.787   0.104  0.2714 -3.0956 -0.0055
   34MOL   H30012906   5.991   0.670   0.282 -0.0975 -0.7999  0.6964
   34MOL   H30112907   5.998   0.816   0.372  2.6181  2.1910 -0.4925
   34MOL   H30212908   6.200   0.598   0.372 -0.4077  0.3828 -1.9434
   34MOL   H30312909   6.147   0.721   0.503  1.0552  1.2320  0.0920
   34MOL   H30412910   6.432   0.630   0.603  2.3935  0.1023  1.6998
   34MOL   H30512911   6.371   0.801   0.601  1.1048  0.2244  1.0211
   34MOL   C30612912   6.579   0.782   0.622  0.6245 -0.3256 -0.2438
   34MOL   C30712913   6.564   0.937   0.651  0.1709  0.0359  0.3188
   34MOL   C30812914   6.690   1.002   0.711  0.7216  0.0512 -0.0453
   34MOL   C30912915   6.720   1.133   0.638  0.4294 -0.8598 -0.2505
   34MOL   C31012916   6.595   1.165   0.565  0.7516 -0.4438  1.0729
   34MOL   C31112917   6.550   1.021   0.527  0.1175  0.3012 -0.7163
   34MOL   C31212918   6.631   0.708   0.751  0.1663 -0.4164 -0.0897
   34MOL   H31312919   6.657   0.760   0.549  0.3051  0.1911 -0.7490
   34MOL   H31412920   6.475   0.965   0.707 -0.7836 -0.2956 -1.0099
   34MOL   H31512921   6.772   0.931   0.708 -0.4853 -1.3606  0.0044
   34MOL   H31612922   6.665   1.019   0.816  2.8744  1.9938  0.1879
   34MOL   H31712923   6.755   1.221   0.693 -1.2479  1.6350 -3.0585
   34MOL   H31812924   6.797   1.122   0.561  0.1962  2.1529 -0.9531
   34MOL   H31912925   6.612   1.234   0.482 -1.6776 -0.0321  0.8909
   34MOL   H32012926   6.523   1.207   0.635 -0.1384 -2.2434  1.2653
   34MOL   H32112927   6.448   1.027   0.488 -0.1823  0.2503  0.0494
   34MOL   H32212928   6.614   0.982   0.449  0.7184  0.6038 -0.3799
   34MOL   H32312929   6.737   0.730   0.762  0.2894 -1.4596  0.9965
   34MOL   H32412930   6.618   0.601   0.733  0.4693 -0.3280 -0.8575
   34MOL   C32512931   6.558   0.728   0.886  0.5499  0.1928  0.3317
   34MOL   C32612932   6.658   0.714   1.009 -0.4346 -0.3607 -0.1431
   34MOL   C32712933   6.779   0.811   1.013 -0.2544  0.3055  0.6129
   34MOL   C32812934   6.872   0.742   1.111  0.1466 -0.6932  0.4532
   34MOL   C32912935   6.850   0.595   1.104 -0.8271  0.1667  0.6238
   34MOL   C33012936   6.732   0.577   1.012 -0.0013  0.2347 -0.0582
   34MOL   C33112937   6.439   0.633   0.895  0.1195 -0.4619  0.0710
   34MOL   H33212938   6.527   0.832   0.875 -1.9992 -0.7066 -1.3725
   34MOL   H33312939   6.605   0.729   1.103 -2.0446  1.5672 -1.3221
   34MOL   H33412940   6.742   0.907   1.050 -0.7398  0.0160  0.8714
   34MOL   H33512941   6.829   0.817   0.916  0.2432 -1.5389  0.7401
   34MOL   H33612942   6.843   0.763   1.214  1.1068  0.1612  0.5616
   34MOL   H33712943   6.974   0.780   1.104 -0.4832  1.1566  0.9614
   34MOL   H33812944   6.837   0.547   1.201 -1.0230 -0.2336  0.3975
   34MOL   H33912945   6.932   0.537   1.061  0.3042  1.8857  0.3975
   34MOL   H34012946   6.665   0.501   1.052  1.2798 -0.5406  0.6294
   34MOL   H34112947   6.760   0.549   0.910  0.7357  1.2834 -0.1540
   34MOL   H34212948   6.490   0.538   0.910  0.6606 -0.2830 -0.5941
   34MOL   H34312949   6.378   0.628   0.805 -0.9583  2.0264  0.6186
   34MOL   C34412950   6.337   0.636   1.011  0.7891 -0.5586  0.1645
   34MOL   C34512951   6.292   0.491   1.046  0.0988 -1.0047  0.3881
   34MOL   C34612952   6.217   0.420   0.936  0.7548 -0.3400 -0.4773
   34MOL   C34712953   6.164   0.296   1.008  0.3915 -0.6129  0.2027
   34MOL   C34812954   6.151   0.332   1.160 -0.5887 -0.4748 -0.2153
   34MOL   C34912955   6.213   0.469   1.173 -0.2569 -0.4968  0.4003
   34MOL   C35012956   6.217   0.730   0.978 -0.4069  0.5596  0.6126
   34MOL   H35112957   6.395   0.657   1.101  0.7120 -2.5355  0.7086
   34MOL   H35212958   6.380   0.431   1.072 -2.1184 -4.3673  0.3757
   34MOL   H35312959   6.275   0.391   0.849  0.9973 -0.8243 -0.1582
   34MOL   H35412960   6.137   0.482   0.896 -0.7466 -1.7454  0.2559
   34MOL   H35512961   6.076   0.249   0.965  0.0731  1.5584 -1.6313
   34MOL   H35612962   6.236   0.215   1.009  0.3009 -0.6945  0.0349
   34MOL   H35712963   6.219   0.262   1.209 -0.0145  1.0288  1.2049
   34MOL   H35812964   6.054   0.327   1.210  0.5113  1.2322  2.1955
   34MOL   H35912965   6.145   0.554   1.178  0.8724  0.4895 -0.6618
   34MOL   H36012966   6.272   0.485   1.264 -1.6788 -0.6028  1.3655
   34MOL   H36112967   6.145   0.731   1.059 -0.1468 -3.6880  0.9841
   34MOL   H36212968   6.164   0.691   0.892  0.5582  0.3859  0.0846
   34MOL   C36312969   6.263   0.878   0.955 -0.1553  0.9506  0.0943
   34MOL   C36412970   6.139   0.968   0.930  0.1704  0.3142 -0.1403
   34MOL   C36512971   6.040   0.914   0.823 -1.1860  0.1110  0.7458
   34MOL   C36612972   5.971   1.038   0.751 -0.0664  0.3465 -0.8329
   34MOL   C36712973   6.022   1.159   0.838  0.1435  0.1579  0.1699
   34MOL   C36812974   6.157   1.112   0.896 -0.5428  0.0606  0.2029
   34MOL   C36912975   6.353   0.929   1.070  0.4831 -0.1588  0.2217
   34MOL   H37012976   6.317   0.877   0.861  1.8970 -0.8074  1.2329
   34MOL   H37112977   6.080   0.974   1.021  1.1584  1.3152  0.4433
   34MOL   H37212978   6.085   0.850   0.748  0.5842  0.5072  1.4210
   34MOL   H37312979   5.968   0.861   0.885 -0.3525 -0.4937  1.2177
   34MOL   H37412980   6.001   1.032   0.646  2.2782 -1.3740 -0.1249
   34MOL   H37512981   5.863   1.023   0.751  0.1336 -1.5513  2.9058
   34MOL   H37612982   6.022   1.252   0.781  0.9455  1.8564  2.8488
   34MOL   H37712983   5.957   1.165   0.925  0.0827 -2.3787  0.3371
   34MOL   H37812984   6.194   1.171   0.979 -0.0526 -1.6393  1.2299
   34MOL   H37912985   6.234   1.129   0.820  0.2503 -3.4805  0.1071
   34MOL   H38012986   6.293   0.956   1.157  1.5584  1.6069  0.4480
   34MOL   H38112987   6.408   1.021   1.049 -1.8352  1.1834 -0.2240
   34MOL   H38212988   6.436   0.865   1.100 -0.9464 -2.9444 -1.5510
   35MOL     C112989   5.003   7.282   5.739  0.1813 -0.0003  0.2257
   35MOL     C212990   5.155   7.252   5.715  0.1311 -0.2269 -1.0122
   35MOL     C312991   5.209   7.144   5.821 -0.4730  0.3169  0.1361
   35MOL     C412992   5.278   7.235   5.926 -0.3232  0.0104 -0.0024
   35MOL     C512993   5.336   7.356   5.849 -0.3849  0.2460 -0.1081
   35MOL     C612994   5.258   7.368   5.719 -0.0498  0.3915 -0.1092
   35MOL     C712995   4.913   7.165   5.709  0.0087  0.1785 -0.2449
   35MOL     H812996   5.005   7.333   5.836 -1.3374 -0.3625  0.4562
   35MOL     H912997   5.174   7.204   5.618 -0.6781 -0.4974 -1.0336
   35MOL    H1012998   5.127   7.084   5.861  0.0047  0.1267  0.8530
   35MOL    H1112999   5.279   7.080   5.768 -0.9652 -0.5029  0.4580
   35MOL    H1213000   5.215   7.253   6.014 -0.3625  0.1094 -0.0501
   35MOL    H1313001   5.366   7.180   5.958  0.5728  1.1208 -0.5461
   35MOL    H1413002   5.330   7.447   5.908  0.7716  0.3135 -0.0817
   35MOL    H1513003   5.442   7.342   5.825  0.3822  2.5437  1.7852
   35MOL    H1613004   5.325   7.353   5.634 -0.1425 -0.8243  0.0209
   35MOL    H1713005   5.208   7.462   5.697  0.1312  0.6454  0.5797
   35MOL    H1813006   4.916   7.147   5.602 -2.0768 -0.6863 -0.1767
   35MOL    H1913007   4.940   7.075   5.764 -0.7999 -1.5542 -2.6613
   35MOL    H2013008   4.970   7.366   5.679 -0.1624 -0.0495  0.3436
   35MOL    C2113009   4.766   7.181   5.736 -0.0926  0.1447 -0.3188
   35MOL    C2213010   4.686   7.085   5.655  0.5127 -0.1255 -0.0575
   35MOL    C2313011   4.541   7.121   5.629  0.3716  1.0576  0.0002
   35MOL    C2413012   4.469   6.992   5.588  0.0849 -0.0959  0.3377
   35MOL    C2513013   4.564   6.880   5.629 -0.4361  0.6852  0.4690
   35MOL    C2613014   4.680   6.942   5.713 -0.1549 -0.2828  0.3724
   35MOL    C2713015   4.742   7.177   5.896 -0.3012  0.1764 -0.2297
   35MOL    H2813016   4.737   7.279   5.699  0.8300  0.5987  0.1256
   35MOL    H2913017   4.736   7.068   5.559 -0.8904 -1.4473 -0.5829
   35MOL    H3013018   4.529   7.198   5.553  0.4142 -2.9592 -4.3217
   35MOL    H3113019   4.491   7.153   5.721  0.1221  1.7863 -0.3822
   35MOL    H3213020   4.371   6.985   5.637 -0.0211 -1.0777  0.0074
   35MOL    H3313021   4.454   7.005   5.481 -0.7412  2.9294  0.7609
   35MOL    H3413022   4.618   6.833   5.547  1.2574  0.2186  1.8260
   35MOL    H3513023   4.524   6.804   5.696 -0.3528  0.0785 -0.1641
   35MOL    H3613024   4.773   6.887   5.703  0.1304  0.1108  0.8053
   35MOL    H3713025   4.656   6.927   5.818 -1.0848 -1.1537  0.0395
   35MOL    H3813026   4.642   7.135   5.908 -1.1657  1.6802 -1.7746
   35MOL    H3913027   4.795   7.091   5.934 -0.1520  0.6811  0.7154
   35MOL    C4013028   4.759   7.309   5.978 -0.3218  0.4963 -0.4670
   35MOL    C4113029   4.664   7.417   5.915  0.1847 -0.2670 -1.1419
   35MOL    C4213030   4.678   7.564   5.969  0.3440 -0.3669 -0.5603
   35MOL    C4313031   4.536   7.620   5.966 -0.3955  0.4766  0.8481
   35MOL    C4413032   4.451   7.505   6.012  0.4876 -0.0806 -0.5644
   35MOL    C4513033   4.512   7.381   5.930  0.2305  0.0653 -0.5180
   35MOL    C4613034   4.737   7.285   6.121 -0.1959  0.9129 -1.2063
   35MOL    H4713035   4.859   7.352   5.973  1.3951 -3.2632  0.6578
   35MOL    H4813036   4.679   7.439   5.810 -0.6395  0.2300 -1.1630
   35MOL    H4913037   4.744   7.622   5.905 -1.6399  0.7021 -1.7181
   35MOL    H5013038   4.717   7.570   6.070 -0.0008  1.8448 -0.5371
   35MOL    H5113039   4.504   7.623   5.862  0.3408 -1.3665  0.5476
   35MOL    H5213040   4.512   0.017   6.027 -3.7574  1.3076 -1.4776
   35MOL    H5313041   4.472   7.483   6.117  1.8394 -2.1091 -1.2389
   35MOL    H5413042   4.342   7.512   6.002  0.7206  2.3840 -1.4954
   35MOL    H5513043   4.504   7.283   5.978  1.6175 -0.8607 -2.1592
   35MOL    H5613044   4.462   7.356   5.836 -0.8962 -1.2057  0.3905
   35MOL    H5713045   4.709   7.379   6.169  0.7351  0.4985  0.1732
   35MOL    H5813046   4.649   7.221   6.123  1.6510 -1.6637 -0.7675
   35MOL    C5913047   4.868   7.239   6.193 -0.3025 -0.4372 -0.6254
   35MOL    C6013048   4.944   7.364   6.249  0.3074  0.2276 -0.0388
   35MOL    C6113049   5.083   7.330   6.303  0.4440 -0.3354  0.4729
   35MOL    C6213050   5.078   7.372   6.452  0.3534  0.1616  0.1900
   35MOL    C6313051   4.981   7.495   6.452  0.4609 -0.2100  1.0574
   35MOL    C6413052   4.870   7.456   6.344 -0.4338 -0.0251 -0.2366
   35MOL    C6513053   4.833   7.128   6.298  0.0594 -0.0102  0.0743
   35MOL    H6613054   4.932   7.197   6.115 -0.2273 -1.1146 -0.2066
   35MOL    H6713055   4.963   7.420   6.158  0.8056 -0.2069 -0.2046
   35MOL    H6813056   5.160   7.386   6.251 -1.1177  1.5278  0.1168
   35MOL    H6913057   5.094   7.222   6.286 -0.6759 -0.4007  0.1215
   35MOL    H7013058   5.170   7.392   6.507 -0.4437  1.0930  1.2132
   35MOL    H7113059   5.045   7.296   6.523  0.0835 -0.0509 -0.1604
   35MOL    H7213060   5.031   7.591   6.443  0.3370 -0.3833 -1.7424
   35MOL    H7313061   4.927   7.502   6.547 -1.5918  1.6856 -0.2031
   35MOL    H7413062   4.787   7.411   6.399  0.5749  3.2235  4.2086
   35MOL    H7513063   4.821   7.535   6.286  0.6791 -0.4760 -1.8189
   35MOL    H7613064   4.736   7.152   6.343  0.4543 -1.0285  1.5267
   35MOL    H7713065   4.898   7.127   6.386  0.3964 -1.4349 -0.1767
   35MOL    C7813066   4.802   6.989   6.234 -0.2400  0.3645  0.2284
   35MOL    C7913067   4.931   6.904   6.196 -0.2235 -0.2342 -0.1724
   35MOL    C8013068   5.019   6.857   6.310  0.4598  0.1456 -0.1075
   35MOL    C8113069   5.133   6.773   6.246 -0.2276  0.3088 -0.6418
   35MOL    C8213070   5.147   6.830   6.112  1.4052  0.4717 -0.0042
   35MOL    C8313071   5.043   6.943   6.096  0.2063 -0.7483  0.2008
   35MOL    C8413072   4.698   6.901   6.310  0.6555 -0.0711  1.1026
   35MOL    H8513073   4.762   7.014   6.136  2.3413 -0.6440 -1.1295
   35MOL    H8613074   4.882   6.812   6.163  0.9032 -0.8339 -0.1878
   35MOL    H8713075   4.964   6.796   6.382  1.7418 -0.2732  0.5336
   35MOL    H8813076   5.062   6.948   6.351 -2.9210  1.3153  0.9751
   35MOL    H8913077   5.095   6.671   6.249  0.1007  0.2115  0.4007
   35MOL    H9013078   5.227   6.777   6.302 -1.9922  3.7673  2.2941
   35MOL    H9113079   5.242   6.877   6.085  0.8052  2.0372  0.5344
   35MOL    H9213080   5.115   6.753   6.041 -0.0180 -0.2599  1.4141
   35MOL    H9313081   5.092   7.037   6.121  1.8082 -1.3816 -0.4713
   35MOL    H9413082   5.011   6.965   5.994  2.3572  1.8029  0.0286
   35MOL    H9513083   4.636   6.967   6.370 -0.0474 -1.9313  2.4864
   35MOL    H9613084   4.751   6.832   6.376 -3.1331 -1.6908  2.5816
   35MOL    C9713085   4.597   6.824   6.228 -0.8495  0.2788 -0.2169
   35MOL    C9813086   4.508   6.905   6.125 -0.2538  0.2309 -0.3083
   35MOL    C9913087   4.454   6.826   6.005 -0.4064 -0.2120  0.6327
   35MOL   C10013088   4.368   6.934   5.936 -0.1169  0.0234 -0.5032
   35MOL   C10113089   4.309   7.024   6.049 -0.1070  0.4302  0.3911
   35MOL   C10213090   4.390   6.991   6.176 -0.4583  0.4515  0.1449
   35MOL   C10313091   4.509   6.731   6.313 -0.0179 -0.3958  0.1734
   35MOL   H10413092   4.656   6.753   6.169  2.1964  0.7901  2.0482
   35MOL   H10513093   4.570   6.981   6.078 -1.5520  2.1650  1.0175
   35MOL   H10613094   4.542   6.799   5.945 -0.8281  1.2065 -0.6433
   35MOL   H10713095   4.396   6.734   6.018 -0.1194 -0.7573 -1.6885
   35MOL   H10813096   4.288   6.890   5.878  0.5811 -1.0466 -0.6712
   35MOL   H10913097   4.428   6.988   5.862 -0.8687 -0.8922 -1.7971
   35MOL   H11013098   4.207   6.993   6.068 -0.2524 -0.3929 -1.5723
   35MOL   H11113099   4.312   7.128   6.014  2.2972 -0.2225 -1.4927
   35MOL   H11213100   4.425   7.082   6.224 -0.5151 -0.1265  1.2972
   35MOL   H11313101   4.337   6.936   6.253  0.2471  0.1359  0.4056
   35MOL   H11413102   4.455   6.794   6.384 -1.7021 -1.1385 -0.4265
   35MOL   H11513103   4.429   6.694   6.250  1.3643 -2.2632 -0.5316
   35MOL   C11613104   4.574   6.619   6.391  0.8275 -0.3793  0.0768
   35MOL   C11713105   4.581   6.637   6.546  0.4262 -0.3389 -0.0845
   35MOL   C11813106   4.460   6.628   6.639 -0.0400  0.3395  0.1227
   35MOL   C11913107   4.515   6.615   6.780 -0.1176  0.7415 -0.3692
   35MOL   C12013108   4.654   6.549   6.763 -0.0291  0.4033 -0.6106
   35MOL   C12113109   4.687   6.542   6.618  0.6552  0.8839 -0.5777
   35MOL   C12213110   4.510   6.482   6.363  0.1949  0.3315 -0.1405
   35MOL   H12313111   4.673   6.604   6.348  1.1150  0.6428  0.3826
   35MOL   H12413112   4.624   6.734   6.573  0.3156 -0.4762  0.5916
   35MOL   H12513113   4.404   6.720   6.621 -0.6968 -0.6178 -2.9949
   35MOL   H12613114   4.397   6.545   6.607 -0.4675  0.5570  0.3827
   35MOL   H12713115   4.452   6.552   6.841  0.9756 -0.7750 -0.7670
   35MOL   H12813116   4.535   6.714   6.822  2.5747  0.4766 -0.8795
   35MOL   H12913117   4.652   6.451   6.811 -3.4735  0.2624 -0.9083
   35MOL   H13013118   4.741   6.607   6.793 -0.6973  1.0723  0.0596
   35MOL   H13113119   4.789   6.574   6.598  0.7276  0.9997 -0.0136
   35MOL   H13213120   4.672   6.437   6.594 -1.1298  0.8980  0.4086
   35MOL   H13313121   4.415   6.470   6.415  0.0115  0.3983 -0.4582
   35MOL   H13413122   4.564   6.403   6.414  1.3350 -0.3609 -2.3830
   35MOL   C13513123   4.493   6.436   6.206 -0.2064  0.2190 -0.1763
   35MOL   C13613124   4.377   6.331   6.198 -0.2375 -0.6563 -0.1548
   35MOL   C13713125   4.246   6.404   6.207 -0.0386  0.2010 -0.5620
   35MOL   C13813126   4.176   6.359   6.332 -0.3091  0.2922 -0.2408
   35MOL   C13913127   4.232   6.217   6.359  0.4559  0.1109 -0.4307
   35MOL   C14013128   4.370   6.224   6.299  0.1361  1.0011 -0.1718
   35MOL   C14113129   4.624   6.373   6.147  0.4252  0.4178 -0.0963
   35MOL   H14213130   4.459   6.523   6.149 -0.2146 -0.8243 -1.8103
   35MOL   H14313131   4.383   6.286   6.099  1.1701  2.1132 -1.3931
   35MOL   H14413132   4.251   6.513   6.210  0.4743  0.1898 -0.8828
   35MOL   H14513133   4.189   6.376   6.118 -0.7095 -0.5213  0.1004
   35MOL   H14613134   4.067   6.355   6.325 -0.3602  0.8527  0.2262
   35MOL   H14713135   4.208   6.411   6.422 -0.4016 -1.4626  0.8444
   35MOL   H14813136   4.180   6.139   6.304  1.4320 -1.1616  0.4060
   35MOL   H14913137   4.231   6.191   6.465 -1.3556 -0.5461 -0.5980
   35MOL   H15013138   4.437   6.214   6.384 -1.3087  1.2268  0.9991
   35MOL   H15113139   4.409   6.134   6.251  2.1269  1.9048 -0.3363
   35MOL   H15213140   4.635   6.272   6.185 -0.1356  0.2682 -0.3206
   35MOL   H15313141   4.705   6.428   6.195  1.3530 -1.4338  0.4603
   35MOL   C15413142   4.631   6.381   5.995  0.3927 -0.3210 -0.6091
   35MOL   C15513143   4.693   6.515   5.936 -0.1491 -0.1183 -0.4095
   35MOL   C15613144   4.677   6.535   5.789 -0.2885 -0.5862  0.2435
   35MOL   C15713145   4.816   6.565   5.736 -0.1331 -0.5508  0.4365
   35MOL   C15813146   4.890   6.621   5.859  0.1516  0.4074 -0.0177
   35MOL   C15913147   4.838   6.540   5.976  0.4195 -0.3149  0.4067
   35MOL   C16013148   4.696   6.253   5.944 -0.7991 -0.2741 -0.3606
   35MOL   H16113149   4.533   6.372   5.949 -1.0019  0.5706  2.0770
   35MOL   H16213150   4.639   6.598   5.982  1.5902  1.0725 -0.4902
   35MOL   H16313151   4.632   6.444   5.749 -0.3152 -1.5967  2.4451
   35MOL   H16413152   4.610   6.619   5.772  0.1545 -0.1856  0.4905
   35MOL   H16513153   4.862   6.467   5.724 -0.2648 -0.3240 -2.4422
   35MOL   H16613154   4.820   6.620   5.641  1.4287 -1.2906  0.0640
   35MOL   H16713155   4.877   6.729   5.865  1.3980  0.4526  2.8671
   35MOL   H16813156   4.997   6.601   5.847  0.9901  2.7172  3.0366
   35MOL   H16913157   4.851   6.594   6.069  0.3437  2.4667 -1.1531
   35MOL   H17013158   4.893   6.446   5.970 -1.0644 -1.1066 -1.8327
   35MOL   H17113159   4.791   6.251   5.998 -1.5408 -1.9074  0.9100
   35MOL   H17213160   4.725   6.262   5.839  1.4943  1.0678  0.3346
   35MOL   C17313161   4.613   6.122   5.974 -0.4115  0.1324  0.7778
   35MOL   C17413162   4.699   6.019   6.050  0.1766 -0.1426  0.3140
   35MOL   C17513163   4.804   5.946   5.969 -1.1549  0.0040 -0.7358
   35MOL   C17613164   4.784   5.795   6.006 -0.6561 -0.0255  0.9292
   35MOL   C17713165   4.646   5.782   6.053 -0.0896 -0.7548  0.1477
   35MOL   C17813166   4.621   5.911   6.129  0.4128  0.0517 -0.1429
   35MOL   C17913167   4.540   6.059   5.849 -0.2266  0.1871 -0.2526
   35MOL   H18013168   4.540   6.144   6.052 -0.3796  1.7591  0.3539
   35MOL   H18113169   4.758   6.076   6.122  1.1831  1.7349 -1.9298
   35MOL   H18213170   4.905   5.974   5.999 -0.9014 -0.8300 -0.8072
   35MOL   H18313171   4.803   5.961   5.861  1.0711  0.2259 -0.7401
   35MOL   H18413172   4.792   5.737   5.914 -0.1033 -1.5683  1.9386
   35MOL   H18513173   4.854   5.767   6.085  0.6481  1.1792  0.2190
   35MOL   H18613174   4.621   5.694   6.114 -2.7073  0.0770  0.3520
   35MOL   H18713175   4.588   5.789   5.961  0.9290  2.2349 -0.3037
   35MOL   H18813176   4.517   5.937   6.151 -0.4459 -1.8306 -1.8982
   35MOL   H18913177   4.657   5.892   6.230  0.6171 -0.7069 -0.3621
   35MOL   H19013178   4.590   6.103   5.763 -1.5494 -1.7208 -2.0688
   35MOL   H19113179   4.570   5.956   5.830 -2.0740 -0.0667 -2.0035
   35MOL   C19213180   4.388   6.075   5.834  0.2390 -0.2096  0.3324
   35MOL   C19313181   4.296   6.010   5.950  0.0061 -0.4382  0.6675
   35MOL   C19413182   4.277   5.859   5.922 -0.4532  0.0155  0.1303
   35MOL   C19513183   4.126   5.831   5.908  0.2063 -0.1153  0.4361
   35MOL   C19613184   4.054   5.942   5.984 -0.3894  0.0877  0.2040
   35MOL   C19713185   4.152   6.063   5.960  1.0555 -0.1089 -0.3781
   35MOL   C19813186   4.337   6.042   5.693  0.0275 -0.0952 -0.0658
   35MOL   H19913187   4.368   6.181   5.847 -0.5475 -0.1106 -1.5920
   35MOL   H20013188   4.344   6.017   6.048  1.0097 -2.3074  0.3347
   35MOL   H20113189   4.323   5.804   6.004  0.9968 -0.2561 -0.8480
   35MOL   H20213190   4.331   5.821   5.835 -0.0012 -1.2042  0.9181
   35MOL   H20313191   4.093   5.842   5.805  1.5510 -1.1648 -0.1126
   35MOL   H20413192   4.086   5.735   5.941  1.1179 -0.8013 -0.4251
   35MOL   H20513193   4.064   5.915   6.089  0.6739 -0.1949  0.0436
   35MOL   H20613194   3.952   5.973   5.961 -0.9055 -1.0247  0.9692
   35MOL   H20713195   4.148   6.133   6.043  3.0087  1.0005 -1.1957
   35MOL   H20813196   4.122   6.118   5.871  0.3536  0.3275  0.1208
   35MOL   H20913197   4.402   5.963   5.656  2.5576 -0.3306  4.5841
   35MOL   H21013198   4.237   5.999   5.696  1.2936 -3.1020  0.9643
   35MOL   C21113199   4.334   6.163   5.587 -0.4778  0.3314 -0.9531
   35MOL   C21213200   4.462   6.245   5.581  0.0253  0.4324 -0.0812
   35MOL   C21313201   4.579   6.182   5.495 -0.5213 -0.2267  0.7038
   35MOL   C21413202   4.668   6.302   5.467  0.4903  0.5483 -0.4064
   35MOL   C21513203   4.574   6.403   5.421  0.1545  0.0111 -0.0321
   35MOL   C21613204   4.445   6.384   5.508 -1.1840  0.1076 -1.0018
   35MOL   C21713205   4.278   6.104   5.450 -0.4309 -0.3542  0.1211
   35MOL   H21813206   4.261   6.236   5.622  0.2703  1.0814 -0.9457
   35MOL   H21913207   4.503   6.266   5.680  0.2518 -0.1325 -0.0526
   35MOL   H22013208   4.637   6.109   5.552  1.6833  1.2105  0.3827
   35MOL   H22113209   4.534   6.145   5.403  0.1034  1.4049 -0.2763
   35MOL   H22213210   4.715   6.341   5.557  0.5079  1.6219 -0.8762
   35MOL   H22313211   4.749   6.276   5.398  0.0647 -0.7338 -0.4361
   35MOL   H22413212   4.563   6.378   5.316  0.6466 -1.0397  0.1654
   35MOL   H22513213   4.614   6.503   5.440 -0.3533  0.1319  0.4213
   35MOL   H22613214   4.428   6.464   5.580 -0.6195 -0.0765 -0.6647
   35MOL   H22713215   4.358   6.389   5.443 -1.0925  0.0916 -1.1240
   35MOL   H22813216   4.340   6.019   5.423 -2.3288 -0.7856 -3.1404
   35MOL   H22913217   4.299   6.182   5.376 -0.1295 -1.2165 -0.7024
   35MOL   C23013218   4.126   6.080   5.441  0.6975 -0.0836  0.3484
   35MOL   C23113219   4.095   5.996   5.322 -0.7357  0.0537  0.3624
   35MOL   C23213220   4.156   5.858   5.330 -0.0275 -0.3673 -0.2905
   35MOL   C23313221   4.068   5.763   5.250  0.2075  0.3754 -0.5893
   35MOL   C23413222   3.974   5.865   5.178 -0.1016  0.1370  0.6099
   35MOL   C23513223   3.950   5.975   5.276  0.3874  0.2215  0.0299
   35MOL   C23613224   4.056   6.216   5.428  0.4051  0.2120  0.3677
   35MOL   H23713225   4.087   6.030   5.529 -1.6049  2.2375  0.6743
   35MOL   H23813226   4.143   6.044   5.237 -0.0380 -0.0323  0.6981
   35MOL   H23913227   4.259   5.862   5.293 -0.2974 -0.6277 -1.0770
   35MOL   H24013228   4.166   5.816   5.431 -0.4936 -0.8438 -0.4425
   35MOL   H24113229   4.115   5.706   5.170  0.7939 -0.2233  0.1766
   35MOL   H24213230   4.012   5.694   5.312  2.7434 -1.3625 -0.1521
   35MOL   H24313231   3.878   5.831   5.139 -0.0051 -0.0472  0.5312
   35MOL   H24413232   4.032   5.899   5.092  1.4674 -1.8271  0.8560
   35MOL   H24513233   3.886   5.934   5.354  0.9794  1.2096  1.0543
   35MOL   H24613234   3.909   6.061   5.222  1.0629  0.3317 -0.3136
   35MOL   H24713235   3.986   6.230   5.345  0.2596  2.9202  0.8993
   35MOL   H24813236   4.127   6.298   5.416  1.5450 -0.5992  1.3909
   35MOL   C24913237   3.967   6.252   5.553  0.8739 -0.4446  0.2809
   35MOL   C25013238   3.840   6.162   5.564 -0.3087  0.4449 -0.2527
   35MOL   C25113239   3.725   6.190   5.456 -0.1080  0.0207 -0.1954
   35MOL   C25213240   3.615   6.107   5.509 -0.3093  0.0763  0.0626
   35MOL   C25313241   3.626   6.128   5.667 -0.3312 -0.5721  0.0937
   35MOL   C25413242   3.772   6.160   5.692 -0.1758  0.2959 -0.4514
   35MOL   C25513243   3.930   6.404   5.543 -0.4801 -0.1986  0.5862
   35MOL   H25613244   4.030   6.243   5.641  0.7000  1.3397  0.5987
   35MOL   H25713245   3.870   6.059   5.547 -2.7020 -0.1512 -0.9532
   35MOL   H25813246   3.750   6.164   5.353 -1.0188 -2.2092  0.1253
   35MOL   H25913247   3.689   6.293   5.449  2.1342  0.7307 -1.8801
   35MOL   H26013248   3.635   6.005   5.475 -0.1229 -1.0280  3.2974
   35MOL   H26113249   3.515   6.133   5.476  0.6704  2.5745 -1.0857
   35MOL   H26213250   3.596   6.051   5.737 -1.3760  0.1136  0.4185
   35MOL   H26313251   3.551   6.204   5.691 -0.3001  0.2453 -2.2049
   35MOL   H26413252   3.821   6.085   5.753 -3.0255 -2.2196 -1.1247
   35MOL   H26513253   3.775   6.248   5.757 -1.9332  0.2232 -0.2297
   35MOL   H26613254   3.887   6.421   5.444  0.1429 -1.6721  0.0501
   35MOL   H26713255   3.852   6.435   5.611  1.0975  0.4836  2.1311
   35MOL   C26813256   4.049   6.495   5.590 -0.9024  0.1472 -0.0183
   35MOL   C26913257   4.055   6.497   5.747  0.2495  0.1233  0.1752
   35MOL   C27013258   3.992   6.615   5.829  0.8260 -0.6838  0.2407
   35MOL   C27113259   4.082   6.619   5.950 -0.2303  0.2138  0.8753
   35MOL   C27213260   4.221   6.587   5.906 -0.2748 -0.3697 -0.1411
   35MOL   C27313261   4.201   6.487   5.799 -0.2594  0.1185 -0.4479
   35MOL   C27413262   4.036   6.639   5.533 -0.5605  0.3551  0.4991
   35MOL   H27513263   4.141   6.457   5.547 -0.1741  1.4264  0.3968
   35MOL   H27613264   4.001   6.414   5.793  1.6676  0.0248  1.7167
   35MOL   H27713265   3.990   6.712   5.780  1.4839  0.1261  1.7975
   35MOL   H27813266   3.890   6.600   5.863  0.4276  0.8702 -0.2241
   35MOL   H27913267   4.087   6.718   5.995  2.1671 -0.1253  1.4127
   35MOL   H28013268   4.050   6.553   6.031  2.3780 -1.3634  0.6702
   35MOL   H28113269   4.288   6.550   5.984  2.8053  0.9148 -2.0946
   35MOL   H28213270   4.265   6.678   5.865 -1.7152 -0.1846 -1.2968
   35MOL   H28313271   4.215   6.386   5.836  1.1711 -0.5894 -2.8061
   35MOL   H28413272   4.274   6.509   5.721 -2.3464  1.0208 -2.2044
   35MOL   H28513273   4.113   6.698   5.583  1.3569 -0.1119 -1.7976
   35MOL   H28613274   3.937   6.680   5.554 -1.2201 -0.9811  0.0322
   35MOL   C28713275   4.067   6.664   5.385  0.4749 -0.5357  0.4830
   35MOL   C28813276   3.981   6.780   5.329  0.2074  0.0117  0.4823
   35MOL   C28913277   3.834   6.757   5.312  0.5568 -0.1721  0.1478
   35MOL   C29013278   3.781   6.900   5.288  0.0283  0.4493  0.2030
   35MOL   C29113279   3.877   6.986   5.368 -0.2836  0.3548  0.1754
   35MOL   C29213280   4.000   6.908   5.406 -1.1365  0.4513  0.0514
   35MOL   C29313281   4.218   6.681   5.355 -0.2656  0.0648  0.0203
   35MOL   H29413282   4.037   6.568   5.342 -0.3432 -0.0662 -0.0062
   35MOL   H29513283   4.019   6.801   5.229 -0.1676 -0.3085  0.2729
   35MOL   H29613284   3.819   6.687   5.229 -0.9494 -1.0350  1.1110
   35MOL   H29713285   3.788   6.709   5.398  2.3262 -3.9785 -0.9293
   35MOL   H29813286   3.766   6.922   5.182 -2.2924 -2.3610 -0.0987
   35MOL   H29913287   3.681   6.899   5.333  0.5789 -0.8840  1.4355
   35MOL   H30013288   3.826   7.004   5.463  2.7869  0.3936  1.8956
   35MOL   H30113289   3.904   7.079   5.317  2.8983 -1.0351 -0.8114
   35MOL   H30213290   4.009   6.896   5.514  1.4436 -0.3096 -0.2062
   35MOL   H30313291   4.090   6.960   5.373  0.0261 -1.6205 -0.1298
   35MOL   H30413292   4.268   6.599   5.405 -0.3665 -1.2956 -2.0579
   35MOL   H30513293   4.252   6.773   5.403 -0.7139  0.0466  0.3813
   35MOL   C30613294   4.260   6.657   5.200  0.2550  0.3214 -0.2458
   35MOL   C30713295   4.367   6.749   5.144 -0.0887  0.1327 -0.1639
   35MOL   C30813296   4.326   6.891   5.125  0.1137  0.4361  0.5234
   35MOL   C30913297   4.448   6.977   5.124 -0.0486 -0.2611  0.6894
   35MOL   C31013298   4.552   6.901   5.204 -0.5602 -0.4332 -0.4106
   35MOL   C31113299   4.490   6.760   5.230  0.6540  0.0771 -0.1839
   35MOL   C31213300   4.294   6.508   5.180  0.7274  0.0032 -0.4286
   35MOL   H31313301   4.175   6.678   5.135 -0.6674 -4.2002 -0.6260
   35MOL   H31413302   4.403   6.705   5.051  1.2274 -0.0041  0.4067
   35MOL   H31513303   4.260   6.923   5.206 -2.5320 -1.6231 -0.7285
   35MOL   H31613304   4.256   6.909   5.043  1.3411 -1.3211 -0.9485
   35MOL   H31713305   4.493   6.984   5.024 -1.3579 -3.2982 -0.1764
   35MOL   H31813306   4.429   7.078   5.159 -1.2037  1.4427 -4.3139
   35MOL   H31913307   4.580   6.959   5.291 -0.8842  0.1465 -0.6869
   35MOL   H32013308   4.632   6.890   5.131 -0.2100 -2.0477  0.1981
   35MOL   H32113309   4.567   6.688   5.204  0.3342 -0.1181 -0.5991
   35MOL   H32213310   4.476   6.767   5.338  2.8260  0.0786  0.1133
   35MOL   H32313311   4.228   6.451   5.244 -0.4027  1.3160 -0.4070
   35MOL   H32413312   4.394   6.491   5.219  0.3080 -0.3255  0.5134
   35MOL   C32513313   4.291   6.453   5.032  0.4021 -0.6895  0.6178
   35MOL   C32613314   4.178   6.354   5.009 -1.0670 -0.9598 -0.9985
   35MOL   C32713315   4.178   6.323   4.856  0.2245 -0.0096 -0.5232
   35MOL   C32813316   4.023   6.318   4.814  0.3094 -0.2495 -0.4577
   35MOL   C32913317   3.944   6.345   4.943  0.9418 -0.3890 -0.6689
   35MOL   C33013318   4.037   6.414   5.040 -0.1832  0.0326 -0.1291
   35MOL   C33113319   4.418   6.359   5.017  0.1886 -0.1455 -0.0779
   35MOL   H33213320   4.293   6.533   4.958 -0.5869  1.3113  2.6835
   35MOL   H33313321   4.193   6.268   5.075  4.1004  1.0525  0.6595
   35MOL   H33413322   4.230   6.229   4.839 -0.0007 -0.2845  0.2891
   35MOL   H33513323   4.234   6.393   4.793 -0.3038 -0.0918 -1.0847
   35MOL   H33613324   3.987   6.223   4.776  2.6396 -0.7759 -1.4591
   35MOL   H33713325   3.997   6.387   4.734 -0.2144  0.9132  0.6943
   35MOL   H33813326   3.916   6.249   4.986 -0.7980 -0.3116 -1.6042
   35MOL   H33913327   3.849   6.396   4.929  1.3680  0.5324 -0.2952
   35MOL   H34013328   4.011   6.402   5.145  0.5360  0.2804  0.0807
   35MOL   H34113329   4.031   6.520   5.015  1.1672 -0.7645 -4.2194
   35MOL   H34213330   4.413   6.286   4.936  0.2260  0.2304 -0.4232
   35MOL   H34313331   4.430   6.308   5.113  0.9683 -0.8143 -0.5236
   35MOL   C34413332   4.544   6.437   4.984  0.0888  0.1235 -0.4178
   35MOL   C34513333   4.542   6.498   4.838  0.0692  0.8336  0.6056
   35MOL   C34613334   4.589   6.400   4.728  0.1694 -0.8927 -0.0938
   35MOL   C34713335   4.664   6.483   4.625  0.6174  0.1505 -0.2023
   35MOL   C34813336   4.638   6.629   4.669 -0.2333 -0.5837  0.3248
   35MOL   C34913337   4.626   6.625   4.817 -0.3100 -0.2409  0.6859
   35MOL   C35013338   4.663   6.341   5.024 -0.1019  0.0217 -0.1030
   35MOL   H35113339   4.552   6.519   5.055 -2.0196  0.9629 -1.1115
   35MOL   H35213340   4.444   6.534   4.808  0.4587 -0.3088 -2.1397
   35MOL   H35313341   4.507   6.341   4.686  0.3476 -1.6072  0.5428
   35MOL   H35413342   4.664   6.330   4.766 -0.5962 -1.3207  0.6398
   35MOL   H35513343   4.761   6.434   4.619 -0.3160 -1.5747 -1.7015
   35MOL   H35613344   4.632   6.486   4.520 -3.1113  0.7547  0.8688
   35MOL   H35713345   4.539   6.655   4.630  0.7795  3.0669 -0.0548
   35MOL   H35813346   4.695   6.715   4.633  1.0187 -0.9221  1.4836
   35MOL   H35913347   4.726   6.611   4.858  0.4910 -0.5030 -1.2891
   35MOL   H36013348   4.581   6.715   4.858  0.7948  0.5805  0.1295
   35MOL   H36113349   4.656   6.254   4.959  2.6931  0.4425 -1.0045
   35MOL   H36213350   4.633   6.301   5.121  1.2030  2.0566  1.1663
   35MOL   C36313351   4.814   6.381   5.016 -0.3163 -0.6271 -0.3233
   35MOL   C36413352   4.855   6.504   5.095 -0.5739 -0.0295  0.6910
   35MOL   C36513353   4.980   6.582   5.056  0.6204  0.2538  0.4863
   35MOL   C36613354   5.026   6.657   5.179  0.3463 -0.4799 -0.4455
   35MOL   C36713355   4.950   6.609   5.301 -0.5338  0.2617 -0.0979
   35MOL   C36813356   4.866   6.495   5.251  0.4348  0.5493  0.4991
   35MOL   C36913357   4.905   6.264   5.047  0.4405  0.1515  0.5314
   35MOL   H37013358   4.830   6.403   4.911  0.8800 -2.2695 -0.4988
   35MOL   H37113359   4.777   6.577   5.073  0.7075  1.4661  1.0135
   35MOL   H37213360   5.046   6.500   5.030 -1.7489 -1.4996 -0.1236
   35MOL   H37313361   4.964   6.641   4.966  0.8744 -3.0747 -1.8242
   35MOL   H37413362   5.133   6.634   5.183  0.6738  0.8892 -1.1433
   35MOL   H37513363   5.020   6.764   5.159 -1.4475 -0.5786 -0.4505
   35MOL   H37613364   5.010   6.574   5.385 -0.5448  0.8730  0.1649
   35MOL   H37713365   4.885   6.690   5.333 -1.6016 -0.4067 -0.5692
   35MOL   H37813366   4.769   6.501   5.300 -0.1809  1.3317 -0.8016
   35MOL   H37913367   4.921   6.402   5.271  0.2565 -0.0247 -1.5511
   35MOL   H38013368   4.895   6.173   4.989 -1.1667 -0.0146  1.0590
   35MOL   H38113369   4.888   6.240   5.152 -0.1577  2.4526  0.9942
   35MOL   H38213370   5.010   6.295   5.044 -0.4579  3.4586  0.7871
   36MOL     C113371   1.545   5.903   3.596 -0.7789  0.1432  0.1980
   36MOL     C213372   1.542   5.978   3.457 -0.4526  0.2352  0.2802
   36MOL     C313373   1.533   5.881   3.342  0.9828  0.4366 -0.6249
   36MOL     C413374   1.655   5.890   3.246  0.1435 -0.6386  0.2507
   36MOL     C513375   1.751   5.956   3.338 -0.3587 -0.7494 -0.3129
   36MOL     C613376   1.682   6.048   3.434  0.8736 -0.3109 -0.2918
   36MOL     C713377   1.434   5.800   3.616 -0.2739  0.7581 -0.1358
   36MOL     H813378   1.641   5.852   3.594 -0.0845  1.4559 -0.7821
   36MOL     H913379   1.453   6.040   3.446  0.4689  1.4982 -0.1638
   36MOL    H1013380   1.494   5.780   3.359  1.3787  0.0965 -1.7060
   36MOL    H1113381   1.456   5.924   3.277  1.2645  0.0393 -1.2309
   36MOL    H1213382   1.694   5.790   3.229  0.8730 -0.1744 -0.8359
   36MOL    H1313383   1.628   5.950   3.158  2.4888 -0.0187 -0.0831
   36MOL    H1413384   1.809   5.882   3.393  1.3492 -1.4024 -2.8788
   36MOL    H1513385   1.825   6.005   3.275  0.0849 -1.0728 -0.0448
   36MOL    H1613386   1.668   6.139   3.374  1.7930  0.5299  0.7606
   36MOL    H1713387   1.735   6.066   3.527  1.2354  0.2716 -0.6044
   36MOL    H1813388   1.340   5.834   3.573 -0.1998  1.5876  0.3453
   36MOL    H1913389   1.448   5.711   3.556 -0.2158 -0.3070  1.4136
   36MOL    H2013390   1.541   5.981   3.673  1.4144  0.3038  0.1762
   36MOL    C2113391   1.423   5.757   3.765  0.6171 -0.3164 -0.8334
   36MOL    C2213392   1.271   5.751   3.813 -0.1567 -0.5317  0.1372
   36MOL    C2313393   1.201   5.882   3.787  0.1136  0.1179 -0.1760
   36MOL    C2413394   1.089   5.897   3.889 -0.5902 -0.0348 -0.5650
   36MOL    C2513395   1.153   5.832   4.013  0.1192 -0.7185  0.5011
   36MOL    C2613396   1.249   5.731   3.966 -1.1670  0.0299  0.4825
   36MOL    C2713397   1.490   5.618   3.783 -0.1032  0.0869  0.3515
   36MOL    H2813398   1.470   5.832   3.828 -1.1855  0.2106 -0.0819
   36MOL    H2913399   1.214   5.670   3.768  2.5865 -1.3626 -1.8980
   36MOL    H3013400   1.172   5.892   3.683  1.9020  3.3081 -0.4145
   36MOL    H3113401   1.270   5.965   3.803  0.3760  0.3299 -2.3691
   36MOL    H3213402   1.077   6.003   3.907  0.7674  0.0106  0.1696
   36MOL    H3313403   0.995   5.853   3.855 -1.0590  0.6027 -0.1068
   36MOL    H3413404   1.075   5.773   4.061 -0.8484  1.5143  1.7595
   36MOL    H3513405   1.198   5.897   4.087  0.3950 -2.1497  1.5960
   36MOL    H3613406   1.236   5.627   3.994  1.1876 -0.8803 -1.6625
   36MOL    H3713407   1.342   5.763   4.013 -1.5959  0.1523  1.2682
   36MOL    H3813408   1.435   5.534   3.741  1.5612 -1.9204  2.0599
   36MOL    H3913409   1.582   5.630   3.726 -0.5338  3.1701  0.2117
   36MOL    C4013410   1.554   5.566   3.918 -0.1074  0.1309  0.6136
   36MOL    C4113411   1.589   5.413   3.909  0.3472 -0.2627 -0.4777
   36MOL    C4213412   1.687   5.383   3.798 -0.2821  0.4092  0.0988
   36MOL    C4313413   1.678   5.236   3.780 -0.6767 -0.3893 -0.1280
   36MOL    C4413414   1.557   5.180   3.851  0.3217 -0.0130 -0.4352
   36MOL    C4513415   1.479   5.310   3.886 -0.2225 -0.4430 -0.1077
   36MOL    C4613416   1.676   5.659   3.964 -0.0579  0.3441  0.6477
   36MOL    H4713417   1.475   5.564   3.993  2.2821  1.8179  3.3137
   36MOL    H4813418   1.647   5.380   3.995 -0.5811  0.1060  0.2962
   36MOL    H4913419   1.788   5.421   3.810  0.8224 -2.4032  0.0491
   36MOL    H5013420   1.659   5.421   3.699  0.5530  0.8680  0.0318
   36MOL    H5113421   1.758   5.193   3.841 -1.5868  0.5034  1.7297
   36MOL    H5213422   1.696   5.207   3.677 -1.2537 -1.3903  0.0545
   36MOL    H5313423   1.492   5.101   3.813 -0.1385  0.2921 -0.2793
   36MOL    H5413424   1.605   5.139   3.940  1.2626 -0.5774 -1.1996
   36MOL    H5513425   1.412   5.329   3.803 -1.1026  0.1533  0.7236
   36MOL    H5613426   1.429   5.292   3.981  0.4852  1.4878  0.6706
   36MOL    H5713427   1.748   5.660   3.883 -0.3297  1.8621  0.4067
   36MOL    H5813428   1.634   5.759   3.954  1.2987  1.1121  2.4017
   36MOL    C5913429   1.731   5.633   4.106 -0.3778  0.1725 -0.2916
   36MOL    C6013430   1.881   5.654   4.113 -0.0078  0.4554 -0.1460
   36MOL    C6113431   1.943   5.789   4.061 -0.8775 -0.4793  0.0334
   36MOL    C6213432   2.091   5.748   4.039 -0.0320  0.2203  1.0231
   36MOL    C6313433   2.098   5.601   4.024 -0.0280 -0.3723  0.4850
   36MOL    C6413434   1.961   5.554   4.030 -0.1011 -0.2963 -0.0087
   36MOL    C6513435   1.658   5.719   4.212 -0.5493 -0.2506  0.6422
   36MOL    H6613436   1.712   5.531   4.139  0.4608  0.7226  1.9295
   36MOL    H6713437   1.908   5.632   4.217 -0.3415 -0.0503 -0.1656
   36MOL    H6813438   1.938   5.868   4.135 -1.0899 -0.3530 -0.1183
   36MOL    H6913439   1.901   5.834   3.972  2.3634  0.3624 -1.1313
   36MOL    H7013440   2.137   5.773   4.134  0.1863  0.5688  0.8275
   36MOL    H7113441   2.145   5.800   3.960  0.0058 -2.6544 -0.9291
   36MOL    H7213442   2.150   5.549   4.105  0.5480 -0.1267  0.2752
   36MOL    H7313443   2.155   5.575   3.935 -1.0416 -1.4256  0.1276
   36MOL    H7413444   1.917   5.548   3.930  0.5761  0.0927 -0.3334
   36MOL    H7513445   1.946   5.455   4.072 -3.3063  0.1774  0.0837
   36MOL    H7613446   1.566   5.757   4.167 -0.0785 -1.4873 -1.4370
   36MOL    H7713447   1.712   5.812   4.227  0.6645 -0.8449  0.0512
   36MOL    C7813448   1.612   5.639   4.340 -0.0376  0.2123  0.6425
   36MOL    C7913449   1.594   5.727   4.461  0.0025 -0.3309 -0.3283
   36MOL    C8013450   1.495   5.843   4.445 -0.8217 -0.8246 -0.2146
   36MOL    C8113451   1.538   5.942   4.551  0.2425  0.5258 -0.8142
   36MOL    C8213452   1.687   5.935   4.563 -0.3647  0.5429  0.0069
   36MOL    C8313453   1.721   5.784   4.528  0.2888  0.4994 -0.1409
   36MOL    C8413454   1.495   5.549   4.301  0.1697 -0.2905 -0.2868
   36MOL    H8513455   1.695   5.572   4.364 -0.0177 -0.0636 -0.1789
   36MOL    H8613456   1.537   5.669   4.533 -3.4075  1.5340 -1.4085
   36MOL    H8713457   1.393   5.813   4.469 -0.8225 -1.1299 -0.5986
   36MOL    H8813458   1.496   5.887   4.345 -1.3904 -0.1360  0.0759
   36MOL    H8913459   1.491   5.929   4.648  0.9909  0.3037 -0.4789
   36MOL    H9013460   1.502   6.044   4.537 -2.4517 -0.3912 -0.8010
   36MOL    H9113461   1.732   6.004   4.491 -2.2208  1.0199 -0.7413
   36MOL    H9213462   1.721   5.966   4.661  0.3223  0.5239 -0.2249
   36MOL    H9313463   1.805   5.772   4.458 -0.3298  0.6832 -0.9256
   36MOL    H9413464   1.730   5.721   4.617  0.9022 -0.3313 -0.7710
   36MOL    H9513465   1.510   5.508   4.201  0.9584  1.2625 -0.8238
   36MOL    H9613466   1.410   5.617   4.295 -0.0145 -0.4170  0.9274
   36MOL    C9713467   1.467   5.437   4.405  0.1176  0.0129  0.9217
   36MOL    C9813468   1.547   5.313   4.373  0.2026  0.5095  0.1693
   36MOL    C9913469   1.564   5.209   4.485  0.6564 -0.3709  0.0773
   36MOL   C10013470   1.609   5.087   4.407 -0.3846  0.7475  0.2848
   36MOL   C10113471   1.547   5.084   4.277  0.1053 -0.6783 -0.5427
   36MOL   C10213472   1.506   5.227   4.245 -0.1632 -1.1823 -0.7383
   36MOL   C10313473   1.313   5.411   4.405  0.2615  0.1348 -0.6337
   36MOL   H10413474   1.503   5.466   4.503  1.1129  1.7725  0.0638
   36MOL   H10513475   1.648   5.344   4.345  0.4463  0.9559  1.5095
   36MOL   H10613476   1.632   5.238   4.566  1.8012 -0.1906 -0.9308
   36MOL   H10713477   1.468   5.179   4.527  0.9016  0.4601  1.2465
   36MOL   H10813478   1.588   4.990   4.450 -0.7829  1.0070  0.6755
   36MOL   H10913479   1.717   5.105   4.400  0.1576 -2.1114  0.5581
   36MOL   H11013480   1.467   5.011   4.271 -2.0197  1.5162  0.3809
   36MOL   H11113481   1.626   5.048   4.211 -1.0923 -0.1214 -2.3132
   36MOL   H11213482   1.570   5.275   4.171 -0.2523  0.3778  0.1697
   36MOL   H11313483   1.400   5.235   4.219 -0.0191  1.0437 -0.7701
   36MOL   H11413484   1.273   5.427   4.305 -1.2220  0.3256 -0.0196
   36MOL   H11513485   1.285   5.306   4.415 -0.8124  0.4885  0.1020
   36MOL   C11613486   1.232   5.490   4.507  0.2015  0.2227  0.0746
   36MOL   C11713487   1.092   5.530   4.452 -0.0313 -0.1095 -0.4581
   36MOL   C11813488   1.064   5.609   4.329 -0.1336  0.1810  1.0619
   36MOL   C11913489   1.052   5.515   4.204 -0.2239  0.0188 -0.5596
   36MOL   C12013490   1.013   5.381   4.273 -0.1135  0.0039  0.3917
   36MOL   C12113491   1.016   5.407   4.423  0.4852 -0.4583  0.3245
   36MOL   C12213492   1.233   5.437   4.656 -0.7233  0.9899 -0.1301
   36MOL   H12313493   1.292   5.582   4.506 -1.0774  1.0560 -1.5577
   36MOL   H12413494   1.052   5.587   4.536 -0.0466 -0.8458  0.0430
   36MOL   H12513495   0.976   5.673   4.338 -1.2316 -0.7746 -2.0445
   36MOL   H12613496   1.149   5.676   4.321 -0.8629  0.9674 -0.3720
   36MOL   H12713497   1.147   5.515   4.150  0.3698 -0.6511  0.4714
   36MOL   H12813498   0.982   5.547   4.126 -1.3996  1.1455  0.9305
   36MOL   H12913499   1.080   5.298   4.250  0.5204  0.4757  0.5264
   36MOL   H13013500   0.913   5.355   4.239 -1.2538  1.1693  2.8120
   36MOL   H13113501   0.915   5.423   4.460  0.3381  0.8823 -0.6076
   36MOL   H13213502   1.073   5.328   4.472 -0.0814 -0.5121  0.9016
   36MOL   H13313503   1.310   5.359   4.656 -1.2215  0.4911 -0.5875
   36MOL   H13413504   1.141   5.380   4.674 -1.0492  1.5982  0.1291
   36MOL   C13513505   1.250   5.548   4.765 -0.0621  0.4274  0.9058
   36MOL   C13613506   1.396   5.566   4.795  0.0780 -0.1011 -0.2210
   36MOL   C13713507   1.484   5.457   4.854 -1.1787  0.1106 -0.1059
   36MOL   C13813508   1.597   5.529   4.925 -0.0367 -0.4681  0.6080
   36MOL   C13913509   1.571   5.681   4.919 -0.4003  0.1935  0.2148
   36MOL   C14013510   1.424   5.688   4.884 -0.3533  0.2815 -0.6340
   36MOL   C14113511   1.171   5.521   4.897  0.3617 -1.3168 -0.5826
   36MOL   H14213512   1.206   5.636   4.719 -1.1628  0.1263  1.3703
   36MOL   H14313513   1.452   5.577   4.702 -1.4088  0.7322 -1.0273
   36MOL   H14413514   1.424   5.397   4.922 -0.0172  0.5457  1.3464
   36MOL   H14513515   1.516   5.379   4.785 -1.9989  1.1427 -1.6899
   36MOL   H14613516   1.694   5.501   4.885  1.4182  0.6128  3.2346
   36MOL   H14713517   1.610   5.495   5.028  1.9687 -2.3037 -0.2123
   36MOL   H14813518   1.627   5.739   4.845 -1.6631  0.3668 -0.6120
   36MOL   H14913519   1.594   5.730   5.014  4.0212 -0.8006 -0.2448
   36MOL   H15013520   1.360   5.692   4.972  2.8059 -1.0274  1.8352
   36MOL   H15113521   1.399   5.787   4.846 -0.6838 -0.1657 -1.6004
   36MOL   H15213522   1.161   5.607   4.963 -0.2810 -1.1021 -0.9636
   36MOL   H15313523   1.232   5.451   4.956  0.7143  0.4344  1.1975
   36MOL   C15413524   1.026   5.464   4.893 -0.3812 -0.0555 -0.3827
   36MOL   C15513525   0.986   5.409   5.032 -0.1703 -0.5807 -0.2071
   36MOL   C15613526   1.062   5.284   5.086 -0.2321 -0.5164  0.2343
   36MOL   C15713527   0.972   5.225   5.196  0.0409 -0.4937 -0.1510
   36MOL   C15813528   0.838   5.299   5.186  0.4082 -0.8275  0.7065
   36MOL   C15913529   0.841   5.379   5.055  0.4977  0.9338 -0.5019
   36MOL   C16013530   0.917   5.555   4.820 -0.6163  0.2984 -0.0595
   36MOL   H16113531   1.016   5.371   4.837 -1.1703 -0.7646  0.9258
   36MOL   H16213532   1.008   5.488   5.105  0.3537 -0.2330 -0.7326
   36MOL   H16313533   1.065   5.210   5.006  1.7873  0.8570 -1.0078
   36MOL   H16413534   1.162   5.308   5.122  0.0609 -1.2645 -0.0760
   36MOL   H16513535   0.962   5.116   5.186 -1.6712 -0.4315  0.6576
   36MOL   H16613536   0.999   5.236   5.301 -2.0567 -2.1756  0.6099
   36MOL   H16713537   0.817   5.369   5.268 -0.7005 -0.0428 -0.2404
   36MOL   H16813538   0.765   5.219   5.199 -1.5596  0.7105 -0.6812
   36MOL   H16913539   0.767   5.458   5.062  0.8496  1.4408 -2.2912
   36MOL   H17013540   0.816   5.297   4.988 -0.3134  0.6376  0.1589
   36MOL   H17113541   0.827   5.495   4.811  0.4659 -1.3985  0.3189
   36MOL   H17213542   0.945   5.590   4.720  0.3245  2.1221  0.8148
   36MOL   C17313543   0.867   5.682   4.898  0.8526 -0.1278  0.5116
   36MOL   C17413544   0.719   5.721   4.855 -0.0055  0.4075 -0.3185
   36MOL   C17513545   0.607   5.630   4.907 -0.1927  0.3868 -0.3577
   36MOL   C17613546   0.489   5.681   4.835  0.8292  0.2775  0.0203
   36MOL   C17713547   0.544   5.717   4.692  0.2754  0.3178  0.0141
   36MOL   C17813548   0.699   5.736   4.702  0.1040 -0.1645  0.4866
   36MOL   C17913549   0.965   5.797   4.878  0.4105  0.3826  0.7450
   36MOL   H18013550   0.871   5.641   4.999  2.1991  0.2282  0.6041
   36MOL   H18113551   0.706   5.820   4.898  0.7465  0.1405  0.5394
   36MOL   H18213552   0.606   5.633   5.016 -2.3154  0.3414 -0.3509
   36MOL   H18313553   0.633   5.529   4.877  1.2540 -0.1717  2.6006
   36MOL   H18413554   0.407   5.611   4.819  0.1827  1.5710 -2.7998
   36MOL   H18513555   0.452   5.775   4.877 -0.6001  0.9333 -2.5579
   36MOL   H18613556   0.483   5.803   4.664  1.0749  0.8780 -0.0139
   36MOL   H18713557   0.519   5.637   4.622  0.7825 -0.6502  0.9307
   36MOL   H18813558   0.749   5.664   4.637 -0.7311 -0.0131 -0.3327
   36MOL   H18913559   0.728   5.837   4.672  0.1990 -0.2510  0.2859
   36MOL   H19013560   1.069   5.767   4.867  0.1590 -0.2441  0.0342
   36MOL   H19113561   0.936   5.834   4.780 -0.7199 -0.2475  0.8298
   36MOL   C19213562   0.954   5.923   4.971  0.5189  0.3430 -0.3795
   36MOL   C19313563   1.045   6.041   4.929  0.2739 -0.7950 -0.0643
   36MOL   C19413564   1.029   6.099   4.792  0.0186 -0.6496 -0.7937
   36MOL   C19513565   1.163   6.162   4.763 -0.2174  0.1517 -0.2804
   36MOL   C19613566   1.256   6.129   4.883 -0.7749 -0.3760  0.2588
   36MOL   C19713567   1.194   6.023   4.963 -0.0095  0.3528  0.5044
   36MOL   C19813568   0.959   5.889   5.121 -0.1538  0.1129  0.0489
   36MOL   H19913569   0.849   5.950   4.960  0.3349  0.2784  1.0639
   36MOL   H20013570   1.005   6.116   4.997  0.1680  0.7770 -1.8321
   36MOL   H20113571   0.942   6.162   4.772 -0.0307 -1.1709 -2.2749
   36MOL   H20213572   1.014   6.023   4.715 -0.4294 -1.0611 -0.3016
   36MOL   H20313573   1.211   6.130   4.670  0.5607  0.6736 -0.0691
   36MOL   H20413574   1.133   6.266   4.754  0.9244  0.5136 -0.0214
   36MOL   H20513575   1.256   6.220   4.942 -0.2844  0.2081 -0.6383
   36MOL   H20613576   1.357   6.101   4.852 -0.8353  1.2697 -1.4800
   36MOL   H20713577   1.223   6.031   5.068 -2.8560  1.4733  1.2343
   36MOL   H20813578   1.229   5.930   4.918  1.0332  1.0709 -0.1939
   36MOL   H20913579   1.001   5.789   5.130 -1.0029 -0.0709  2.0312
   36MOL   H21013580   1.037   5.949   5.167 -0.6004 -0.6458  1.8271
   36MOL   C21113581   0.832   5.896   5.198 -0.3311 -0.7120  0.1474
   36MOL   C21213582   0.801   5.805   5.321 -0.1437 -0.2515 -0.2915
   36MOL   C21313583   0.827   5.656   5.297 -0.6101  0.5585  0.0791
   36MOL   C21413584   0.846   5.595   5.440 -0.2884  0.3828 -0.2178
   36MOL   C21513585   0.928   5.701   5.515  0.3052  0.7494 -0.6484
   36MOL   C21613586   0.901   5.834   5.437  0.9996 -0.0128  0.1069
   36MOL   C21713587   0.809   6.046   5.223 -0.7994 -0.7953 -0.0018
   36MOL   H21813588   0.753   5.856   5.134  0.5623 -1.7226 -0.3438
   36MOL   H21913589   0.703   5.826   5.364 -0.9409 -1.8747 -1.2724
   36MOL   H22013590   0.739   5.601   5.265 -0.7642  0.0470  1.3390
   36MOL   H22113591   0.920   5.629   5.246 -0.0208  1.4309  0.6698
   36MOL   H22213592   0.750   5.564   5.480 -0.0125  0.4578  0.5044
   36MOL   H22313593   0.911   5.508   5.452  0.0397  0.8730  1.6282
   36MOL   H22413594   1.034   5.678   5.525 -0.4554 -2.2654  1.2170
   36MOL   H22513595   0.893   5.724   5.616 -0.3235 -4.2632  0.4165
   36MOL   H22613596   0.869   5.906   5.512 -1.3651 -0.2630 -0.5975
   36MOL   H22713597   0.998   5.865   5.398 -0.9154  0.8479 -4.3530
   36MOL   H22813598   0.864   6.108   5.153 -0.7923 -2.0059 -1.0788
   36MOL   H22913599   0.840   6.053   5.328  1.5825 -1.4316 -0.6546
   36MOL   C23013600   0.662   6.106   5.218  0.2234 -0.0302  0.0567
   36MOL   C23113601   0.609   6.112   5.074  0.5355 -0.2699  0.0132
   36MOL   C23213602   0.458   6.142   5.067 -0.6025 -0.4573 -0.5440
   36MOL   C23313603   0.453   6.239   4.954 -0.2864  0.0544 -0.2458
   36MOL   C23413604   0.575   6.221   4.875  0.0231 -0.5214  0.4084
   36MOL   C23513605   0.682   6.206   4.983  0.0977 -0.7224  0.3178
   36MOL   C23613606   0.656   6.232   5.298 -0.0153 -0.7419  0.0870
   36MOL   H23713607   0.603   6.029   5.267  0.3726  0.1675  0.5433
   36MOL   H23813608   0.625   6.017   5.023  1.9811  0.9415 -1.8661
   36MOL   H23913609   0.398   6.055   5.044  0.6401 -1.3276 -0.5181
   36MOL   H24013610   0.419   6.189   5.158  2.1218 -0.0100  0.4356
   36MOL   H24113611   0.360   6.233   4.898  0.2590 -0.0202 -1.1438
   36MOL   H24213612   0.442   6.337   5.000 -0.9006 -0.2896  0.3512
   36MOL   H24313613   0.592   6.309   4.812  0.1082 -0.9899 -0.2231
   36MOL   H24413614   0.564   6.127   4.821 -1.0099  0.4801 -1.1677
   36MOL   H24513615   0.706   6.303   5.026 -1.1481 -0.6631  0.8876
   36MOL   H24613616   0.773   6.167   4.938  0.4219  0.5766 -0.1930
   36MOL   H24713617   0.631   6.320   5.239  0.3100  0.8030  2.2205
   36MOL   H24813618   0.753   6.258   5.340  0.6457 -1.8021 -0.7479
   36MOL   C24913619   0.551   6.216   5.413 -0.0382 -0.3978 -0.1482
   36MOL   C25013620   0.524   6.355   5.490 -0.0909  0.5766 -0.8064
   36MOL   C25113621   0.448   6.471   5.411  0.2342 -0.0828 -0.3440
   36MOL   C25213622   0.501   6.603   5.469 -0.0005 -0.3760  0.2358
   36MOL   C25313623   0.587   6.560   5.595 -0.7350  0.4258 -0.2244
   36MOL   C25413624   0.645   6.424   5.560  0.0958 -0.3370  0.0710
   36MOL   C25513625   0.591   6.105   5.513  0.3631 -0.1275 -0.2039
   36MOL   H25613626   0.460   6.185   5.363 -1.3607  2.3974  0.4045
   36MOL   H25713627   0.454   6.338   5.572 -0.2117  1.5089 -0.7020
   36MOL   H25813628   0.342   6.468   5.433  0.6180  0.0384  1.6458
   36MOL   H25913629   0.472   6.465   5.305  0.3908  2.3688 -0.4910
   36MOL   H26013630   0.408   6.650   5.502 -0.6431 -1.4548  0.0098
   36MOL   H26113631   0.560   6.662   5.399 -1.5252 -1.1520 -1.8026
   36MOL   H26213632   0.519   6.559   5.680  0.8132  1.0240  1.0551
   36MOL   H26313633   0.660   6.637   5.620 -0.3604  0.9767 -2.8573
   36MOL   H26413634   0.662   6.380   5.658 -0.3175  1.1468  0.8215
   36MOL   H26513635   0.735   6.429   5.499 -0.2011  0.6000 -0.2945
   36MOL   H26613636   0.646   6.021   5.469  0.4239 -0.0590 -0.2604
   36MOL   H26713637   0.668   6.151   5.575 -0.5616  1.7822 -0.4532
   36MOL   C26813638   0.491   6.028   5.599 -0.2123  0.1104 -1.1973
   36MOL   C26913639   0.575   5.975   5.715 -0.1362  0.1225 -0.0584
   36MOL   C27013640   0.506   5.867   5.794  0.3436 -0.5261  0.2312
   36MOL   C27113641   0.570   5.870   5.932  0.1285 -0.1811 -0.7369
   36MOL   C27213642   0.610   6.019   5.947 -0.8475 -0.2395  0.0367
   36MOL   C27313643   0.612   6.086   5.810 -0.3089  0.0326  0.0496
   36MOL   C27413644   0.414   5.914   5.512  0.0632 -0.0101  0.0638
   36MOL   H27513645   0.416   6.098   5.636  0.6548 -0.1985  1.2741
   36MOL   H27613646   0.663   5.933   5.664 -1.2623 -0.2960 -1.7006
   36MOL   H27713647   0.400   5.891   5.808  0.4369  0.5064 -0.7460
   36MOL   H27813648   0.515   5.765   5.754 -0.4267 -0.6266  0.2907
   36MOL   H27913649   0.508   5.828   6.011 -2.5437  1.8794 -1.6638
   36MOL   H28013650   0.660   5.808   5.936 -1.3042 -2.2378  0.7095
   36MOL   H28113651   0.709   6.025   5.992 -0.1283  2.0142 -1.7642
   36MOL   H28213652   0.557   6.079   6.021 -0.2258 -1.1452  1.2401
   36MOL   H28313653   0.701   6.143   5.782  0.1990 -1.2572 -0.9693
   36MOL   H28413654   0.528   6.156   5.810 -0.6398 -0.3673 -0.0541
   36MOL   H28513655   0.389   5.827   5.573  0.1600  0.6156  1.0051
   36MOL   H28613656   0.477   5.864   5.439 -0.0185 -0.6230  0.4043
   36MOL   C28713657   0.276   5.953   5.437  0.0072 -0.3099 -0.1644
   36MOL   C28813658   0.221   5.838   5.347 -0.4311 -0.1254 -0.2074
   36MOL   C28913659   0.304   5.807   5.219 -0.0030 -0.0495 -0.0040
   36MOL   C29013660   0.275   5.669   5.167  0.5076  0.2768  0.5642
   36MOL   C29113661   0.187   5.606   5.272 -0.3906  0.1461  0.0673
   36MOL   C29213662   0.206   5.692   5.396  0.3303 -0.1668  0.6177
   36MOL   C29313663   0.168   5.989   5.550 -0.0064  0.1455 -0.1665
   36MOL   H29413664   0.290   6.043   5.377  1.7501 -0.1409  0.4554
   36MOL   H29513665   0.120   5.870   5.322 -0.8628 -0.5994  0.8963
   36MOL   H29613666   0.265   5.874   5.142  1.0561  0.1337 -0.3958
   36MOL   H29713667   0.412   5.822   5.230 -0.3881  0.8423  2.9358
   36MOL   H29813668   0.220   5.679   5.073  1.1446  1.6375  0.3204
   36MOL   H29913669   0.358   5.602   5.145 -0.4344 -1.3434  1.8308
   36MOL   H30013670   0.197   5.500   5.295 -1.4744  0.2379  0.9871
   36MOL   H30113671   0.083   5.612   5.239 -0.4476 -2.1499 -0.2937
   36MOL   H30213672   0.294   5.654   5.448  0.0900 -0.9548  0.4512
   36MOL   H30313673   0.127   5.677   5.469  0.4377  1.5276  1.1135
   36MOL   H30413674   0.204   6.041   5.639  0.6870 -0.5723 -0.0281
   36MOL   H30513675   0.132   5.893   5.587  1.6741  0.1305  1.5045
   36MOL   C30613676   0.056   6.079   5.496  0.1792 -0.1167  0.1967
   36MOL   C30713677   7.612   6.055   5.566 -0.3627 -0.1912 -1.0024
   36MOL   C30813678   7.545   5.921   5.538 -0.2772  0.2975  1.3928
   36MOL   C30913679   7.502   5.862   5.670  0.3809 -0.1341 -0.7559
   36MOL   C31013680   7.498   5.980   5.766 -0.3411  0.4228  0.2492
   36MOL   C31113681   7.615   6.071   5.719 -0.2134 -0.2554  0.5576
   36MOL   C31213682   0.093   6.233   5.490  0.1824 -0.2690  0.2398
   36MOL   H31313683   0.033   6.045   5.395  0.9579  0.8017 -0.2945
   36MOL   H31413684   7.540   6.123   5.521 -1.0585 -1.7061 -2.2104
   36MOL   H31513685   7.613   5.856   5.483 -0.6915 -0.9067  2.2898
   36MOL   H31613686   7.463   5.943   5.470  1.5143 -2.3854 -1.7873
   36MOL   H31713687   7.406   5.812   5.671  1.2955 -1.9340  0.2070
   36MOL   H31813688   7.580   5.791   5.699 -0.2089 -0.2782  0.5345
   36MOL   H31913689   7.505   5.955   5.872 -0.9186  0.3714  0.2766
   36MOL   H32013690   7.410   6.043   5.757 -0.7280 -0.1093  0.2324
   36MOL   H32113691   7.611   6.172   5.761 -2.1378 -0.3027  0.5697
   36MOL   H32213692   0.009   6.021   5.766  1.2757  2.5866  1.0650
   36MOL   H32313693   0.196   6.238   5.454 -0.4317 -0.0152 -1.5163
   36MOL   H32413694   0.105   6.278   5.589 -0.2377  2.0378 -0.7569
   36MOL   C32513695   0.017   6.315   5.393  0.6305 -1.4281  0.0945
   36MOL   C32613696   0.087   6.319   5.261 -0.5673  0.1434  0.3644
   36MOL   C32713697   0.018   6.414   5.164  0.0129 -1.0480  0.9746
   36MOL   C32813698   0.092   6.373   5.035  0.3657 -0.7132 -0.7450
   36MOL   C32913699   0.086   6.223   5.036  0.3306 -0.0874 -0.7437
   36MOL   C33013700   0.098   6.187   5.182  0.4502  0.5033  0.2901
   36MOL   C33113701   0.005   6.465   5.445  0.6246  0.3775 -0.4325
   36MOL   H33213702   7.607   6.270   5.386 -0.1593  0.1829  0.8177
   36MOL   H33313703   0.188   6.360   5.264 -1.6337  2.7888  3.5799
   36MOL   H33413704   0.022   6.522   5.181  0.9542 -1.0502  0.8036
   36MOL   H33513705   7.600   6.397   5.155 -0.5311  2.1339  0.9625
   36MOL   H33613706   0.195   6.405   5.026 -0.1717  0.6096 -2.4254
   36MOL   H33713707   0.052   6.419   4.944 -0.7905  0.8669  0.5439
   36MOL   H33813708   0.167   6.181   4.976  2.2183  1.0389  0.9740
   36MOL   H33913709   7.675   6.199   5.000  0.2690  1.0746 -1.3743
   36MOL   H34013710   0.188   6.130   5.205 -1.7234 -2.6655  1.1780
   36MOL   H34113711   0.009   6.127   5.200 -0.5210  1.1152 -2.2635
   36MOL   H34213712   7.646   6.531   5.373  1.6751  2.0247  0.3154
   36MOL   H34313713   0.108   6.499   5.462  0.0784  1.2999  1.1547
   36MOL   C34413714   7.613   6.481   5.575 -0.5516  0.3518 -0.2699
   36MOL   C34513715   7.464   6.443   5.575 -0.1751 -0.0392 -0.2216
   36MOL   C34613716   7.379   6.547   5.504  0.1333 -0.0507  0.0349
   36MOL   C34713717   7.236   6.542   5.562  0.4808 -0.2051  0.6598
   36MOL   C34813718   7.248   6.445   5.674  0.2688  0.5522  0.3037
   36MOL   C34913719   7.396   6.427   5.714  0.4252 -0.1796  0.1900
   36MOL   C35013720   7.657   6.612   5.649 -0.5478 -0.4386  0.3997
   36MOL   H35113721   7.642   6.404   5.647  0.5236  1.5941  0.6712
   36MOL   H35213722   7.453   6.347   5.524  1.5465  0.6898 -2.0585
   36MOL   H35313723   7.380   6.543   5.395  1.3037  0.5466  0.0228
   36MOL   H35413724   7.425   6.640   5.538 -2.2696  0.2716  2.5763
   36MOL   H35513725   7.224   6.636   5.615 -1.3493 -0.5030  0.7995
   36MOL   H35613726   7.158   6.517   5.490 -0.3330  0.8642  1.1539
   36MOL   H35713727   7.203   6.357   5.630 -5.1349  2.5549  1.4721
   36MOL   H35813728   7.185   6.466   5.760  1.6902 -1.6434  1.9462
   36MOL   H35913729   7.413   6.510   5.782  1.1281 -1.2197  1.3035
   36MOL   H36013730   7.417   6.342   5.778  1.1394 -1.2350 -1.3993
   36MOL   H36113731   7.582   6.654   5.716  0.1015 -2.8880  2.7280
   36MOL   H36213732   7.675   6.691   5.576  0.6430  1.5900  2.8090
   36MOL   C36313733   0.111   6.624   5.716 -0.2185 -0.5330 -0.7224
   36MOL   C36413734   0.129   6.762   5.787 -0.6546  0.1927 -0.5086
   36MOL   C36513735   0.144   6.884   5.689 -1.1260 -0.3985  0.0486
   36MOL   C36613736   0.198   7.000   5.776 -0.6799 -0.9034 -0.0285
   36MOL   C36713737   0.278   6.936   5.887  0.7661  0.5018  0.1063
   36MOL   C36813738   0.268   6.791   5.856  0.2624  0.2575 -0.0117
   36MOL   C36913739   0.138   6.522   5.821 -0.0806  0.3891  0.2691
   36MOL   H37013740   0.193   6.616   5.645 -1.2005  0.2903 -1.9659
   36MOL   H37113741   0.045   6.784   5.853 -2.5972  0.0393 -2.8733
   36MOL   H37213742   0.201   6.855   5.601 -0.2784  0.4944  0.2924
   36MOL   H37313743   0.048   6.913   5.647 -1.2227  1.1594  1.2859
   36MOL   H37413744   0.255   7.076   5.723  2.2269 -4.7789 -2.7548
   36MOL   H37513745   0.116   7.054   5.823  1.1346  1.4199  0.4885
   36MOL   H37613746   0.384   6.959   5.884  0.9530 -0.2872  0.6451
   36MOL   H37713747   0.236   6.959   5.985  1.8199  0.0410  0.6713
   36MOL   H37813748   0.285   6.732   5.946 -1.3419  2.5049  1.8105
   36MOL   H37913749   0.336   6.754   5.779  2.0923  2.3978  0.5123
   36MOL   H38013750   0.058   6.448   5.816  2.2628 -2.1207 -1.5322
   36MOL   H38113751   0.142   6.574   5.917  2.6705  1.1471 -0.2106
   36MOL   H38213752   0.232   6.474   5.796 -0.3140 -0.1143  0.3621
   37MOL     C113753   0.788   1.240   5.260 -0.6633  0.3530 -0.6011
   37MOL     C213754   0.908   1.182   5.184  0.0595  0.5759  0.5203
   37MOL     C313755   0.928   1.266   5.058 -0.5336  0.6814  0.1846
   37MOL     C413756   0.982   1.170   4.956 -0.3856 -1.0187 -0.9456
   37MOL     C513757   0.905   1.039   4.973 -0.3260 -0.1932 -0.1995
   37MOL     C613758   0.885   1.037   5.131  0.0610  0.1577 -0.3172
   37MOL     C713759   0.822   1.375   5.336  0.9138  0.7430  1.0789
   37MOL     H813760   0.699   1.248   5.197 -0.7288 -0.5543 -0.6369
   37MOL     H913761   0.995   1.190   5.248 -0.4563  1.3563  1.1374
   37MOL    H1013762   0.829   1.297   5.025 -1.0103 -0.2652  0.7073
   37MOL    H1113763   0.990   1.353   5.083 -1.4700  1.6924 -0.9194
   37MOL    H1213764   0.992   1.204   4.853 -1.4130  0.3982 -0.5831
   37MOL    H1313765   1.085   1.157   4.988 -0.3310 -1.7573 -1.3982
   37MOL    H1413766   0.813   1.057   4.916 -0.7974 -0.3645  0.5058
   37MOL    H1513767   0.954   0.946   4.943  0.6110 -0.8189  3.0704
   37MOL    H1613768   0.951   0.965   5.180 -0.1187  0.3678  0.2447
   37MOL    H1713769   0.783   1.005   5.155  0.0225  2.1319  2.4787
   37MOL    H1813770   0.909   1.366   5.401  2.5713  0.3902 -1.1169
   37MOL    H1913771   0.841   1.450   5.259 -1.7846 -0.5277 -0.9355
   37MOL    H2013772   0.749   1.165   5.329  1.1933 -0.9041 -0.8898
   37MOL    C2113773   0.718   1.424   5.439 -0.0017  0.2351 -0.0230
   37MOL    C2213774   0.768   1.540   5.531 -0.9737 -0.4246  0.2333
   37MOL    C2313775   0.897   1.521   5.613 -0.6189  0.0445  0.1614
   37MOL    C2413776   0.902   1.628   5.720 -0.0622 -0.3360 -0.2554
   37MOL    C2513777   0.755   1.652   5.749 -0.0399  1.0167  0.1559
   37MOL    C2613778   0.672   1.598   5.638 -0.7724  0.4467  0.4208
   37MOL    C2713779   0.581   1.461   5.370 -0.4838  0.2592 -0.6442
   37MOL    H2813780   0.702   1.342   5.508 -0.0769 -0.6084 -1.0255
   37MOL    H2913781   0.796   1.616   5.459 -1.4727 -1.6973 -1.3394
   37MOL    H3013782   0.985   1.511   5.549  1.0314 -0.3638  2.4397
   37MOL    H3113783   0.899   1.428   5.669 -1.7063 -0.5364 -0.7377
   37MOL    H3213784   0.956   1.597   5.809 -0.0049 -2.3760 -0.9745
   37MOL    H3313785   0.950   1.723   5.693 -1.3758  0.3870 -0.0931
   37MOL    H3413786   0.723   1.755   5.765  1.1914  1.3773  0.3461
   37MOL    H3513787   0.726   1.597   5.838 -0.3325 -0.4974 -0.8478
   37MOL    H3613788   0.619   1.678   5.588 -0.9819 -0.0289 -0.1216
   37MOL    H3713789   0.596   1.527   5.671  0.4486 -0.9041  0.3744
   37MOL    H3813790   0.568   1.569   5.372  0.3576  0.3724 -1.2790
   37MOL    H3913791   0.573   1.437   5.264  2.2140  0.4392 -0.9206
   37MOL    C4013792   0.454   1.400   5.428 -0.3566  0.0545  0.1840
   37MOL    C4113793   0.327   1.482   5.407 -0.1039 -0.8857  0.8747
   37MOL    C4213794   0.301   1.549   5.271 -0.0884 -0.2067 -0.1024
   37MOL    C4313795   0.193   1.645   5.306  0.3359  0.5155  0.3484
   37MOL    C4413796   0.211   1.681   5.454 -0.2623 -0.3140 -1.0149
   37MOL    C4513797   0.325   1.602   5.500 -0.3988  0.8426 -0.4692
   37MOL    C4613798   0.442   1.251   5.383 -0.1569  0.3164  0.1459
   37MOL    H4713799   0.469   1.404   5.536  1.8522  0.5710 -0.1185
   37MOL    H4813800   0.235   1.439   5.446 -2.0484  1.2944 -1.1125
   37MOL    H4913801   0.265   1.465   5.211 -0.7578 -0.3997  0.5655
   37MOL    H5013802   0.383   1.591   5.213  0.3380 -1.8374 -0.7225
   37MOL    H5113803   0.101   1.586   5.300  0.3818  0.4494  0.2864
   37MOL    H5213804   0.183   1.731   5.239 -0.7124 -0.4490 -0.7697
   37MOL    H5313805   0.227   1.789   5.466  1.9096 -0.7464  0.1511
   37MOL    H5413806   0.124   1.660   5.517  0.5031  1.5571  0.7606
   37MOL    H5513807   0.418   1.658   5.494  1.0046 -1.2209  1.3783
   37MOL    H5613808   0.324   1.564   5.602  2.1213 -0.0760 -0.7510
   37MOL    H5713809   0.403   1.265   5.282 -2.0072 -1.0253  0.6504
   37MOL    H5813810   0.537   1.204   5.360 -0.5550  1.1926 -3.5828
   37MOL    C5913811   0.339   1.167   5.466 -0.0880 -0.1636 -0.4427
   37MOL    C6013812   0.338   1.177   5.618 -0.3192 -0.5605  0.2100
   37MOL    C6113813   0.483   1.161   5.672  0.2597  0.8503  0.5314
   37MOL    C6213814   0.468   1.112   5.818  0.0586  0.8924  0.6390
   37MOL    C6313815   0.333   1.036   5.819 -0.1959  0.7403  0.4252
   37MOL    C6413816   0.251   1.078   5.697  0.3342  0.4241  0.0615
   37MOL    C6513817   0.202   1.169   5.402 -0.4558 -0.4129 -0.2503
   37MOL    H6613818   0.367   1.062   5.462 -0.5055 -0.2851 -0.2254
   37MOL    H6713819   0.296   1.276   5.641 -2.0928 -1.2468  0.0410
   37MOL    H6813820   0.547   1.248   5.662  2.4790 -0.8482 -0.6958
   37MOL    H6913821   0.518   1.072   5.619 -1.2571  0.8020 -0.4161
   37MOL    H7013822   0.474   1.193   5.890 -1.3910  2.9327 -1.4804
   37MOL    H7113823   0.552   1.046   5.843  1.4652  1.3895 -2.4704
   37MOL    H7213824   0.292   1.057   5.917 -4.4844  0.6522 -1.2344
   37MOL    H7313825   0.347   0.928   5.821 -0.0913  0.7776  1.8281
   37MOL    H7413826   0.226   0.982   5.652 -0.6998 -0.2187  1.9363
   37MOL    H7513827   0.153   1.116   5.727  1.0143  2.2720 -0.0258
   37MOL    H7613828   0.182   1.258   5.341 -0.3229  0.4143  0.8908
   37MOL    H7713829   0.135   1.169   5.488  0.5016 -1.6994  0.5008
   37MOL    C7813830   0.166   1.046   5.316  0.5764  0.3050 -0.1455
   37MOL    C7913831   0.011   1.016   5.315 -0.8244 -0.0660 -0.4486
   37MOL    C8013832   7.657   0.883   5.249  0.1874 -0.7702 -0.0763
   37MOL    C8113833   7.555   0.924   5.138  0.1696  0.7037  0.0277
   37MOL    C8213834   7.578   1.065   5.115 -0.0343  0.0330 -0.1357
   37MOL    C8313835   7.619   1.126   5.249  0.1787 -0.0068  0.2200
   37MOL    C8413836   0.222   1.055   5.175  0.1219  0.3304  0.2983
   37MOL    H8513837   0.203   0.956   5.366 -0.5723  1.2030  2.3747
   37MOL    H8613838   7.671   1.017   5.419 -0.8875  0.9310 -0.4736
   37MOL    H8713839   7.603   0.834   5.330  1.8903 -1.4092  0.6930
   37MOL    H8813840   0.049   0.818   5.219  1.4442  0.6714  0.1407
   37MOL    H8913841   7.449   0.909   5.161 -0.1107 -0.0456 -1.6050
   37MOL    H9013842   7.572   0.874   5.042 -2.7538  0.1052 -0.2302
   37MOL    H9113843   7.657   1.081   5.041  0.1744  1.0885  0.2971
   37MOL    H9213844   7.497   1.117   5.064  1.5008  1.5345 -1.1125
   37MOL    H9313845   7.670   1.220   5.228 -0.2409 -0.3860 -2.7008
   37MOL    H9413846   7.526   1.146   5.303  0.7745  3.0663  0.2199
   37MOL    H9513847   0.211   1.151   5.125 -2.1732  0.8381  1.6850
   37MOL    H9613848   0.157   0.997   5.109  1.3634  0.5839 -1.1707
   37MOL    C9713849   0.365   0.990   5.155 -0.3488  0.1835 -0.0179
   37MOL    C9813850   0.422   1.026   5.018  0.6034  0.7181 -0.4226
   37MOL    C9913851   0.341   0.995   4.892 -0.3681 -0.2396 -1.0442
   37MOL   C10013852   0.398   1.085   4.775  0.6110 -0.5656  0.4016
   37MOL   C10113853   0.481   1.186   4.850  0.1062 -0.4519  0.4971
   37MOL   C10213854   0.459   1.175   4.994 -0.1994  0.1371  0.1424
   37MOL   C10313855   0.355   0.834   5.177  1.0946  0.5543  0.2362
   37MOL   H10413856   0.439   1.029   5.224  0.3582 -1.4940  0.1723
   37MOL   H10513857   0.521   0.980   5.007  0.3486  0.7887 -3.5618
   37MOL   H10613858   0.318   0.895   4.854 -0.6738 -0.1825 -1.0139
   37MOL   H10713859   0.237   1.026   4.903 -0.6336 -0.9878 -1.4149
   37MOL   H10813860   0.314   1.123   4.717 -0.0204  0.5534  1.9959
   37MOL   H10913861   0.453   1.027   4.701  2.1113  0.8517  0.3964
   37MOL   H11013862   0.466   1.285   4.808 -0.8147 -1.4143 -1.5213
   37MOL   H11113863   0.583   1.148   4.839  0.4451  0.0723  1.6553
   37MOL   H11213864   0.557   1.187   5.040  0.1419 -0.5467 -0.3885
   37MOL   H11313865   0.381   1.240   5.035 -0.1242  0.0153  0.4872
   37MOL   H11413866   0.286   0.798   5.254  1.3427  0.4194  0.3970
   37MOL   H11513867   0.296   0.804   5.091 -0.4883 -1.5368  2.0062
   37MOL   C11613868   0.481   0.753   5.195 -0.3686  0.2523 -0.1029
   37MOL   C11713869   0.565   0.802   5.317 -0.0633 -0.0925 -0.4660
   37MOL   C11813870   0.519   0.765   5.453 -0.6609  0.4238 -0.5094
   37MOL   C11913871   0.641   0.804   5.537  0.2524 -0.0959  0.2311
   37MOL   C12013872   0.757   0.739   5.458  0.0028 -0.2906 -0.3043
   37MOL   C12113873   0.706   0.740   5.315 -0.8730 -0.0800 -0.6999
   37MOL   C12213874   0.454   0.601   5.199 -0.2252 -0.1345  0.0809
   37MOL   H12313875   0.543   0.781   5.110 -0.6114  0.1394 -0.3149
   37MOL   H12413876   0.607   0.903   5.307 -0.0164 -0.2457 -1.8116
   37MOL   H12513877   0.437   0.828   5.489  1.0945  1.4577  1.8744
   37MOL   H12613878   0.502   0.659   5.471  0.1195  0.8050  2.9189
   37MOL   H12713879   0.627   0.766   5.638  0.7189  2.7140  1.4081
   37MOL   H12813880   0.661   0.911   5.543 -2.2371  0.2905  2.2404
   37MOL   H12913881   0.771   0.635   5.487  1.3758  0.0485  0.2956
   37MOL   H13013882   0.846   0.798   5.476 -0.1861 -0.4383  1.1552
   37MOL   H13113883   0.772   0.797   5.250  0.5437 -0.2809  0.5401
   37MOL   H13213884   0.721   0.643   5.267 -1.4229 -0.7758  0.5118
   37MOL   H13313885   0.364   0.578   5.257 -0.2390 -1.7472 -0.5724
   37MOL   H13413886   0.527   0.552   5.262  1.6005  0.3133 -1.6348
   37MOL   C13513887   0.447   0.531   5.058  0.5505 -1.1581 -0.6186
   37MOL   C13613888   0.348   0.417   5.049  0.0053 -0.7748 -0.2252
   37MOL   C13713889   0.196   0.455   5.057 -0.1888 -0.3247  0.1889
   37MOL   C13813890   0.123   0.338   5.108  0.3643  0.3435  0.4461
   37MOL   C13913891   0.218   0.236   5.166  0.0953 -0.2311 -0.7785
   37MOL   C14013892   0.366   0.303   5.151  0.8388 -0.8412  0.1703
   37MOL   C14113893   0.586   0.492   5.018  0.3663 -0.1079  0.2749
   37MOL   H14213894   0.423   0.606   4.982 -0.5261  0.3605  1.1907
   37MOL   H14313895   0.358   0.374   4.949 -0.9287 -0.9177 -0.2633
   37MOL   H14413896   0.182   0.535   5.129  1.6708 -0.5071  0.7851
   37MOL   H14513897   0.145   0.496   4.970 -4.1573  0.2179  2.6615
   37MOL   H14613898   0.066   0.301   5.022 -0.2606 -0.3663  1.1609
   37MOL   H14713899   0.055   0.361   5.189  0.4013 -0.9000  0.8526
   37MOL   H14813900   0.212   0.135   5.126  2.0185  0.4515 -2.8875
   37MOL   H14913901   0.216   0.231   5.275  0.8523 -1.4549 -0.8136
   37MOL   H15013902   0.408   0.340   5.245  0.0928  0.0029  0.1829
   37MOL   H15113903   0.436   0.226   5.119  0.9692 -0.8098  0.3758
   37MOL   H15213904   0.609   0.411   5.087 -0.4620 -0.3182  0.3058
   37MOL   H15313905   0.648   0.579   5.043  0.4720 -0.0840 -0.0636
   37MOL   C15413906   0.609   0.450   4.866  0.2524  0.2253 -0.9715
   37MOL   C15513907   0.582   0.564   4.773 -0.7881 -0.3080  0.2626
   37MOL   C15613908   0.577   0.532   4.627  0.5155 -0.9429  0.0962
   37MOL   C15713909   0.581   0.665   4.558 -0.4725 -0.0981  0.4950
   37MOL   C15813910   0.642   0.762   4.654  0.0480  0.7336  0.8475
   37MOL   C15913911   0.672   0.682   4.782  0.0606  0.3807 -0.2357
   37MOL   C16013912   0.748   0.392   4.859 -0.4454  0.2398 -0.6343
   37MOL   H16113913   0.540   0.371   4.836 -0.3902  0.7089 -0.7705
   37MOL   H16213914   0.480   0.598   4.793 -1.1695  0.2674 -2.4007
   37MOL   H16313915   0.670   0.484   4.596  0.7112  0.7693 -2.0730
   37MOL   H16413916   0.498   0.463   4.596  2.1331 -1.5922 -2.8185
   37MOL   H16513917   0.640   0.664   4.466 -1.2819  0.0946 -0.0392
   37MOL   H16613918   0.486   0.704   4.521  0.3041 -0.7469 -2.3074
   37MOL   H16713919   0.559   0.830   4.675 -0.9355 -0.2509  0.1812
   37MOL   H16813920   0.737   0.802   4.620  0.0176  0.0255 -0.0815
   37MOL   H16913921   0.663   0.745   4.871  1.3755 -1.4264  1.2123
   37MOL   H17013922   0.775   0.649   4.768  0.2393 -0.2112  2.2138
   37MOL   H17113923   0.822   0.457   4.905 -2.4199  1.5041  0.8270
   37MOL   H17213924   0.783   0.404   4.756  1.5126 -0.4619 -0.0656
   37MOL   C17313925   0.766   0.242   4.900  0.0464 -1.1377  0.2191
   37MOL   C17413926   0.899   0.216   4.963 -0.0670  0.0456  0.0828
   37MOL   C17513927   0.927   0.265   5.106  0.3338 -0.1710  0.0442
   37MOL   C17613928   1.082   0.234   5.109  0.2505 -0.3132  0.4135
   37MOL   C17713929   1.129   0.283   4.970 -0.3377  0.2441 -0.0923
   37MOL   C17813930   1.019   0.250   4.872 -0.3706  0.1100  0.7570
   37MOL   C17913931   0.735   0.150   4.776  0.5538 -1.2418 -0.0777
   37MOL   H18013932   0.698   0.227   4.984  0.9365 -1.1850  0.9334
   37MOL   H18113933   0.914   0.108   4.972 -2.5320 -0.2890  0.3949
   37MOL   H18213934   0.861   0.224   5.183  1.6320 -1.6618  0.3894
   37MOL   H18313935   0.918   0.374   5.112  0.0342 -0.2117  0.3502
   37MOL   H18413936   1.120   0.297   5.190  0.0619  2.3970 -1.5045
   37MOL   H18513937   1.107   0.130   5.127  1.6044 -0.1021 -0.1843
   37MOL   H18613938   1.229   0.258   4.936 -1.1070 -1.3856 -1.2281
   37MOL   H18713939   1.112   0.391   4.975 -0.7378  0.1373  1.0359
   37MOL   H18813940   0.996   0.333   4.804  0.2069  0.2617  0.7461
   37MOL   H18913941   1.042   0.162   4.811  0.3056  0.3233  0.7026
   37MOL   H19013942   0.653   0.199   4.725 -0.2536 -1.0006  1.4177
   37MOL   H19113943   0.826   0.151   4.717  2.7362  1.8426  3.1488
   37MOL   C19213944   0.689   0.002   4.801 -0.4888 -0.3422 -0.3803
   37MOL   C19313945   0.688   7.601   4.673 -0.3744  0.4543 -0.3974
   37MOL   C19413946   0.818   7.579   4.599 -0.2016  0.0172  0.0516
   37MOL   C19513947   0.792   7.537   4.462  0.2188  0.6452 -0.1558
   37MOL   C19613948   0.649   7.584   4.432 -0.0358 -0.1738  0.1169
   37MOL   C19713949   0.602   7.658   4.554 -0.8652  0.0539 -0.7376
   37MOL   C19813950   0.556   0.007   4.883 -0.5105  0.4290 -0.2034
   37MOL   H19913951   0.763   7.643   4.866 -0.6606  0.3109  0.3008
   37MOL   H20013952   0.645   7.508   4.709  0.6039  0.8581  1.9573
   37MOL   H20113953   0.851   7.487   4.648 -0.8984 -1.0450 -1.4562
   37MOL   H20213954   0.891   7.660   4.601  0.5056 -0.6327  1.0832
   37MOL   H20313955   0.867   7.586   4.401  0.7338  0.6389  0.4666
   37MOL   H20413956   0.792   7.429   4.449 -2.2076  0.5384  0.5125
   37MOL   H20513957   0.579   7.504   4.408 -1.0300  0.6001  0.3837
   37MOL   H20613958   0.653   7.651   4.346 -0.7575  0.5308  0.6197
   37MOL   H20713959   0.496   7.650   4.574 -0.4208 -1.6938  1.0543
   37MOL   H20813960   0.625   0.075   4.541 -0.6551  0.6430  3.6240
   37MOL   H20913961   0.547   0.098   4.943  3.2945  0.0246  1.1284
   37MOL   H21013962   0.473   0.003   4.812 -0.6701  0.3742 -0.0124
   37MOL   C21113963   0.525   7.571   4.975  0.8392  0.1848  0.3933
   37MOL   C21213964   0.624   7.582   5.096  0.0781 -0.2908 -0.3868
   37MOL   C21313965   0.581   0.004   5.198 -0.0376 -0.3113  0.0339
   37MOL   C21413966   0.638   7.657   5.332 -0.0823  0.5294  0.0750
   37MOL   C21513967   0.675   7.511   5.327  0.0368  0.6026  0.1493
   37MOL   C21613968   0.629   7.462   5.190  0.0834  0.0775  0.1460
   37MOL   C21713969   0.373   7.559   5.005  0.6366  0.6133  0.3306
   37MOL   H21813970   0.562   7.491   4.910 -0.2100  0.4183 -0.5098
   37MOL   H21913971   0.728   7.597   5.070  0.1826 -2.2705 -1.1517
   37MOL   H22013972   0.626   0.101   5.174  0.6137 -0.4981  0.4710
   37MOL   H22113973   0.473   0.009   5.205 -0.2118 -3.2600 -0.0009
   37MOL   H22213974   0.731   0.020   5.352  0.4823 -1.0600  1.7806
   37MOL   H22313975   0.570   7.683   5.413  1.0080 -2.4694  2.0565
   37MOL   H22413976   0.648   7.454   5.416 -1.1165 -1.5088 -1.5237
   37MOL   H22513977   0.783   7.500   5.318 -0.2340 -0.7827 -1.5921
   37MOL   H22613978   0.706   7.390   5.160  0.1471 -0.7371  2.1616
   37MOL   H22713979   0.537   7.404   5.191  0.7586 -1.0225  0.0679
   37MOL   H22813980   0.328   7.654   5.034 -0.4842 -0.4505  2.1778
   37MOL   H22913981   0.359   7.499   5.095  1.0257 -0.2445 -0.1742
   37MOL   C23013982   0.295   7.488   4.892 -0.6677  0.4865 -0.1932
   37MOL   C23113983   0.150   7.522   4.872 -0.4058 -0.0058 -0.0764
   37MOL   C23213984   0.061   7.523   5.001 -0.1336 -0.3885  0.0255
   37MOL   C23313985   7.675   7.650   4.999 -0.1402  0.4656 -0.5125
   37MOL   C23413986   7.687   0.032   4.864  0.2049  0.2266 -0.7367
   37MOL   C23513987   0.140   7.671   4.815  0.3232  0.0967 -0.0567
   37MOL   C23613988   0.321   7.330   4.902  0.0536  0.4475 -1.1210
   37MOL   H23713989   0.341   7.526   4.800  0.7601  0.1291  0.3700
   37MOL   H23813990   0.104   7.456   4.798  0.9196 -2.5891  1.3485
   37MOL   H23913991   7.689   7.433   4.996  0.7263 -1.0150  0.5738
   37MOL   H24013992   0.120   7.504   5.090 -0.7552 -0.6978  0.3761
   37MOL   H24113993   7.570   7.630   5.022  0.0565  0.7649  0.6750
   37MOL   H24213994   0.012   0.026   5.082 -1.7449  0.9967 -0.4049
   37MOL   H24313995   7.679   0.141   4.866 -1.5953  0.0801  2.6317
   37MOL   H24413996   7.609   7.687   4.797 -1.8365  0.7226  1.3212
   37MOL   H24513997   0.218   0.045   4.855  1.6873 -1.1059 -0.7407
   37MOL   H24613998   0.144   7.671   4.706  1.6703 -0.7524 -0.0217
   37MOL   H24713999   0.222   7.287   4.915 -1.0692  3.0734 -0.6418
   37MOL   H24814000   0.382   7.304   4.988 -1.1739  0.5219 -0.2117
   37MOL   C24914001   0.400   7.278   4.777  0.0225  0.1163  0.2785
   37MOL   C25014002   0.321   7.291   4.644 -0.2287 -0.4858 -0.1510
   37MOL   C25114003   0.193   7.200   4.647 -0.0388 -0.1660 -0.2067
   37MOL   C25214004   0.186   7.124   4.516  0.0953 -0.3945  0.3601
   37MOL   C25314005   0.335   7.108   4.463 -0.2613  0.4105 -0.2316
   37MOL   C25414006   0.394   7.240   4.518  0.2794 -0.0340  0.2744
   37MOL   C25514007   0.465   7.142   4.810 -0.2259 -0.4032 -0.6663
   37MOL   H25614008   0.487   7.344   4.766  0.1909  0.1313  1.6811
   37MOL   H25714009   0.289   7.392   4.618 -2.2675 -0.8834  0.6465
   37MOL   H25814010   0.109   7.266   4.669  1.0687  0.9353  0.8058
   37MOL   H25914011   0.195   7.137   4.736  1.0249  1.2805  0.8232
   37MOL   H26014012   0.143   7.186   4.437 -0.0937 -0.3293  0.5127
   37MOL   H26114013   0.141   7.025   4.522  3.5159 -2.0016  0.3522
   37MOL   H26214014   0.336   7.082   4.357 -0.0398 -0.5345  0.0025
   37MOL   H26314015   0.384   7.032   4.524 -0.7361  1.0933  1.0334
   37MOL   H26414016   0.380   7.306   4.433 -3.6098 -0.9517  0.0985
   37MOL   H26514017   0.502   7.243   4.531  0.6902  0.3188 -2.9393
   37MOL   H26614018   0.388   7.087   4.863  0.4906  0.9192  1.8481
   37MOL   H26714019   0.481   7.081   4.722 -0.6883 -1.8070  0.2182
   37MOL   C26814020   0.597   7.141   4.886  0.4267  0.7434 -0.1779
   37MOL   C26914021   0.711   7.180   4.784 -0.5493 -0.3137 -0.1647
   37MOL   C27014022   0.755   7.073   4.682  0.1638 -0.2074 -0.3002
   37MOL   C27114023   0.877   7.141   4.612  0.4464 -0.1609  0.3206
   37MOL   C27214024   0.956   7.205   4.731 -0.5423 -0.6248 -0.3014
   37MOL   C27314025   0.850   7.212   4.842 -0.2351  0.1739  0.6202
   37MOL   C27414026   0.623   7.003   4.958  0.1184 -0.2814  1.3759
   37MOL   H27514027   0.596   7.220   4.960  2.4984  1.5357 -0.9484
   37MOL   H27614028   0.683   7.270   4.730 -2.2711 -0.8074 -0.1253
   37MOL   H27714029   0.791   6.992   4.747 -2.1521  0.8200  2.3736
   37MOL   H27814030   0.672   7.047   4.617 -0.4974 -1.5235  1.0424
   37MOL   H27914031   0.936   7.073   4.552  0.4675  0.0212  0.1348
   37MOL   H28014032   0.856   7.226   4.547 -3.8819  0.4345  2.2990
   37MOL   H28114033   0.991   7.302   4.694  0.6317 -0.8140  0.3003
   37MOL   H28214034   1.032   7.139   4.772  0.7252  1.2133  0.3736
   37MOL   H28314035   0.840   7.312   4.884  1.0894  0.3036  0.6736
   37MOL   H28414036   0.881   7.147   4.923  1.2868  0.1765  0.0758
   37MOL   H28514037   0.721   7.013   5.002  0.4873 -2.6713  1.1643
   37MOL   H28614038   0.642   6.927   4.882 -0.1348  0.2078  0.8119
   37MOL   C28714039   0.525   6.951   5.063  1.0658 -0.8153  0.3826
   37MOL   C28814040   0.567   6.808   5.113  0.6508  0.2026 -0.0903
   37MOL   C28914041   0.551   6.685   5.024  0.1003 -0.1397 -0.2761
   37MOL   C29014042   0.674   6.598   5.040 -0.4102 -0.6021 -0.1374
   37MOL   C29114043   0.781   6.700   5.091 -0.2545 -0.6312  0.1953
   37MOL   C29214044   0.705   6.804   5.182 -0.6919  0.9167 -0.1548
   37MOL   C29314045   0.502   7.045   5.180 -0.2520 -0.4817  0.1011
   37MOL   H29414046   0.425   6.944   5.020  1.0988  1.5544 -0.2073
   37MOL   H29514047   0.502   6.787   5.198 -0.9138 -1.2439 -1.6075
   37MOL   H29614048   0.455   6.640   5.050  0.5485 -1.6496 -1.2166
   37MOL   H29714049   0.556   6.719   4.921 -1.2207  0.3241 -0.2030
   37MOL   H29814050   0.663   6.528   5.123  0.7830 -1.0567 -0.3495
   37MOL   H29914051   0.699   6.534   4.956  0.6420 -0.1365 -0.1841
   37MOL   H30014052   0.836   6.747   5.010  0.0499 -1.4143 -0.0610
   37MOL   H30114053   0.859   6.648   5.147  0.3228 -2.2027 -2.0174
   37MOL   H30214054   0.759   6.896   5.202  0.5447 -0.0148  0.9071
   37MOL   H30314055   0.695   6.747   5.275 -0.8108  0.2478 -0.5708
   37MOL   H30414056   0.507   7.148   5.146 -1.3870  0.4723  2.6655
   37MOL   H30514057   0.593   7.030   5.239  0.1474 -0.0648 -0.4083
   37MOL   C30614058   0.374   7.028   5.270 -0.3791  0.2891  0.5390
   37MOL   C30714059   0.398   7.057   5.422 -0.1576  0.2216  0.2320
   37MOL   C30814060   0.496   6.961   5.485  0.3054  0.3021 -0.4181
   37MOL   C30914061   0.602   7.041   5.551  0.7810 -0.3598 -0.8134
   37MOL   C31014062   0.544   7.178   5.568  0.0847 -0.7365  0.1134
   37MOL   C31114063   0.446   7.197   5.457 -0.0177  0.5874  0.8081
   37MOL   C31214064   0.251   7.118   5.220 -0.1552  0.4816  0.1143
   37MOL   H31314065   0.347   6.923   5.272 -1.5331  0.5451 -0.5751
   37MOL   H31414066   0.305   7.034   5.474 -1.3310 -0.5004 -2.1313
   37MOL   H31514067   0.537   6.884   5.421  0.4553  0.2495 -0.2581
   37MOL   H31614068   0.447   6.923   5.575  4.0367  1.4578  2.2278
   37MOL   H31714069   0.629   7.000   5.648  1.7636 -0.7836 -1.2560
   37MOL   H31814070   0.692   7.034   5.490  0.9389 -0.8581 -0.5285
   37MOL   H31914071   0.618   7.258   5.563 -0.1219 -0.6167 -1.3670
   37MOL   H32014072   0.500   7.183   5.668 -3.3268 -2.5499 -1.2147
   37MOL   H32114073   0.377   7.280   5.469 -2.4330 -1.1119 -0.7214
   37MOL   H32214074   0.502   7.206   5.364  0.9619 -2.0996  1.0809
   37MOL   H32314075   0.256   7.121   5.111 -2.8658 -1.2692 -0.1151
   37MOL   H32414076   0.269   7.224   5.239  2.9490  0.0764 -0.3277
   37MOL   C32514077   0.115   7.066   5.265 -0.7274 -0.3615  0.0188
   37MOL   C32614078   0.095   6.924   5.198  0.5957 -0.0082  0.1342
   37MOL   C32714079   0.070   6.908   5.049  0.8869 -0.5927 -1.1992
   37MOL   C32814080   7.677   6.777   5.039 -0.1862 -0.8425 -0.0595
   37MOL   C32914081   7.585   6.783   5.164 -0.0088 -0.2484  0.7387
   37MOL   C33014082   7.661   6.853   5.270 -0.0697 -0.9130 -0.3344
   37MOL   C33114083   7.684   7.165   5.246  0.5146 -0.6551  0.2162
   37MOL   H33214084   0.113   7.047   5.372 -0.8351  2.6069  0.5889
   37MOL   H33314085   0.155   6.841   5.235 -0.9225 -1.1762  0.0247
   37MOL   H33414086   0.164   6.903   4.995  2.3258  3.4698  0.7468
   37MOL   H33514087   0.008   6.989   5.012  0.3482  0.2435  1.4188
   37MOL   H33614088   0.051   6.690   5.057 -0.0690 -0.9732 -1.0553
   37MOL   H33714089   7.621   6.774   4.945  0.7677  3.1742 -0.8930
   37MOL   H33814090   7.560   6.682   5.197 -0.1446  0.0735  1.6383
   37MOL   H33914091   7.501   6.850   5.146  0.0948 -1.3801 -4.8618
   37MOL   H34014092   0.014   6.790   5.348  2.3501  0.9084 -0.1165
   37MOL   H34114093   7.596   6.920   5.325  2.2973 -0.5737  2.1364
   37MOL   H34214094   7.605   7.129   5.181  1.3129 -2.1043  0.0411
   37MOL   H34314095   0.025   7.251   5.186  0.3344 -0.7265  0.0245
   37MOL   C34414096   7.619   7.227   5.375 -0.1212 -0.3338  0.4770
   37MOL   C34514097   7.471   7.199   5.376  0.1586 -0.4552 -0.5571
   37MOL   C34614098   7.375   7.271   5.283  0.3350 -0.4115  0.1289
   37MOL   C34714099   7.236   7.270   5.345 -0.2498  0.1639 -0.5585
   37MOL   C34814100   7.257   7.248   5.498  0.4407 -0.3276 -0.4085
   37MOL   C34914101   7.413   7.215   5.517 -0.3246  0.1012 -0.1517
   37MOL   C35014102   7.649   7.375   5.407  0.4758 -0.5941  0.7313
   37MOL   H35114103   7.654   7.165   5.457  2.3624  1.3489  0.7866
   37MOL   H35214104   7.461   7.092   5.358  2.5178 -1.0076  1.1201
   37MOL   H35314105   7.365   7.218   5.188 -0.7027 -1.4045  0.7746
   37MOL   H35414106   7.383   7.377   5.259 -0.9554 -0.1344  0.8987
   37MOL   H35514107   7.188   7.366   5.325  0.6227  0.7450  0.0988
   37MOL   H35614108   7.179   7.195   5.291 -0.5413 -1.6570  2.1806
   37MOL   H35714109   7.194   7.172   5.544  1.8627 -1.7825 -0.8233
   37MOL   H35814110   7.238   7.338   5.556 -0.4079 -0.2632 -0.7758
   37MOL   H35914111   7.450   7.285   5.592  0.0832 -0.6010  0.3025
   37MOL   H36014112   7.426   7.116   5.560 -0.5365  0.0437 -0.2175
   37MOL   H36114113   7.574   7.421   5.472  1.0743 -2.2936  2.6690
   37MOL   H36214114   7.631   7.444   5.324  0.5755 -2.0714 -0.5207
   37MOL   C36314115   0.101   7.394   5.465  0.1708  0.4650 -0.4981
   37MOL   C36414116   0.174   7.529   5.434 -0.4480 -0.2793  0.1496
   37MOL   C36514117   0.314   7.556   5.489  0.1720 -0.7190 -0.3149
   37MOL   C36614118   0.315   0.014   5.504  0.2496  0.0530 -0.1455
   37MOL   C36714119   0.179   0.057   5.543  0.0653  0.3052 -0.2225
   37MOL   C36814120   0.093   7.661   5.461 -0.2624  0.6668  0.4896
   37MOL   C36914121   0.099   7.357   5.611 -0.2600  0.0993  0.0599
   37MOL   H37014122   0.166   7.320   5.420 -0.7102 -1.3056  1.0612
   37MOL   H37114123   0.194   7.544   5.327 -0.7901  0.0008  0.1233
   37MOL   H37214124   0.323   7.521   5.592  0.3876 -0.8535 -0.3810
   37MOL   H37314125   0.397   7.518   5.430 -0.1868 -0.6908 -0.8529
   37MOL   H37414126   0.395   0.046   5.571  0.7741  2.2351 -1.7712
   37MOL   H37514127   0.345   0.047   5.405  1.6961  0.6357  0.4616
   37MOL   H37614128   0.161   0.044   5.650  2.0323  2.0951  0.3427
   37MOL   H37714129   0.164   0.164   5.526 -1.1924  0.4548  1.6637
   37MOL   H37814130   0.073   0.019   5.365 -0.8407 -0.3011  0.1238
   37MOL   H37914131   0.000   7.631   5.509 -0.7514  0.9843 -0.2436
   37MOL   H38014132   0.059   7.259   5.635  1.0630 -0.2251  0.9910
   37MOL   H38114133   0.028   7.433   5.644  1.6840  2.4409 -0.9984
   37MOL   H38214134   0.195   7.366   5.662 -1.1211  1.7245  1.4344
   38MOL     C114135   2.820   0.644   1.799 -0.2720  0.6409 -0.3962
   38MOL     C214136   2.859   0.505   1.751  0.6067  0.2947  0.4332
   38MOL     C314137   2.992   0.525   1.667  1.0365 -0.2211 -0.2808
   38MOL     C414138   2.948   0.539   1.521 -0.8364 -0.4487  0.1611
   38MOL     C514139   2.806   0.491   1.511 -0.1681  0.9368  0.0912
   38MOL     C614140   2.759   0.450   1.648  0.9053  0.1626 -0.0147
   38MOL     C714141   2.700   0.647   1.900 -0.6141  0.6387  0.0776
   38MOL     H814142   2.901   0.690   1.856 -1.6388  0.6364  1.6247
   38MOL     H914143   2.878   0.450   1.843  0.8751 -0.8914 -0.3299
   38MOL    H1014144   3.043   0.616   1.698 -0.0202  0.2000  0.2546
   38MOL    H1114145   3.054   0.436   1.677  1.3982 -0.1399 -1.7446
   38MOL    H1214146   2.954   0.646   1.501 -0.7525 -0.9786 -2.8102
   38MOL    H1314147   3.000   0.495   1.437  1.2018  3.5050 -0.7781
   38MOL    H1414148   2.744   0.575   1.481 -0.8509  0.5744  0.4682
   38MOL    H1514149   2.795   0.422   1.427  0.1057 -1.5890  2.0691
   38MOL    H1614150   2.774   0.344   1.668  0.7193  0.2116  0.3827
   38MOL    H1714151   2.654   0.467   1.672  0.7353  2.0728 -1.8840
   38MOL    H1814152   2.611   0.598   1.859 -0.7685 -0.1123  1.3035
   38MOL    H1914153   2.739   0.593   1.986 -0.3754 -1.4218 -1.2676
   38MOL    H2014154   2.796   0.707   1.714 -2.3676  0.4527  0.0334
   38MOL    C2114155   2.670   0.791   1.941 -0.6493  0.0824  0.5593
   38MOL    C2214156   2.518   0.825   1.933  0.1988  0.0817  0.3542
   38MOL    C2314157   2.426   0.725   1.998  0.1984 -0.1111 -0.2680
   38MOL    C2414158   2.302   0.716   1.905  0.4448 -0.0214 -0.1021
   38MOL    C2514159   2.314   0.819   1.792 -0.1992  0.2995 -0.0111
   38MOL    C2614160   2.471   0.827   1.788  0.3234  0.4989  0.7584
   38MOL    C2714161   2.732   0.829   2.079 -0.0362  0.0797 -0.8745
   38MOL    H2814162   2.709   0.852   1.859 -0.5394 -1.7721 -0.7953
   38MOL    H2914163   2.490   0.922   1.975  0.0496  0.4123 -0.4882
   38MOL    H3014164   2.390   0.760   2.095  0.5504  1.0900 -0.5635
   38MOL    H3114165   2.473   0.629   2.022 -1.0817 -0.7625 -0.3090
   38MOL    H3214166   2.317   0.617   1.860  0.3651 -0.9458  1.8355
   38MOL    H3314167   2.207   0.714   1.958  0.3392 -0.8911 -0.3022
   38MOL    H3414168   2.275   0.919   1.811  0.2340  0.3486  0.6391
   38MOL    H3514169   2.274   0.788   1.696  0.7585  1.6931 -0.8820
   38MOL    H3614170   2.508   0.922   1.751 -1.0755  0.6249 -0.3686
   38MOL    H3714171   2.499   0.748   1.719 -0.6536  0.1420  0.7536
   38MOL    H3814172   2.689   0.773   2.162  0.4411 -1.3316 -1.5746
   38MOL    H3914173   2.831   0.784   2.083  0.5381  1.4095  0.8078
   38MOL    C4014174   2.738   0.986   2.109 -0.3170  0.3347  0.1044
   38MOL    C4114175   2.744   1.020   2.266 -0.1508 -0.1514  0.7106
   38MOL    C4214176   2.844   0.941   2.354 -0.8005  0.2385  0.3226
   38MOL    C4314177   2.801   0.970   2.497 -0.1979  0.7678 -0.1710
   38MOL    C4414178   2.650   0.996   2.490 -0.3494  0.1982  0.4371
   38MOL    C4514179   2.613   0.990   2.336  0.1201 -0.4455 -0.3603
   38MOL    C4614180   2.857   1.063   2.033  0.2511  0.5903 -0.0843
   38MOL    H4714181   2.645   1.035   2.079 -1.3087 -1.5538  0.0426
   38MOL    H4814182   2.772   1.125   2.282 -0.0609  0.2437 -1.8020
   38MOL    H4914183   2.943   0.982   2.332 -0.3978 -0.3224  1.0585
   38MOL    H5014184   2.845   0.835   2.331  1.3704 -0.0347  1.5323
   38MOL    H5114185   2.828   1.070   2.532  1.1948  1.4140 -2.9865
   38MOL    H5214186   2.839   0.901   2.572 -2.1423  0.5237  0.6248
   38MOL    H5314187   2.594   0.928   2.555 -0.8090 -0.2552 -0.4127
   38MOL    H5414188   2.627   1.095   2.528 -0.6972  0.6512 -0.9235
   38MOL    H5514189   2.574   0.892   2.309  1.1747 -0.9751 -0.0167
   38MOL    H5614190   2.530   1.057   2.318  0.5839  0.7518  1.7799
   38MOL    H5714191   2.943   1.066   2.100 -0.5002  0.4539  0.8834
   38MOL    H5814192   2.880   1.001   1.946 -0.9105  0.3161 -0.2064
   38MOL    C5914193   2.832   1.209   1.986  0.1314  0.1818  0.0922
   38MOL    C6014194   2.966   1.287   1.960  0.1345  0.1722 -0.2215
   38MOL    C6114195   3.071   1.275   2.064  0.3056 -0.0771  1.2740
   38MOL    C6214196   3.178   1.383   2.028 -0.2215  0.6082 -0.0692
   38MOL    C6314197   3.084   1.498   1.993  0.0392 -0.2605  0.2894
   38MOL    C6414198   2.950   1.440   1.943 -0.3774  0.1238  0.4192
   38MOL    C6514199   2.733   1.221   1.869  0.3913 -0.1907  0.6846
   38MOL    H6614200   2.791   1.266   2.069 -2.3256  2.3614 -2.5001
   38MOL    H6714201   2.996   1.252   1.862  1.3097 -1.0520  0.5607
   38MOL    H6814202   3.126   1.181   2.057 -1.3148 -0.9141 -0.6354
   38MOL    H6914203   3.037   1.295   2.165  2.4657  3.1541  1.4432
   38MOL    H7014204   3.253   1.351   1.956  0.9129  0.5788  1.0825
   38MOL    H7114205   3.233   1.401   2.121 -1.5156 -0.6945  0.9618
   38MOL    H7214206   3.136   1.550   1.912  0.4234  1.8568  1.8450
   38MOL    H7314207   3.065   1.569   2.073 -0.8040  0.1475 -0.2674
   38MOL    H7414208   2.879   1.472   2.019 -1.2057 -0.0257 -0.2746
   38MOL    H7514209   2.929   1.480   1.844  0.8830  0.0660  0.1237
   38MOL    H7614210   2.684   1.128   1.841  1.2767 -0.0185 -1.5922
   38MOL    H7714211   2.784   1.248   1.776 -2.4978  2.8000 -0.1317
   38MOL    C7814212   2.626   1.334   1.892  0.2323 -0.5404 -0.0549
   38MOL    C7914213   2.555   1.393   1.770  0.0811  0.0590  0.3950
   38MOL    C8014214   2.466   1.298   1.693  0.3572  0.0616 -0.1627
   38MOL    C8114215   2.457   1.363   1.559 -0.0046  0.0996  0.2861
   38MOL    C8214216   2.577   1.452   1.535  0.1494  0.3340 -0.3347
   38MOL    C8314217   2.649   1.461   1.667  0.0513  0.0881  0.6338
   38MOL    C8414218   2.525   1.287   1.998  0.0455  0.2368 -0.0826
   38MOL    H8514219   2.679   1.415   1.941 -0.7601  0.6354 -0.8873
   38MOL    H8614220   2.485   1.469   1.803 -0.8374 -0.8877  0.6873
   38MOL    H8714221   2.363   1.285   1.728  0.4008  0.7281  0.2133
   38MOL    H8814222   2.496   1.194   1.688 -0.4093 -0.1165 -1.3135
   38MOL    H8914223   2.374   1.433   1.559 -0.5816 -0.5701  0.8138
   38MOL    H9014224   2.439   1.293   1.477 -3.7746 -0.7888  1.7608
   38MOL    H9114225   2.641   1.410   1.457 -0.3203 -1.1917  0.0795
   38MOL    H9214226   2.532   1.547   1.504  0.6102  0.9086  0.7554
   38MOL    H9314227   2.743   1.407   1.661 -0.2248 -0.2020 -1.5481
   38MOL    H9414228   2.686   1.558   1.701  0.4357 -0.9059  3.1671
   38MOL    H9514229   2.575   1.220   2.069  1.2794  1.8744  0.6175
   38MOL    H9614230   2.455   1.218   1.949  0.1334 -0.5714  0.9079
   38MOL    C9714231   2.429   1.393   2.063 -0.1138  0.4683  0.1982
   38MOL    C9814232   2.507   1.517   2.128  0.6862 -0.4810 -0.2084
   38MOL    C9914233   2.418   1.637   2.163 -0.5798  0.1889  0.0591
   38MOL   C10014234   2.472   1.694   2.292 -0.5853 -0.7287 -0.5662
   38MOL   C10114235   2.604   1.626   2.317 -0.3559 -0.3733 -0.1445
   38MOL   C10214236   2.585   1.486   2.255 -0.0084 -0.2277  0.6428
   38MOL   C10314237   2.337   1.330   2.163 -0.3165  0.0928  0.3398
   38MOL   H10414238   2.364   1.445   1.993  1.0288  2.8980  0.8792
   38MOL   H10514239   2.582   1.557   2.061  0.4164  1.3065  0.5231
   38MOL   H10614240   2.416   1.717   2.089  1.6194  0.4842  0.2738
   38MOL   H10714241   2.318   1.610   2.195 -0.5529  0.2829  0.2281
   38MOL   H10814242   2.407   1.674   2.377 -1.8499 -0.2554 -1.4199
   38MOL   H10914243   2.492   1.801   2.287 -0.3398 -0.7648 -0.3562
   38MOL   H11014244   2.622   1.615   2.424  1.2303  0.9713 -0.2493
   38MOL   H11114245   2.685   1.681   2.269  0.5867 -1.3870  0.2491
   38MOL   H11214246   2.683   1.444   2.232  0.6726  1.0669  1.1138
   38MOL   H11314247   2.526   1.425   2.324  1.1715 -0.3283  1.5991
   38MOL   H11414248   2.402   1.261   2.219 -0.8908 -1.3590 -0.7449
   38MOL   H11514249   2.320   1.405   2.240 -1.4307  1.3689 -1.1333
   38MOL   C11614250   2.202   1.260   2.118  1.1924  0.0006 -0.2921
   38MOL   C11714251   2.173   1.136   2.204  0.0577  0.2075 -0.1980
   38MOL   C11814252   2.268   1.017   2.174 -0.2995  0.0911 -0.5557
   38MOL   C11914253   2.246   0.919   2.292 -0.3246 -0.0514  0.1758
   38MOL   C12014254   2.153   0.995   2.395 -0.0692  0.0853 -0.3231
   38MOL   C12114255   2.155   1.140   2.352  0.1875 -0.5698  0.0655
   38MOL   C12214256   2.080   1.366   2.130 -0.6799  0.1279  1.2755
   38MOL   H12314257   2.199   1.226   2.015 -0.6219  3.2243 -1.3564
   38MOL   H12414258   2.084   1.103   2.152  0.4104 -0.6000 -0.2962
   38MOL   H12514259   2.266   0.977   2.072  0.0101  1.5697 -1.1510
   38MOL   H12614260   2.373   1.048   2.174 -0.8121  1.8915  1.1380
   38MOL   H12714261   2.339   0.917   2.348  0.2375  0.6508 -0.7183
   38MOL   H12814262   2.197   0.824   2.270 -0.7918  0.2375 -0.0187
   38MOL   H12914263   2.158   0.975   2.503  1.1137 -1.5959 -0.6583
   38MOL   H13014264   2.060   0.952   2.358  0.2492  0.5851 -1.7346
   38MOL   H13114265   2.069   1.199   2.382 -0.6316 -1.1074 -1.1720
   38MOL   H13214266   2.234   1.192   2.406  0.1649  0.8037 -1.1859
   38MOL   H13314267   2.117   1.449   2.070 -1.5146 -0.3722  0.0295
   38MOL   H13414268   2.059   1.397   2.232  1.0665  0.9590  1.4068
   38MOL   C13514269   1.943   1.331   2.073  0.0478  0.1778  0.2254
   38MOL   C13614270   1.926   1.401   1.934 -0.2209 -0.5125  0.1631
   38MOL   C13714271   1.787   1.389   1.862  0.0314 -0.7250  0.4725
   38MOL   C13814272   1.808   1.382   1.708  0.4109  0.1849 -0.0300
   38MOL   C13914273   1.963   1.409   1.695 -0.5035  0.3719  0.3051
   38MOL   C14014274   2.031   1.368   1.824  0.0869 -0.3393 -0.5807
   38MOL   C14114275   1.825   1.375   2.168  0.0242 -0.2746 -0.6971
   38MOL   H14214276   1.937   1.222   2.070  0.0208  0.1357  1.6378
   38MOL   H14314277   1.930   1.509   1.953  1.7605 -1.0631  3.1440
   38MOL   H14414278   1.747   1.294   1.897 -0.2389 -1.0485 -0.6846
   38MOL   H14514279   1.722   1.468   1.899  0.6604 -0.1089  0.2747
   38MOL   H14614280   1.752   1.448   1.641 -1.4795  0.8180  2.1017
   38MOL   H14714281   1.783   1.282   1.671 -3.2995  0.5237  1.3374
   38MOL   H14814282   1.985   1.516   1.699  2.1768 -0.1332  0.4250
   38MOL   H14914283   2.002   1.378   1.598  1.0945 -1.5383  1.5129
   38MOL   H15014284   2.050   1.261   1.819  0.2767 -0.2642 -1.5578
   38MOL   H15114285   2.132   1.406   1.835 -0.6952  2.3388 -2.0114
   38MOL   H15214286   1.721   1.370   2.139 -0.4732 -1.3612  1.1870
   38MOL   H15314287   1.837   1.483   2.175  2.1669 -0.3583 -2.4291
   38MOL   C15414288   1.820   1.312   2.312  0.0598 -0.1509 -0.3639
   38MOL   C15514289   1.701   1.378   2.386  0.4131 -0.2370 -0.1133
   38MOL   C15614290   1.719   1.531   2.403 -0.1833 -0.0054 -0.5818
   38MOL   C15714291   1.630   1.580   2.519  0.2003  0.0633  0.6914
   38MOL   C15814292   1.610   1.451   2.602 -0.1987 -0.5163  0.0881
   38MOL   C15914293   1.694   1.339   2.534 -0.1881  0.2446 -0.4336
   38MOL   C16014294   1.806   1.154   2.319 -0.5371 -1.8488  0.3905
   38MOL   H16114295   1.900   1.338   2.380 -0.2199 -0.8971  0.2563
   38MOL   H16214296   1.608   1.356   2.334  1.1538 -0.8241 -1.1997
   38MOL   H16314297   1.821   1.566   2.414  0.2319 -1.5736  0.8135
   38MOL   H16414298   1.679   1.583   2.315 -0.9048  1.5533  0.6560
   38MOL   H16514299   1.683   1.662   2.568  1.2060  0.7179 -1.4302
   38MOL   H16614300   1.540   1.628   2.481  0.8726 -0.1567 -1.2032
   38MOL   H16714301   1.507   1.415   2.607  0.3443 -2.1012  0.1526
   38MOL   H16814302   1.653   1.457   2.702 -1.6430  1.1166  0.6341
   38MOL   H16914303   1.669   1.236   2.557  2.2845 -0.9149 -2.7167
   38MOL   H17014304   1.791   1.371   2.573 -0.8623  2.0338 -0.1348
   38MOL   H17114305   1.843   1.144   2.421 -0.3633 -1.9002  0.3228
   38MOL   H17214306   1.887   1.110   2.261  0.1026 -1.3424  0.8807
   38MOL   C17314307   1.675   1.085   2.280  0.4422  0.4511 -1.0351
   38MOL   C17414308   1.659   0.942   2.340  0.3895 -0.4176 -0.4299
   38MOL   C17514309   1.516   0.886   2.343 -0.5780  0.6291  0.4275
   38MOL   C17614310   1.522   0.761   2.439  0.0683  0.3084  0.0988
   38MOL   C17714311   1.636   0.799   2.534 -0.0339 -0.6440  0.2913
   38MOL   C17814312   1.710   0.918   2.481 -0.1038  0.2173 -0.0776
   38MOL   C17914313   1.656   1.081   2.126 -0.8104 -0.1463  1.0213
   38MOL   H18014314   1.589   1.133   2.325  0.0045 -0.0340 -1.3424
   38MOL   H18114315   1.717   0.881   2.271 -0.7820 -1.1565 -0.7806
   38MOL   H18214316   1.494   0.855   2.240  0.7245 -2.1489  0.9519
   38MOL   H18314317   1.445   0.960   2.380 -0.7657 -0.0830  1.5322
   38MOL   H18414318   1.429   0.745   2.494  0.2608  0.6588  0.5208
   38MOL   H18514319   1.547   0.671   2.382  0.1095 -0.2139  0.9297
   38MOL   H18614320   1.704   0.715   2.546  0.1672 -0.5141  0.0481
   38MOL   H18714321   1.613   0.825   2.638 -0.5273 -0.3304  0.1086
   38MOL   H18814322   1.692   1.004   2.546 -0.1109 -0.5105  0.9012
   38MOL   H18914323   1.819   0.914   2.490 -0.1465 -0.7562  0.0441
   38MOL   H19014324   1.711   1.167   2.089 -0.3009 -0.4086  1.1596
   38MOL   H19114325   1.718   1.002   2.083  0.4214  0.9701  0.7108
   38MOL   C19214326   1.511   1.086   2.072 -0.1719 -1.1185  0.5006
   38MOL   C19314327   1.495   0.999   1.942  0.6610 -0.4001 -0.6038
   38MOL   C19414328   1.519   0.845   1.947 -0.0321 -0.2974  0.3480
   38MOL   C19514329   1.576   0.801   1.814 -0.5334 -0.2259 -0.3927
   38MOL   C19614330   1.583   0.927   1.733 -0.5589  0.4506  0.1954
   38MOL   C19714331   1.580   1.051   1.829  0.7902  0.7743  0.5807
   38MOL   C19814332   1.469   1.228   2.064 -0.2872 -0.0139 -0.3108
   38MOL   H19914333   1.430   1.051   2.136 -1.3489 -0.1877 -0.4675
   38MOL   H20014334   1.390   1.005   1.914  0.1690 -1.1042  1.0531
   38MOL   H20114335   1.426   0.788   1.955  0.5744 -1.1431  1.4905
   38MOL   H20214336   1.592   0.830   2.027 -0.4823 -1.1347  0.6081
   38MOL   H20314337   1.678   0.769   1.836 -0.2350  1.0992  0.1922
   38MOL   H20414338   1.529   0.725   1.752  1.8538  0.2297 -2.8625
   38MOL   H20514339   1.485   0.937   1.686 -1.1680  0.0638  1.3529
   38MOL   H20614340   1.652   0.926   1.648 -0.2504 -1.0109  0.4496
   38MOL   H20714341   1.543   1.144   1.785 -0.3019 -0.0650 -0.3083
   38MOL   H20814342   1.687   1.067   1.840  0.8506 -0.2909  1.5458
   38MOL   H20914343   1.487   1.267   2.164  1.4483  0.2927 -0.7329
   38MOL   H21014344   1.543   1.281   2.004  0.8985 -2.5865 -1.2192
   38MOL   C21114345   1.328   1.283   2.013  0.3928  0.4955  0.1535
   38MOL   C21214346   1.234   1.333   2.128 -0.5033  0.6218 -0.3733
   38MOL   C21314347   1.202   1.228   2.227  0.0414 -0.2802 -0.7597
   38MOL   C21414348   1.249   1.277   2.359  0.1179 -0.1730 -0.1969
   38MOL   C21514349   1.241   1.435   2.348 -0.5450 -0.7293 -0.3447
   38MOL   C21614350   1.290   1.452   2.207 -0.0225 -0.3730  0.0670
   38MOL   C21714351   1.350   1.391   1.903  0.5576 -0.1890  1.6131
   38MOL   H21814352   1.285   1.192   1.970 -0.0849  0.3968  0.8323
   38MOL   H21914353   1.138   1.374   2.096 -1.3587  0.9517  2.3991
   38MOL   H22014354   1.093   1.216   2.231  0.2691 -1.9276  0.9611
   38MOL   H22114355   1.243   1.130   2.206  1.7420  0.5153 -1.2255
   38MOL   H22214356   1.164   1.258   2.426 -0.2773 -2.8529 -1.4013
   38MOL   H22314357   1.344   1.238   2.394  0.8537 -0.0936 -2.0941
   38MOL   H22414358   1.305   1.477   2.425 -1.0898  0.0720 -0.3258
   38MOL   H22514359   1.141   1.473   2.365  0.2836  0.7004  1.4281
   38MOL   H22614360   1.251   1.550   2.180 -0.2361 -0.2824  0.6817
   38MOL   H22714361   1.397   1.469   2.202 -0.3951  1.9458 -0.7075
   38MOL   H22814362   1.421   1.351   1.832 -3.8812 -0.7853 -2.7915
   38MOL   H22914363   1.403   1.472   1.953  0.2082 -0.0253  1.7273
   38MOL   C23014364   1.236   1.457   1.817 -0.8269 -0.2067 -0.1715
   38MOL   C23114365   1.150   1.356   1.730  0.2576 -0.7189  0.2645
   38MOL   C23214366   1.235   1.250   1.652  0.2427 -0.3611  0.5691
   38MOL   C23314367   1.167   1.115   1.663 -0.0688 -0.2879  0.4060
   38MOL   C23414368   1.033   1.139   1.733  0.1089 -0.7073 -0.1798
   38MOL   C23514369   1.052   1.274   1.813  0.1787  0.1861 -0.4744
   38MOL   C23614370   1.287   1.572   1.723 -0.1369 -0.4018  0.2389
   38MOL   H23714371   1.167   1.507   1.884 -0.0918  0.0320  0.4228
   38MOL   H23814372   1.093   1.412   1.656  0.3981  0.0538  0.7430
   38MOL   H23914373   1.251   1.282   1.549 -2.8721  1.2764  0.5455
   38MOL   H24014374   1.334   1.233   1.694 -0.1240 -1.7360  0.8904
   38MOL   H24114375   1.142   1.075   1.565  1.8187  0.8350 -0.5469
   38MOL   H24214376   1.242   1.051   1.709  1.1521  0.4488 -0.5268
   38MOL   H24314377   1.000   1.060   1.800 -0.2901  0.1786  0.6756
   38MOL   H24414378   0.953   1.155   1.660 -0.7635 -2.0998  0.4408
   38MOL   H24514379   1.093   1.238   1.907 -1.2876  0.9540  0.4850
   38MOL   H24614380   0.961   1.331   1.833  1.2349  1.8693 -0.4659
   38MOL   H24714381   1.195   1.608   1.677  0.8889  1.5515 -0.3213
   38MOL   H24814382   1.334   1.511   1.646 -1.3237  0.6680 -1.3507
   38MOL   C24914383   1.361   1.691   1.796  0.3028  0.1469  0.3284
   38MOL   C25014384   1.262   1.758   1.894  0.1143 -0.0876 -0.4706
   38MOL   C25114385   1.133   1.822   1.826  0.2368  0.6204  0.3945
   38MOL   C25214386   1.081   1.918   1.930  0.0455  0.0242 -0.6773
   38MOL   C25314387   1.178   1.925   2.048 -0.2087 -0.3004 -0.4459
   38MOL   C25414388   1.309   1.868   1.988 -0.4003 -0.3357 -0.3173
   38MOL   C25514389   1.415   1.792   1.690  0.2124  0.1699 -0.3758
   38MOL   H25614390   1.440   1.638   1.851  1.5217  0.5342 -1.0318
   38MOL   H25714391   1.231   1.681   1.965  1.5886 -0.8302 -0.6269
   38MOL   H25814392   1.059   1.758   1.778 -0.5015  1.6885  0.0924
   38MOL   H25914393   1.175   1.873   1.739  1.9389 -1.2247  0.0841
   38MOL   H26014394   0.981   1.890   1.962  0.1501  0.3516 -0.0645
   38MOL   H26114395   1.051   2.012   1.884 -1.2133 -1.0182 -2.0229
   38MOL   H26214396   1.152   1.854   2.126  0.2265 -0.1722 -0.1851
   38MOL   H26314397   1.192   2.022   2.095 -1.3175  0.9171 -2.5355
   38MOL   H26414398   1.378   1.827   2.061 -1.5185 -2.2568 -0.3135
   38MOL   H26514399   1.364   1.949   1.941 -2.4529  1.7342  0.7357
   38MOL   H26614400   1.346   1.798   1.606  1.0997 -0.1586 -1.1335
   38MOL   H26714401   1.418   1.896   1.723  0.3347  0.5786 -1.6716
   38MOL   C26814402   1.552   1.754   1.638  0.4527  0.2394  0.1732
   38MOL   C26914403   1.660   1.784   1.733 -0.1406  1.3617  0.6018
   38MOL   C27014404   1.677   1.927   1.777  0.0637 -0.3028 -0.1430
   38MOL   C27114405   1.827   1.953   1.780 -0.6786 -0.3912 -0.1120
   38MOL   C27214406   1.877   1.852   1.678 -1.6999 -0.2828  0.1571
   38MOL   C27314407   1.792   1.729   1.694  0.8710  0.3940 -0.0039
   38MOL   C27414408   1.577   1.826   1.498  0.1748  0.8707  0.1508
   38MOL   H27514409   1.549   1.647   1.620  3.2528  0.1345  0.1113
   38MOL   H27614410   1.641   1.729   1.825  0.1392 -0.5545 -0.4710
   38MOL   H27714411   1.635   1.996   1.704 -2.5600 -1.2645  0.3726
   38MOL   H27814412   1.624   1.940   1.871 -0.4656 -2.2629 -0.1468
   38MOL   H27914413   1.864   2.055   1.772  0.1030 -0.2869  3.8107
   38MOL   H28014414   1.858   1.912   1.876  1.6646  1.7488  0.0898
   38MOL   H28114415   1.979   1.823   1.701 -2.9949 -1.9039  4.2458
   38MOL   H28214416   1.869   1.898   1.579 -1.3958  1.7714  1.0702
   38MOL   H28314417   1.823   1.673   1.783 -2.9279  1.2337  1.9931
   38MOL   H28414418   1.783   1.665   1.607  0.1494  0.3207  0.1194
   38MOL   H28514419   1.681   1.807   1.470  0.5658  1.2409  1.3251
   38MOL   H28614420   1.562   1.933   1.510 -1.2609  0.6523  0.4442
   38MOL   C28714421   1.497   1.777   1.374 -0.3912 -0.1930 -0.7077
   38MOL   C28814422   1.481   1.891   1.268  0.3630 -0.1506  0.1008
   38MOL   C28914423   1.383   2.004   1.297 -0.1284 -0.0035  0.5570
   38MOL   C29014424   1.433   2.123   1.213  0.2395  0.1059  0.1777
   38MOL   C29114425   1.584   2.097   1.168  0.1152 -1.0580 -0.1976
   38MOL   C29214426   1.613   1.966   1.241  0.0330 -0.1933 -0.5204
   38MOL   C29314427   1.536   1.637   1.316 -0.2092  0.4416 -0.4031
   38MOL   H29414428   1.398   1.757   1.417 -0.4074 -1.1348 -1.1750
   38MOL   H29514429   1.445   1.845   1.176 -1.4718  3.1631 -0.9219
   38MOL   H29614430   1.280   1.977   1.276  0.0043 -0.6659  0.7574
   38MOL   H29714431   1.402   2.034   1.400 -0.2263 -1.8219  1.1199
   38MOL   H29814432   1.382   2.140   1.119  2.2916  2.2304 -0.6051
   38MOL   H29914433   1.418   2.219   1.263 -0.3466  0.5601 -0.8645
   38MOL   H30014434   1.648   2.183   1.188 -0.3896 -0.3445 -1.5883
   38MOL   H30114435   1.589   2.079   1.061  1.5488  1.7964 -0.6393
   38MOL   H30214436   1.671   1.992   1.329 -1.0796 -0.0697  0.1774
   38MOL   H30314437   1.690   1.905   1.193 -1.3204 -0.6608 -2.1566
   38MOL   H30414438   1.543   1.579   1.407 -0.0420  3.4907  1.6016
   38MOL   H30514439   1.634   1.659   1.272 -0.5147 -1.4245 -2.0934
   38MOL   C30614440   1.446   1.560   1.213 -0.2480  0.6389  0.4484
   38MOL   C30714441   1.522   1.437   1.166  0.3718  0.4455 -0.8915
   38MOL   C30814442   1.566   1.340   1.276 -0.1623  0.3286  0.4613
   38MOL   C30914443   1.589   1.205   1.208 -0.0248 -0.1287 -0.1424
   38MOL   C31014444   1.522   1.213   1.070 -0.2841 -0.3303 -0.4771
   38MOL   C31114445   1.454   1.351   1.059 -0.7399  0.6666 -0.1162
   38MOL   C31214446   1.313   1.524   1.274 -0.1814 -0.2300 -0.7549
   38MOL   H31314447   1.442   1.628   1.128 -1.2212 -0.0822 -0.0867
   38MOL   H31414448   1.609   1.459   1.104  2.5382 -1.4085  1.4204
   38MOL   H31514449   1.477   1.330   1.339 -1.5746  1.4776 -1.2899
   38MOL   H31614450   1.654   1.361   1.337 -1.5772 -2.0583  3.4543
   38MOL   H31714451   1.693   1.176   1.199 -0.3086 -1.0004 -0.6463
   38MOL   H31814452   1.536   1.136   1.274 -1.0799  0.8651  0.0723
   38MOL   H31914453   1.455   1.127   1.074 -0.4386 -0.2316 -0.9721
   38MOL   H32014454   1.604   1.208   0.998  1.1481 -0.3679  1.0932
   38MOL   H32114455   1.464   1.385   0.957 -1.7205  2.5883  0.4116
   38MOL   H32214456   1.350   1.324   1.077  0.0081 -0.6533  2.6818
   38MOL   H32314457   1.320   1.489   1.377 -0.5957  1.6531 -0.0845
   38MOL   H32414458   1.287   1.429   1.226 -0.2149 -0.0070 -1.1768
   38MOL   C32514459   1.194   1.616   1.245  0.5003 -0.3106 -1.0161
   38MOL   C32614460   1.075   1.593   1.342  0.7415  0.1284  0.1793
   38MOL   C32714461   1.001   1.461   1.318 -0.0201  0.6235  0.2308
   38MOL   C32814462   0.858   1.490   1.369  0.7374 -0.0840  0.8779
   38MOL   C32914463   0.862   1.632   1.435 -0.1775  0.0298  0.4029
   38MOL   C33014464   0.962   1.692   1.337 -0.0559  0.3428 -0.3090
   38MOL   C33114465   1.154   1.638   1.094 -0.6834 -0.0317 -0.5653
   38MOL   H33214466   1.221   1.719   1.268  1.2493 -0.7489  0.1235
   38MOL   H33314467   1.128   1.583   1.437 -0.1655 -0.9851  0.5811
   38MOL   H33414468   1.047   1.375   1.368  0.4707  1.0821  0.5725
   38MOL   H33514469   0.995   1.423   1.216  1.0251  1.6789 -0.2382
   38MOL   H33614470   0.825   1.401   1.422  0.4975 -1.6615 -1.8083
   38MOL   H33714471   0.793   1.492   1.281  3.9454  0.5385 -1.5675
   38MOL   H33814472   0.908   1.631   1.534  3.2409 -0.8078 -1.1288
   38MOL   H33914473   0.769   1.690   1.433 -0.3256 -0.2301 -0.6578
   38MOL   H34014474   1.001   1.790   1.364  0.1077  0.1166  0.2752
   38MOL   H34114475   0.909   1.709   1.243 -0.5997  2.2607  0.3118
   38MOL   H34214476   1.052   1.606   1.073 -1.2641  1.3545  0.0360
   38MOL   H34314477   1.198   1.553   1.043 -0.5587  0.8178 -1.8968
   38MOL   C34414478   1.184   1.779   1.027 -0.6243  0.1763  0.4253
   38MOL   C34514479   1.072   1.889   1.050  0.4614 -0.1319 -0.2898
   38MOL   C34614480   0.939   1.849   0.981 -0.0801  0.5116 -0.1026
   38MOL   C34714481   0.858   1.976   0.957 -0.5130  0.1855 -0.1049
   38MOL   C34814482   0.959   2.090   0.983  0.1015 -0.4580 -0.6490
   38MOL   C34914483   1.101   2.031   1.001  0.0614 -0.0372 -0.7765
   38MOL   C35014484   1.215   1.758   0.875 -0.2543  0.6702  0.3845
   38MOL   H35114485   1.275   1.821   1.071  0.5171  0.5739 -2.1995
   38MOL   H35214486   1.043   1.888   1.155 -1.5512 -0.1793 -0.8102
   38MOL   H35314487   0.871   1.782   1.033  1.4021 -2.3801 -1.7871
   38MOL   H35414488   0.953   1.791   0.890 -0.9748 -0.0127  0.0931
   38MOL   H35514489   0.826   1.986   0.853 -1.0311  1.0512  0.1351
   38MOL   H35614490   0.774   1.991   1.025 -0.9212  1.8553 -0.9445
   38MOL   H35714491   0.920   2.157   1.059  0.9839 -0.7303  0.0561
   38MOL   H35814492   0.964   2.152   0.894 -1.0948  1.4101  0.5413
   38MOL   H35914493   1.165   2.035   0.913 -0.7053  0.9257 -1.3101
   38MOL   H36014494   1.146   2.085   1.084 -0.4872  0.7127 -0.9592
   38MOL   H36114495   1.184   1.841   0.811 -4.5242 -1.1425 -0.0912
   38MOL   H36214496   1.150   1.677   0.841  0.4378  1.1696 -2.2839
   38MOL   C36314497   1.356   1.711   0.838 -0.4102 -0.0230 -0.5965
   38MOL   C36414498   1.361   1.658   0.690 -0.0656 -0.4068 -0.4674
   38MOL   C36514499   1.294   1.518   0.676  0.9015  0.8083  0.1970
   38MOL   C36614500   1.402   1.421   0.618 -0.1751  0.5237 -0.1463
   38MOL   C36714501   1.500   1.521   0.550 -0.1943 -0.1839  0.0267
   38MOL   C36814502   1.497   1.654   0.636 -0.5154 -0.1275  0.1826
   38MOL   C36914503   1.460   1.826   0.868  0.0220  0.1589  0.2804
   38MOL   H37014504   1.384   1.633   0.908 -0.2244 -0.0600 -0.7115
   38MOL   H37114505   1.310   1.725   0.622 -2.4777 -1.7140 -0.0064
   38MOL   H37214506   1.272   1.489   0.779 -0.6108  2.5970  0.3964
   38MOL   H37314507   1.209   1.526   0.608  0.2082 -2.1199  0.6316
   38MOL   H37414508   1.450   1.365   0.699  2.1983  1.2364 -1.0171
   38MOL   H37514509   1.356   1.347   0.552 -0.4863  1.2093 -0.7101
   38MOL   H37614510   1.598   1.474   0.557 -0.8165 -1.4644  0.3231
   38MOL   H37714511   1.472   1.540   0.446 -0.6300 -2.3759 -0.2783
   38MOL   H37814512   1.534   1.742   0.582 -1.2498  0.2303  0.2641
   38MOL   H37914513   1.571   1.649   0.716 -1.0849 -1.0492  0.6592
   38MOL   H38014514   1.507   1.864   0.778 -1.1100 -2.1545 -1.3469
   38MOL   H38114515   1.536   1.787   0.935  0.9972  2.4036  0.5070
   38MOL   H38214516   1.418   1.911   0.922 -1.7574 -1.0853  0.8987
   39MOL     C114517   6.841   4.286   7.082 -0.0891 -0.6100  1.1359
   39MOL     C214518   6.893   4.401   6.983  0.0920  0.2167  0.8238
   39MOL     C314519   6.773   4.486   6.931 -0.0730  0.4532 -0.1290
   39MOL     C414520   6.788   4.508   6.781  0.0610  0.1893 -0.1373
   39MOL     C514521   6.921   4.449   6.745  0.0838 -0.2631  0.9224
   39MOL     C614522   6.950   4.349   6.855  0.1276  0.6776 -0.4481
   39MOL     C714523   6.812   4.345   7.220 -0.5178  0.2258  0.1122
   39MOL     H814524   6.756   4.237   7.034 -0.5741 -0.1386  1.5117
   39MOL     H914525   6.968   4.450   7.044 -0.1698  1.6418  0.0284
   39MOL    H1014526   6.674   4.447   6.953 -0.1236  1.4473  1.4576
   39MOL    H1114527   6.777   4.579   6.988 -1.2957  0.1845  0.4118
   39MOL    H1214528   6.712   4.454   6.724  0.6570 -1.2997  0.4569
   39MOL    H1314529   6.771   4.612   6.751 -2.2882  0.0934  0.7133
   39MOL    H1414530   6.905   4.395   6.652 -2.2625 -0.7570  1.5810
   39MOL    H1514531   6.993   4.527   6.720 -0.3446 -1.3434 -4.3611
   39MOL    H1614532   7.055   4.326   6.872 -0.2337 -0.5893  0.1685
   39MOL    H1714533   6.909   4.252   6.826  0.5677  1.0822 -2.4865
   39MOL    H1814534   6.893   4.412   7.251 -0.1754  0.3450 -1.0481
   39MOL    H1914535   6.719   4.402   7.216 -0.3470  0.7278  2.4677
   39MOL    H2014536   6.926   4.219   7.070  1.0289  1.3751 -3.6552
   39MOL    C2114537   6.794   4.235   7.332 -0.9682  0.2979 -0.6705
   39MOL    C2214538   6.658   4.158   7.321 -0.6608  0.7991 -0.0565
   39MOL    C2314539   6.616   4.099   7.454  0.7619  0.5277  0.7494
   39MOL    C2414540   6.622   3.945   7.440 -0.5927  0.1696 -0.4262
   39MOL    C2514541   6.686   3.918   7.305  0.5765 -0.2823  0.8992
   39MOL    C2614542   6.658   4.042   7.218 -0.0795 -0.6642 -0.2845
   39MOL    C2714543   6.919   4.141   7.345  0.2591  0.4690  0.0168
   39MOL    H2814544   6.785   4.284   7.429  1.3899  0.5631 -0.5437
   39MOL    H2914545   6.582   4.232   7.297  1.9439  3.2581 -1.0700
   39MOL    H3014546   6.513   4.120   7.481 -0.2825 -1.1740 -1.7917
   39MOL    H3114547   6.686   4.121   7.535  1.4434  0.8887  0.0758
   39MOL    H3214548   6.676   3.899   7.522 -0.3202 -4.1879 -2.8620
   39MOL    H3314549   6.522   3.900   7.438 -0.0633 -1.0422 -0.2985
   39MOL    H3414550   6.647   3.832   7.251 -0.0062  0.3209  0.3462
   39MOL    H3514551   6.792   3.902   7.324  0.7904  1.7355  1.5045
   39MOL    H3614552   6.565   4.033   7.161  1.3645  0.9387 -3.0303
   39MOL    H3714553   6.727   4.061   7.136  1.0884 -1.5220  0.4838
   39MOL    H3814554   6.902   4.066   7.422 -1.8201  0.0092 -0.8426
   39MOL    H3914555   6.933   4.084   7.253 -0.0123  0.4624 -0.0205
   39MOL    C4014556   7.059   4.198   7.380  0.3779 -0.5927  0.5627
   39MOL    C4114557   7.056   4.275   7.512  0.0524 -0.1773  0.2143
   39MOL    C4214558   7.177   4.358   7.546  0.2098  0.0084 -0.1580
   39MOL    C4314559   7.180   4.362   0.008 -0.3785  0.2840 -0.8107
   39MOL    C4414560   7.146   4.217   0.050  0.8460  0.0163  0.3076
   39MOL    C4514561   7.039   4.171   7.637  0.7895  0.3096 -0.6072
   39MOL    C4614562   7.176   4.101   7.357 -0.5571  0.0287  0.7669
   39MOL    H4714563   7.066   4.278   7.306  0.2452  0.2041  1.3964
   39MOL    H4814564   6.975   4.347   7.506 -0.4466 -0.8112 -0.9499
   39MOL    H4914565   7.164   4.455   7.498  0.0819  0.3708  0.6059
   39MOL    H5014566   7.268   4.314   7.503 -0.7086 -1.0876 -1.0275
   39MOL    H5114567   7.101   4.432   0.036  0.6805  0.5645  1.6193
   39MOL    H5214568   7.276   4.391   0.052 -1.5301  0.1825  1.9178
   39MOL    H5314569   7.235   4.153   0.049  0.3620 -0.6558 -0.8551
   39MOL    H5414570   7.107   4.214   0.151 -1.6217  0.3912 -0.6099
   39MOL    H5514571   7.047   4.066   7.608 -0.3709  0.1391 -0.3384
   39MOL    H5614572   6.938   4.187   7.675  0.9231 -1.4669  0.5219
   39MOL    H5714573   7.269   4.129   7.406 -1.1712 -2.2246  3.3570
   39MOL    H5814574   7.152   4.007   7.407 -2.5279 -0.1988 -0.5446
   39MOL    C5914575   7.224   4.084   7.206  0.4547  0.4168  0.1611
   39MOL    C6014576   7.342   4.177   7.158  0.3823 -0.4296 -1.6267
   39MOL    C6114577   7.307   4.322   7.166 -0.9179  0.0731  0.8587
   39MOL    C6214578   7.401   4.386   7.071 -0.9001 -0.1422 -0.0836
   39MOL    C6314579   7.398   4.296   6.948 -0.3167 -0.6640 -0.0450
   39MOL    C6414580   7.381   4.155   7.007 -0.2010 -0.1763  0.2833
   39MOL    C6514581   7.256   3.935   7.181  0.2134  0.0492  0.1310
   39MOL    H6614582   7.143   4.106   7.137 -1.3645  0.2094  2.1640
   39MOL    H6714583   7.425   4.144   7.220  1.0380  3.3577 -0.3679
   39MOL    H6814584   7.324   4.357   7.268  1.6589  3.1368 -0.5591
   39MOL    H6914585   7.206   4.347   7.132  0.1101  2.4294 -0.6140
   39MOL    H7014586   7.502   4.388   7.112 -1.3441 -0.3927  1.0504
   39MOL    H7114587   7.385   4.489   7.038  0.2999 -0.0112 -0.2598
   39MOL    H7214588   7.488   4.307   6.887  0.1763  2.6759  1.1630
   39MOL    H7314589   7.317   4.332   6.885 -0.6665 -1.8150 -0.2589
   39MOL    H7414590   7.313   4.103   6.940 -2.2961  0.9721  1.4525
   39MOL    H7514591   7.472   4.095   7.003  0.0003 -0.0921  2.6056
   39MOL    H7614592   7.344   3.915   7.242  1.3796  2.0642 -0.8519
   39MOL    H7714593   7.299   3.919   7.082 -0.4634 -1.8933  0.1332
   39MOL    C7814594   7.136   3.836   7.222  0.1667 -0.0447  0.0999
   39MOL    C7914595   7.073   3.787   7.092  0.0376 -0.1607 -0.0982
   39MOL    C8014596   7.167   3.706   6.996 -0.2138 -0.0316 -0.8305
   39MOL    C8114597   7.131   3.757   6.856  0.5489  0.3448 -0.1757
   39MOL    C8214598   6.995   3.820   6.867  0.4821  0.0951  0.0885
   39MOL    C8314599   7.002   3.885   7.005  0.1761 -0.0318  0.6986
   39MOL    C8414600   7.177   3.725   7.327 -0.3738  1.0036  0.3431
   39MOL    H8514601   7.050   3.892   7.258 -2.0234 -1.4912 -2.7034
   39MOL    H8614602   6.998   3.711   7.115 -1.3063  1.8637  2.6203
   39MOL    H8714603   7.140   3.601   6.989  3.3770 -0.8975 -2.5468
   39MOL    H8814604   7.272   3.713   7.023 -0.6626 -2.7612  2.0184
   39MOL    H8914605   7.113   3.679   6.782 -1.7792  0.6128  0.0593
   39MOL    H9014606   7.196   3.836   6.819 -0.2516  0.8418 -0.5287
   39MOL    H9114607   6.968   3.889   6.788 -1.7097  0.1225  0.8410
   39MOL    H9214608   6.914   3.748   6.868 -0.4183  1.0131 -2.5683
   39MOL    H9314609   7.046   3.984   7.010 -1.1604  0.5436  1.6490
   39MOL    H9414610   6.899   3.910   7.033 -0.9021 -0.6658 -2.5217
   39MOL    H9514611   7.255   3.765   7.392 -1.4362  3.4073  0.1878
   39MOL    H9614612   7.230   3.657   7.260  1.8007  3.1465 -0.1700
   39MOL    C9714613   7.066   3.664   7.409 -0.1067 -0.2063 -0.1124
   39MOL    C9814614   7.013   3.751   7.536 -0.0062  0.2652  0.8628
   39MOL    C9914615   6.890   3.683   7.607 -1.1803 -0.6866  0.7157
   39MOL   C10014616   6.885   3.754   0.049  0.0264 -1.3043 -0.3142
   39MOL   C10114617   7.036   3.762   0.092  0.4089 -0.4706 -0.2002
   39MOL   C10214618   7.111   3.781   7.655 -0.1068 -0.7328 -0.1291
   39MOL   C10314619   7.123   3.523   7.454 -0.3111 -0.4301 -0.1344
   39MOL   H10414620   6.980   3.652   7.344 -0.2992 -1.9326  0.4344
   39MOL   H10514621   6.994   3.847   7.489  1.6819 -0.2637 -0.9494
   39MOL   H10614622   6.801   3.688   7.544 -0.1913  0.5387 -0.6368
   39MOL   H10714623   6.901   3.579   7.636  1.4091 -0.3049  1.2643
   39MOL   H10814624   6.818   3.700   0.116 -0.4613 -1.2942 -0.7852
   39MOL   H10914625   6.845   3.853   0.031  1.5687  0.0922  3.5253
   39MOL   H11014626   7.059   3.667   0.141 -2.6509 -2.1455 -1.8510
   39MOL   H11114627   7.056   3.842   0.163  1.0948 -0.8792  0.0819
   39MOL   H11214628   7.151   3.883   7.653  0.2752 -0.8670  0.6798
   39MOL   H11314629   7.200   3.718   7.658 -0.0392 -0.6062  0.4669
   39MOL   H11414630   7.228   3.546   7.473 -0.2796  0.4891 -1.3461
   39MOL   H11514631   7.093   3.481   7.550 -2.1950  0.9132 -0.0945
   39MOL   C11614632   7.108   3.410   7.347 -0.2481 -1.0849  0.0598
   39MOL   C11714633   7.222   3.300   7.357  0.3293  0.4135 -0.2025
   39MOL   C11814634   7.362   3.350   7.341 -0.3141 -0.5200 -0.8842
   39MOL   C11914635   7.457   3.275   7.433 -0.5169  0.5080  0.0411
   39MOL   C12014636   7.370   3.167   7.499 -0.6386 -0.8208 -0.1846
   39MOL   C12114637   7.228   3.226   7.489  0.2396 -0.1172 -0.2613
   39MOL   C12214638   6.969   3.360   7.348  0.3908  0.5769 -0.4461
   39MOL   H12314639   7.129   3.450   7.248 -3.3264  0.3059 -0.0899
   39MOL   H12414640   7.223   3.228   7.275  2.0864  1.7029 -1.3547
   39MOL   H12514641   7.380   3.348   7.234 -2.2663 -1.0808 -1.2294
   39MOL   H12614642   7.380   3.454   7.367  1.2930  0.0799 -4.1648
   39MOL   H12714643   7.500   3.335   7.513 -0.6929  0.2468  0.3340
   39MOL   H12814644   7.546   3.228   7.391 -1.8773  0.0520 -2.3904
   39MOL   H12914645   7.396   3.140   7.601  0.0614 -1.5887 -0.5584
   39MOL   H13014646   7.376   3.078   7.437  1.1262 -1.0872  0.3618
   39MOL   H13114647   7.143   3.158   7.481 -0.3417  0.4564  0.8785
   39MOL   H13214648   7.195   3.284   7.575  0.9889 -1.0558  0.6776
   39MOL   H13314649   6.897   3.440   7.366  2.2300  2.3123 -0.6802
   39MOL   H13414650   6.946   3.298   7.435 -0.3207  1.7470  0.2069
   39MOL   C13514651   6.910   3.288   7.221  0.3814 -0.4247  0.1467
   39MOL   C13614652   6.895   3.385   7.103  0.3298 -0.1380 -0.4404
   39MOL   C13714653   6.791   3.500   7.113  0.3130 -0.0295  0.2099
   39MOL   C13814654   6.735   3.534   6.968  0.7446  0.2212 -1.2432
   39MOL   C13914655   6.820   3.449   6.876 -0.2128 -0.4862  0.1713
   39MOL   C14014656   6.868   3.327   6.962  0.3555  0.7395  0.0682
   39MOL   C14114657   6.774   3.217   7.258  0.7398 -0.8961  0.1129
   39MOL   H14214658   6.989   3.218   7.194  0.8320  0.1421 -0.0099
   39MOL   H14314659   6.991   3.434   7.088 -0.8086  1.7017 -1.9067
   39MOL   H14414660   6.704   3.468   7.170 -0.5977  0.1157 -1.0734
   39MOL   H14514661   6.829   3.588   7.165  0.0445 -1.5238  3.0101
   39MOL   H14614662   6.743   3.638   6.938  0.3885  0.9474  1.0473
   39MOL   H14714663   6.629   3.515   6.958  0.2442  1.5771  1.1617
   39MOL   H14814664   6.908   3.498   6.833 -0.4417  0.1164  0.3863
   39MOL   H14914665   6.756   3.416   6.794  2.3517 -1.8324 -1.3574
   39MOL   H15014666   6.789   3.251   6.959  1.2672 -0.2485  0.6238
   39MOL   H15114667   6.950   3.273   6.915 -0.8309 -1.1687  0.1188
   39MOL   H15214668   6.731   3.171   7.169  1.2182 -1.7268  0.2999
   39MOL   H15314669   6.700   3.290   7.287 -0.1552 -1.3123 -1.0831
   39MOL   C15414670   6.770   3.100   7.358 -0.6109  0.2092  0.1482
   39MOL   C15514671   6.894   3.009   7.345 -0.3899 -0.3727 -0.2977
   39MOL   C15614672   6.917   2.948   7.203 -0.1834  0.0663  0.3968
   39MOL   C15714673   7.002   2.822   7.224  0.0332  1.0230 -0.1735
   39MOL   C15814674   7.010   2.798   7.371 -0.0624  0.2762  0.4628
   39MOL   C15914675   6.901   2.885   7.432 -0.7340  0.6272 -0.0840
   39MOL   C16014676   6.725   3.146   7.507 -1.0104 -0.0986  0.2557
   39MOL   H16114677   6.696   3.034   7.312 -0.9908  0.2860  0.6502
   39MOL   H16214678   6.980   3.071   7.369 -0.4462 -0.7204  0.8037
   39MOL   H16314679   6.831   2.922   7.140  0.6355  0.2467 -0.8202
   39MOL   H16414680   6.973   3.021   7.145 -0.6419  0.6313  0.6597
   39MOL   H16514681   6.956   2.738   7.171  0.7460  2.3930 -3.0927
   39MOL   H16614682   7.100   2.827   7.176  0.6229 -4.1245  0.2253
   39MOL   H16714683   7.106   2.836   7.405  1.4247 -0.2300 -2.9346
   39MOL   H16814684   6.999   2.694   7.402 -0.6660  0.8142  2.0828
   39MOL   H16914685   6.919   2.914   7.535 -0.9931  1.3692 -0.2430
   39MOL   H17014686   6.808   2.827   7.428 -0.0612 -0.5049  0.6093
   39MOL   H17114687   6.785   3.228   7.547 -0.8209 -1.1926  2.2559
   39MOL   H17214688   6.763   3.064   7.569 -2.5220 -1.9503 -1.1993
   39MOL   C17314689   6.567   3.170   7.513  0.3943 -0.5154  0.0964
   39MOL   C17414690   6.524   3.265   7.629  0.6237 -0.0692  0.7554
   39MOL   C17514691   6.599   3.399   7.621 -0.3320 -0.5839 -0.1209
   39MOL   C17614692   6.572   3.462   0.068 -0.1781  0.4687  0.0340
   39MOL   C17714693   6.572   3.339   0.164 -0.0270  0.5934 -0.1958
   39MOL   C17814694   6.565   3.214   0.078 -0.2232 -0.1512  0.0961
   39MOL   C17914695   6.507   3.029   7.520  0.1872 -0.2224  0.6907
   39MOL   H18014696   6.533   3.216   7.420 -0.0721  0.7539  0.8784
   39MOL   H18114697   6.418   3.285   7.613  1.0562  1.5680 -0.1659
   39MOL   H18214698   6.553   3.469   7.551 -0.2284  0.4799  0.8600
   39MOL   H18314699   6.707   3.391   7.606 -0.7263 -0.2502 -3.5355
   39MOL   H18414700   6.658   3.524   0.091 -1.5778  2.2019  0.6366
   39MOL   H18514701   6.474   3.508   0.079 -0.2191  0.2347  0.6739
   39MOL   H18614702   6.488   3.340   0.234 -0.1239 -0.0892 -0.2930
   39MOL   H18714703   6.666   3.333   0.217  0.8022  0.3096 -1.6708
   39MOL   H18814704   6.652   3.148   0.081 -0.5412 -0.5311  1.2940
   39MOL   H18914705   6.485   3.149   0.113 -0.3108  0.7999  1.7037
   39MOL   H19014706   6.541   2.974   7.432 -1.4435  1.3542 -0.9624
   39MOL   H19114707   6.558   2.969   7.596 -0.9996 -1.7646  0.2845
   39MOL   C19214708   6.357   3.009   7.525  0.4007  0.6647 -1.1993
   39MOL   C19314709   6.320   2.872   7.599 -0.2761  0.1955 -0.3710
   39MOL   C19414710   6.176   2.810   7.600  0.0092 -0.0056  0.0787
   39MOL   C19514711   6.166   2.716   0.027 -0.2404 -0.2028 -0.2732
   39MOL   C19614712   6.284   2.749   0.113  0.5204 -0.1531  0.0032
   39MOL   C19714713   6.342   2.880   0.063 -0.0985  0.3367 -0.8592
   39MOL   C19814714   6.284   3.025   7.383  0.0056 -0.1578  0.0666
   39MOL   H19914715   6.315   3.090   7.585  2.0147 -0.3584  1.4149
   39MOL   H20014716   6.384   2.795   7.556  2.5531  1.8719  0.6733
   39MOL   H20114717   6.143   2.763   7.508  0.8426  0.1560 -0.3110
   39MOL   H20214718   6.096   2.882   7.613  0.5070  0.8009 -1.1889
   39MOL   H20314719   6.070   2.727   0.077 -0.9177 -0.5899 -1.4790
   39MOL   H20414720   6.177   2.614   7.679  0.8334  0.0356 -0.6176
   39MOL   H20514721   6.357   2.673   0.084 -1.1526 -1.0080 -2.0995
   39MOL   H20614722   6.278   2.753   0.221  1.9959  3.6850  0.0153
   39MOL   H20714723   6.450   2.880   0.082  0.0434 -1.9552 -1.5427
   39MOL   H20814724   6.301   2.962   0.122  1.4446  0.5272 -0.0073
   39MOL   H20914725   6.329   2.948   7.320  1.0871  0.2521  0.3360
   39MOL   H21014726   6.182   2.986   7.384 -0.7153  1.5765 -1.8864
   39MOL   C21114727   6.291   3.159   7.300 -0.6111 -0.2851 -0.5335
   39MOL   C21214728   6.376   3.133   7.168  0.4768  0.1636  0.0465
   39MOL   C21314729   6.323   3.026   7.061  0.3526 -0.1201  0.1180
   39MOL   C21414730   6.340   3.094   6.927 -0.1478 -0.0306  0.6604
   39MOL   C21514731   6.441   3.201   6.948 -0.0308  0.0401  0.8965
   39MOL   C21614732   6.405   3.259   7.086 -0.0577  0.3003 -0.2645
   39MOL   C21714733   6.147   3.205   7.270  0.2814  0.1027 -0.1002
   39MOL   H21814734   6.329   3.241   7.360  0.1968 -1.6799  0.9193
   39MOL   H21914735   6.472   3.089   7.193  1.5454  0.6447 -3.0091
   39MOL   H22014736   6.386   2.938   7.050 -0.5960 -0.8473  0.5252
   39MOL   H22114737   6.221   2.996   7.082  0.0108  1.9664  1.6421
   39MOL   H22214738   6.379   3.020   6.857  3.1702  0.5330  1.8442
   39MOL   H22314739   6.243   3.128   6.890  0.0190  1.1178  1.2501
   39MOL   H22414740   6.455   3.277   6.871  2.4461 -0.7388  0.5322
   39MOL   H22514741   6.533   3.144   6.961 -0.2888 -0.6771 -0.3284
   39MOL   H22614742   6.476   3.317   7.145  0.2713 -0.0562 -0.3085
   39MOL   H22714743   6.314   3.319   7.088 -0.0806  0.3199 -1.5486
   39MOL   H22814744   6.101   3.138   7.197  2.3313 -0.5893 -0.7929
   39MOL   H22914745   6.159   3.297   7.212  1.8678 -0.2302 -0.3235
   39MOL   C23014746   6.057   3.248   7.396 -0.3003 -0.4011 -0.1295
   39MOL   C23114747   5.905   3.232   7.361  0.3080 -0.0200  0.3434
   39MOL   C23214748   5.851   3.312   7.244 -0.2904  0.1201 -0.0253
   39MOL   C23314749   5.770   3.227   7.148  0.0036  0.0363 -0.1885
   39MOL   C23414750   5.816   3.081   7.186  0.1811  0.6005 -0.1552
   39MOL   C23514751   5.869   3.087   7.328 -0.1460  0.1290 -0.3327
   39MOL   C23614752   6.089   3.385   7.465  0.0094 -0.4255  0.5554
   39MOL   H23714753   6.088   3.179   7.475  3.3121  1.3656  0.1059
   39MOL   H23814754   5.840   3.247   7.448  0.0351  0.9024 -0.0180
   39MOL   H23914755   5.793   3.397   7.281  1.7270  1.1436  0.8285
   39MOL   H24014756   5.932   3.352   7.183 -0.0034 -0.8117 -0.2691
   39MOL   H24114757   5.664   3.250   7.155  0.6407  2.6902  1.7522
   39MOL   H24214758   5.796   3.259   7.047 -1.3626 -3.1424 -1.6244
   39MOL   H24314759   5.907   3.054   7.132  1.0468  1.1052  1.0292
   39MOL   H24414760   5.745   2.999   7.173 -0.8411  1.4849 -0.1503
   39MOL   H24514761   5.947   3.016   7.353 -0.8470 -0.3315  0.5640
   39MOL   H24614762   5.778   3.067   7.384  0.0258 -0.8900 -0.4127
   39MOL   H24714763   6.041   3.469   7.414  1.8892  1.0211  1.1295
   39MOL   H24814764   6.195   3.410   7.472  0.5361 -1.6365 -2.1994
   39MOL   C24914765   6.036   3.383   7.615  0.1599  0.3871  0.1921
   39MOL   C25014766   5.955   3.513   7.656  0.1367 -0.3610 -0.9340
   39MOL   C25114767   5.818   3.528   7.584  0.1504 -0.0169 -0.0815
   39MOL   C25214768   5.802   3.672   7.557 -0.3933  0.1815  0.5512
   39MOL   C25314769   5.917   3.745   7.627  0.4813  0.4840 -0.6585
   39MOL   C25414770   6.035   3.646   7.650 -0.3521 -0.9382 -0.0985
   39MOL   C25514771   6.148   3.347   0.027  0.6904  0.8560  0.3262
   39MOL   H25614772   5.968   3.297   7.622  0.6574  0.0106  0.4274
   39MOL   H25714773   5.917   3.490   0.066  2.0847  0.3955 -0.0035
   39MOL   H25814774   5.736   3.481   7.638  0.0257 -1.2344 -1.3256
   39MOL   H25914775   5.823   3.474   7.490 -0.1918  0.3119 -0.2906
   39MOL   H26014776   5.700   3.698   7.583 -0.7491 -0.2431 -0.3927
   39MOL   H26114777   5.803   3.688   7.449 -0.5446 -0.2926  0.4773
   39MOL   H26214778   5.872   3.772   0.033 -0.0206 -1.3040 -0.3771
   39MOL   H26314779   5.945   3.839   7.580 -2.2473  0.5519 -2.2717
   39MOL   H26414780   6.098   3.651   0.049 -1.6863 -1.4700  0.8986
   39MOL   H26514781   6.099   3.652   7.562 -0.0507 -0.9428  0.1211
   39MOL   H26614782   6.193   3.263   7.663  0.0725  0.4880  0.3769
   39MOL   H26714783   6.220   3.429   0.017  0.4969  0.9407 -0.4678
   39MOL   C26814784   6.095   3.321   0.178 -0.1739 -0.0134 -0.2344
   39MOL   C26914785   6.190   3.385   0.280 -0.5013  0.5578  0.2164
   39MOL   C27014786   6.151   3.365   0.426  0.0800  0.3647 -0.3372
   39MOL   C27114787   6.210   3.477   0.511  0.2434 -0.0918  0.7006
   39MOL   C27214788   6.275   3.577   0.409  0.0989 -0.2631  0.2009
   39MOL   C27314789   6.208   3.538   0.278  0.9716  0.1082 -0.2766
   39MOL   C27414790   6.084   3.164   0.202  0.4197 -0.3280  0.1716
   39MOL   H27514791   5.994   3.356   0.198 -0.2553 -0.1028 -0.4843
   39MOL   H27614792   6.287   3.340   0.257 -0.7395 -0.7042  1.5915
   39MOL   H27714793   6.043   3.373   0.432 -0.2773 -0.8604 -4.2350
   39MOL   H27814794   6.176   3.266   0.464  0.5891  0.4861 -0.3507
   39MOL   H27914795   6.140   3.540   0.566 -1.2508 -0.4995 -0.6937
   39MOL   H28014796   6.277   3.434   0.585  2.0097  2.5217  0.7112
   39MOL   H28114797   6.383   3.573   0.404  0.0896  0.6519 -1.1100
   39MOL   H28214798   6.250   3.681   0.433 -0.2585 -0.5108  0.8967
   39MOL   H28314799   6.259   3.569   0.187  1.4757 -2.0188 -0.7400
   39MOL   H28414800   6.117   3.595   0.263  0.6838 -0.1743  0.3912
   39MOL   H28514801   6.170   3.130   0.259  0.3829  2.1149  1.7565
   39MOL   H28614802   6.088   3.116   0.105 -1.8429 -4.2811  1.9382
   39MOL   C28714803   5.955   3.114   0.272 -0.4163 -0.4287 -0.2232
   39MOL   C28814804   5.832   3.124   0.176  0.4394 -0.4562  0.6379
   39MOL   C28914805   5.828   3.032   0.057  0.5256  0.4267 -0.2671
   39MOL   C29014806   5.686   3.036   7.689 -0.1592 -0.3259  0.7283
   39MOL   C29114807   5.598   3.103   0.103  0.2786  0.1845 -0.5115
   39MOL   C29214808   5.688   3.100   0.234 -0.6839 -0.8703  1.2273
   39MOL   C29314809   5.986   2.977   0.334  0.2182 -0.1145  0.1860
   39MOL   H29414810   5.921   3.184   0.349  1.0122 -0.7739  0.7464
   39MOL   H29514811   5.824   3.229   0.146  1.2923 -0.2274  1.1730
   39MOL   H29614812   5.904   3.066   7.676  1.8508  0.7503  1.2794
   39MOL   H29714813   5.851   2.929   0.084  2.1325  0.9881  0.6088
   39MOL   H29814814   5.683   3.104   7.603  1.6204  0.2403  1.0781
   39MOL   H29914815   5.659   2.936   7.657  3.1332 -1.2076  0.4599
   39MOL   H30014816   5.500   3.058   0.120 -0.0027 -0.1759 -2.9184
   39MOL   H30114817   5.584   3.206   0.068  0.6401  0.1293 -0.8231
   39MOL   H30214818   5.687   2.995   0.265 -0.5380 -0.9869  0.8494
   39MOL   H30314819   5.665   3.168   0.316 -1.5167  0.5168 -0.1342
   39MOL   H30414820   6.089   2.975   0.370  0.9052  2.0108 -1.5198
   39MOL   H30514821   5.986   2.894   0.264 -0.4857  1.1253 -1.3098
   39MOL   C30614822   5.903   2.944   0.464  0.7095 -0.4641  0.2793
   39MOL   C30714823   5.931   2.793   0.509 -0.4810 -0.1647 -0.2909
   39MOL   C30814824   5.869   2.688   0.416 -0.6898 -0.0594  0.2124
   39MOL   C30914825   5.986   2.590   0.383 -0.0333  0.3412 -0.1356
   39MOL   C31014826   6.079   2.595   0.502 -0.4581  0.3992 -0.1204
   39MOL   C31114827   6.075   2.744   0.546 -0.5575  0.6998 -0.4730
   39MOL   C31214828   5.952   3.039   0.574  0.1423  0.1059 -0.3209
   39MOL   H31314829   5.796   2.953   0.445  1.2188  1.9991 -1.7210
   39MOL   H31414830   5.871   2.791   0.600  0.0994 -1.6010  0.0777
   39MOL   H31514831   5.823   2.738   0.331 -1.2795 -0.0419  0.5365
   39MOL   H31614832   5.779   2.644   0.457 -0.8936  0.7718  0.6680
   39MOL   H31714833   5.957   2.487   0.364  2.6564 -0.7644  1.4302
   39MOL   H31814834   6.023   2.625   0.287  0.8379 -0.3348 -0.0486
   39MOL   H31914835   6.180   2.560   0.481 -0.1161  1.7599 -0.8179
   39MOL   H32014836   6.028   2.530   0.573 -1.1291  2.7616  1.6015
   39MOL   H32114837   6.108   2.761   0.649 -2.2497  2.1376 -0.1446
   39MOL   H32214838   6.156   2.792   0.492  0.5671  0.1859  0.7276
   39MOL   H32314839   5.936   3.142   0.543  1.1516  0.5091  0.4572
   39MOL   H32414840   6.059   3.024   0.583  0.1290 -1.9599 -3.1353
   39MOL   C32514841   5.878   3.027   0.712 -0.0582  0.1708  0.3938
   39MOL   C32614842   5.731   3.062   0.690 -0.5580  0.1052 -0.0171
   39MOL   C32714843   5.696   3.201   0.645  0.4426 -0.8539 -0.0355
   39MOL   C32814844   5.537   3.210   0.668 -0.1241 -0.6752  0.5313
   39MOL   C32914845   5.506   3.107   0.778  0.5306  0.4949  0.3709
   39MOL   C33014846   5.642   3.045   0.818 -0.3130 -0.3256 -0.0893
   39MOL   C33114847   5.935   3.129   0.816 -0.6608  0.1088  0.4999
   39MOL   H33214848   5.894   2.925   0.745  0.1664 -0.1737 -0.7632
   39MOL   H33314849   5.678   2.994   0.623 -0.2002  1.4945 -1.7534
   39MOL   H33414850   5.714   3.228   0.540 -2.8317  0.7967 -0.2440
   39MOL   H33514851   5.746   3.269   0.712  2.0368 -1.1934 -0.8551
   39MOL   H33614852   5.493   3.186   0.571  3.9337 -1.6660 -1.1487
   39MOL   H33714853   5.513   3.308   0.709  1.4014  0.2917 -0.8257
   39MOL   H33814854   5.429   3.037   0.745 -0.7116  1.8244  0.3980
   39MOL   H33914855   5.457   3.152   0.864 -0.5053 -0.3282  0.2242
   39MOL   H34014856   5.634   2.942   0.854  1.4821 -0.4187  0.0788
   39MOL   H34114857   5.664   3.113   0.901 -0.1254  0.7227 -0.9817
   39MOL   H34214858   5.866   3.132   0.900 -0.9480  2.6372  0.1943
   39MOL   H34314859   5.935   3.231   0.778  2.2987  0.0450  0.2224
   39MOL   C34414860   6.080   3.083   0.863 -0.5490  0.4744  0.2666
   39MOL   C34514861   6.089   3.052   1.013  0.2994  0.5265 -0.5499
   39MOL   C34614862   6.006   2.934   1.069 -0.0181 -0.5570 -0.4783
   39MOL   C34714863   6.004   2.957   1.222  0.0460 -0.0203  0.4338
   39MOL   C34814864   6.020   3.100   1.231 -0.2007 -0.7276 -0.0799
   39MOL   C34914865   6.057   3.165   1.106  0.0898  0.6262 -0.0942
   39MOL   C35014866   6.187   3.171   0.807  0.1629  0.2498  0.0503
   39MOL   H35114867   6.106   2.990   0.812 -1.9454 -0.4209  1.1336
   39MOL   H35214868   6.195   3.032   1.025  0.8964  3.1288 -1.2722
   39MOL   H35314869   6.059   2.846   1.033  0.1607 -0.5806 -0.1568
   39MOL   H35414870   5.907   2.920   1.027  0.8395 -1.8823 -2.1212
   39MOL   H35514871   5.911   2.920   1.265 -0.7140  0.7688 -0.4964
   39MOL   H35614872   6.090   2.901   1.259  0.1750  1.1666  1.9422
   39MOL   H35714873   6.083   3.103   1.320 -3.1834 -2.9178  2.1917
   39MOL   H35814874   5.928   3.144   1.269 -1.3144 -2.2579 -0.9533
   39MOL   H35914875   5.964   3.214   1.078 -0.0287  0.9816  0.8778
   39MOL   H36014876   6.139   3.233   1.129 -0.5879  1.7646 -1.0269
   39MOL   H36114877   6.187   3.259   0.871  1.1899  0.7119 -0.5789
   39MOL   H36214878   6.161   3.194   0.704 -0.3933 -1.4691 -0.2070
   39MOL   C36314879   6.334   3.121   0.812 -0.2217  0.6993  0.6902
   39MOL   C36414880   6.418   3.135   0.683  0.1320 -0.0521  0.1833
   39MOL   C36514881   6.383   3.039   0.566 -0.1398 -0.0687 -0.0138
   39MOL   C36614882   6.517   2.995   0.511  0.1708 -0.1677 -0.0410
   39MOL   C36714883   6.629   3.095   0.555 -0.3245  0.2796 -0.7239
   39MOL   C36814884   6.576   3.129   0.697 -0.2992 -0.5967  0.0301
   39MOL   C36914885   6.407   3.198   0.927 -0.8925 -0.0604 -1.0100
   39MOL   H37014886   6.336   3.015   0.837  1.2721  0.2232 -1.3765
   39MOL   H37114887   6.406   3.237   0.647 -0.5545 -0.2647 -0.1933
   39MOL   H37214888   6.323   2.959   0.610 -1.9463  0.4785 -1.4371
   39MOL   H37314889   6.326   3.092   0.490  0.3378  0.4103 -0.0429
   39MOL   H37414890   6.536   2.899   0.560 -1.0642 -0.7024 -0.5923
   39MOL   H37514891   6.528   2.965   0.407 -0.0222  0.2749 -0.1884
   39MOL   H37614892   6.724   3.041   0.565 -0.8228 -0.9288 -2.3577
   39MOL   H37714893   6.625   3.181   0.489 -0.9175  0.7288 -0.1094
   39MOL   H37814894   6.621   3.227   0.717 -0.6096 -0.5875  0.7063
   39MOL   H37914895   6.602   3.055   0.773 -1.3804  0.7096  1.7356
   39MOL   H38014896   6.496   3.151   0.969 -0.2163  2.1606  0.1281
   39MOL   H38114897   6.350   3.196   1.020  2.8852 -1.4414  1.3895
   39MOL   H38214898   6.428   3.301   0.900 -2.8608  0.4241 -0.7708
   40MOL     C114899   6.416   5.816   6.072  0.6164 -0.0760 -0.4989
   40MOL     C214900   6.339   5.777   5.949  0.2740 -0.2865  0.1624
   40MOL     C314901   6.242   5.883   5.893  0.0271  0.3910  0.4379
   40MOL     C414902   6.165   5.800   5.792  0.0608 -0.5889  0.7435
   40MOL     C514903   6.147   5.661   5.858 -0.0524 -1.0833  0.1664
   40MOL     C614904   6.236   5.668   5.978  0.2534  0.0029  0.4474
   40MOL     C714905   6.523   5.917   6.049 -0.5215 -0.0172 -0.0255
   40MOL     H814906   6.344   5.857   6.144 -0.1280 -1.8512 -0.2044
   40MOL     H914907   6.403   5.729   5.875  0.8900 -0.9876  1.1259
   40MOL    H1014908   6.180   5.923   5.973 -0.2101 -1.8539  1.4060
   40MOL    H1114909   6.288   5.967   5.840  1.0681 -0.9677 -0.8396
   40MOL    H1214910   6.078   5.849   5.748 -0.9093 -3.6160 -0.8784
   40MOL    H1314911   6.230   5.785   5.706  0.7215  0.0813  1.1232
   40MOL    H1414912   6.044   5.626   5.871 -0.8280  0.6904 -1.0554
   40MOL    H1514913   6.189   5.584   5.793  1.0184  0.5379 -1.0954
   40MOL    H1614914   6.268   5.565   5.995  1.1729  0.3569  0.9144
   40MOL    H1714915   6.176   5.687   6.067 -1.1484  1.4276 -0.7605
   40MOL    H1814916   6.614   5.872   6.009  1.9461  3.0163  1.9167
   40MOL    H1914917   6.487   5.983   5.970  0.1547 -0.0838 -0.3974
   40MOL    H2014918   6.455   5.727   6.122  0.0396 -0.6307 -1.0292
   40MOL    C2114919   6.563   6.007   6.159  0.3225 -0.1149 -1.0070
   40MOL    C2214920   6.445   6.106   6.204 -0.3983  0.6646  0.4193
   40MOL    C2314921   6.418   6.205   6.087  0.1716  0.6531  0.9295
   40MOL    C2414922   6.348   6.321   6.157  0.2773 -0.1472 -0.0867
   40MOL    C2514923   6.395   6.323   6.310 -0.1016 -0.2700  0.3535
   40MOL    C2614924   6.481   6.197   6.319 -0.4383  0.1054 -0.6308
   40MOL    C2714925   6.618   5.929   6.284 -0.6581  0.3929 -0.0174
   40MOL    H2814926   6.641   6.074   6.123  2.1553 -0.8608  1.4633
   40MOL    H2914927   6.357   6.045   6.227  1.5427 -1.9776  1.1552
   40MOL    H3014928   6.362   6.158   6.006  2.1267 -0.3277  0.1045
   40MOL    H3114929   6.515   6.230   6.042  2.8017 -3.9368  3.6678
   40MOL    H3214930   6.377   6.416   6.110 -1.1499  0.0408 -0.6107
   40MOL    H3314931   6.240   6.307   6.152  0.4067 -0.9791 -0.6178
   40MOL    H3414932   6.306   6.318   6.372 -0.4253  0.5534 -0.0258
   40MOL    H3514933   6.457   6.410   6.334 -0.1614 -1.0062  3.2267
   40MOL    H3614934   6.461   6.147   6.414 -0.3581  1.7545  0.2759
   40MOL    H3714935   6.582   6.237   6.311 -0.7000  0.6781 -1.0496
   40MOL    H3814936   6.663   6.005   6.349 -0.6705 -0.5154  1.0598
   40MOL    H3914937   6.548   5.880   6.351  0.3738 -1.2351 -0.0977
   40MOL    C4014938   6.719   5.805   6.277 -0.4759 -0.4424  0.9091
   40MOL    C4114939   6.865   5.855   6.259  0.1020 -0.3665  0.2551
   40MOL    C4214940   6.890   5.960   6.136 -0.0061 -0.3032 -0.5441
   40MOL    C4314941   7.041   5.960   6.115  0.3667  0.1277  1.1021
   40MOL    C4414942   7.065   5.806   6.137 -0.0916 -0.0313 -0.1893
   40MOL    C4514943   6.983   5.760   6.261  0.6502 -0.3781 -0.0176
   40MOL    C4614944   6.709   5.715   6.404 -0.2751  0.0023  0.7547
   40MOL    H4714945   6.691   5.746   6.190  4.0229 -1.0645 -0.2188
   40MOL    H4814946   6.877   5.909   6.353 -2.8094 -0.9704  1.0224
   40MOL    H4914947   6.850   6.058   6.158  2.0608 -0.1294  2.7983
   40MOL    H5014948   6.849   5.929   6.040 -0.2706  1.3419 -0.9641
   40MOL    H5114949   7.083   6.027   6.191 -1.4401  1.5391  0.8930
   40MOL    H5214950   7.073   5.998   6.018 -1.6994  0.6170  0.5771
   40MOL    H5314951   7.028   5.756   6.048  0.2679  1.2755 -1.0995
   40MOL    H5414952   7.172   5.792   6.152 -0.1561  0.3135  0.5833
   40MOL    H5514953   6.958   5.655   6.251  0.6885 -0.2364 -1.8593
   40MOL    H5614954   7.051   5.784   6.343 -0.7916 -0.4036  1.2059
   40MOL    H5714955   6.798   5.656   6.422 -1.9175 -2.9723 -0.5474
   40MOL    H5814956   6.687   5.769   6.496  0.7291 -0.8662  1.5120
   40MOL    C5914957   6.606   5.599   6.381  0.1355 -0.2415 -0.4889
   40MOL    C6014958   6.660   5.485   6.293 -0.1030  0.0223 -1.1481
   40MOL    C6114959   6.538   5.409   6.240 -0.4478 -0.2353 -0.2847
   40MOL    C6214960   6.599   5.277   6.204  0.5822  0.0333  0.0633
   40MOL    C6314961   6.708   5.243   6.310 -0.5276  0.1596 -0.2941
   40MOL    C6414962   6.754   5.382   6.356  0.0265  0.4538  0.2227
   40MOL    C6514963   6.534   5.548   6.509  0.7040  0.0760  0.1128
   40MOL    H6614964   6.531   5.651   6.320 -0.8021 -1.4304 -0.3615
   40MOL    H6714965   6.711   5.534   6.209 -0.6168 -1.2286 -2.2079
   40MOL    H6814966   6.491   5.460   6.156 -0.0525 -0.3827 -0.5969
   40MOL    H6914967   6.462   5.383   6.313  0.1590  1.5927  1.0408
   40MOL    H7014968   6.639   5.269   6.103  2.7673 -0.7663  0.9573
   40MOL    H7114969   6.510   5.214   6.195  0.7187 -0.0414 -0.8338
   40MOL    H7214970   6.793   5.184   6.275 -0.0390  0.2937  0.6440
   40MOL    H7314971   6.666   5.185   6.392  0.5164 -0.5521 -0.2461
   40MOL    H7414972   6.779   5.382   6.462  0.4405  0.4868  0.1257
   40MOL    H7514973   6.853   5.398   6.313 -0.6004  2.2680 -0.6058
   40MOL    H7614974   6.607   5.531   6.588  0.0897  0.2907  0.7276
   40MOL    H7714975   6.495   5.446   6.505  1.2081 -0.2608  3.1282
   40MOL    C7814976   6.414   5.631   6.558  0.7488 -0.0328  0.5154
   40MOL    C7914977   6.278   5.603   6.482 -0.6038 -0.5097  0.5324
   40MOL    C8014978   6.170   5.703   6.495  0.2535 -0.1299 -0.4413
   40MOL    C8114979   6.041   5.628   6.472 -0.4918 -0.0160  0.5176
   40MOL    C8214980   6.059   5.483   6.525  0.3469  0.2175  0.5792
   40MOL    C8314981   6.215   5.466   6.515 -0.5913  0.3176  0.4077
   40MOL    C8414982   6.397   5.624   6.711 -0.4607 -0.3220  0.1489
   40MOL    H8514983   6.434   5.736   6.537 -0.1884  0.3941  1.7231
   40MOL    H8614984   6.301   5.592   6.376  0.6838  1.9612  0.5316
   40MOL    H8714985   6.173   5.781   6.419  1.8839 -1.6408 -1.9491
   40MOL    H8814986   6.161   5.755   6.591  0.3131 -1.7808  0.4641
   40MOL    H8914987   6.012   5.614   6.368 -0.6186 -1.9931  0.8023
   40MOL    H9014988   5.956   5.678   6.518  0.8548  1.8861  0.9716
   40MOL    H9114989   6.023   5.475   6.628 -2.5915  0.2243 -0.4033
   40MOL    H9214990   6.019   5.399   6.469 -1.0148 -0.3210  2.3184
   40MOL    H9314991   6.245   5.422   6.610 -0.9962  1.3430  1.0137
   40MOL    H9414992   6.237   5.396   6.434  0.5061  0.7461  0.3313
   40MOL    H9514993   6.429   5.527   6.750 -1.5733 -0.2855  1.1831
   40MOL    H9614994   6.290   5.609   6.724 -0.6928  0.8767 -0.3680
   40MOL    C9714995   6.446   5.741   6.807  0.6360  0.2164  0.1723
   40MOL    C9814996   6.603   5.737   6.807  0.1733  0.1892 -0.3431
   40MOL    C9914997   6.666   5.872   6.858 -0.0546  0.3928 -0.3226
   40MOL   C10014998   6.809   5.855   6.910  0.6379  0.1264 -0.7252
   40MOL   C10114999   6.808   5.699   6.937  0.1427 -0.4063 -0.4194
   40MOL   C10215000   6.676   5.636   6.896 -0.1167  0.0780 -0.3871
   40MOL   C10315001   6.378   5.732   6.951 -0.2295 -0.4702  0.3536
   40MOL   H10415002   6.412   5.831   6.758 -0.2853 -0.4898 -0.4936
   40MOL   H10515003   6.646   5.713   6.710  0.8132 -0.9235  0.2125
   40MOL   H10615004   6.668   5.954   6.786 -1.6094  1.2019  0.5227
   40MOL   H10715005   6.588   5.903   6.928 -0.7753 -0.4094 -0.7601
   40MOL   H10815006   6.827   5.901   7.008 -0.7172 -1.3119  0.2350
   40MOL   H10915007   6.882   5.895   6.840  2.5755 -0.6188  0.8138
   40MOL   H11015008   6.821   5.679   7.043 -1.8556 -1.0794 -0.2744
   40MOL   H11115009   6.893   5.651   6.889  1.2069  0.4895  0.5384
   40MOL   H11215010   6.706   5.541   6.852  0.9719 -0.7213  1.9886
   40MOL   H11315011   6.618   5.612   6.986  0.9680  1.0180  0.5790
   40MOL   H11415012   6.367   5.627   6.978 -0.7813 -0.4712  0.1193
   40MOL   H11515013   6.436   5.783   7.029 -1.3898  1.5268 -0.0541
   40MOL   C11615014   6.240   5.795   6.964 -0.9717 -0.7756 -0.2367
   40MOL   C11715015   6.147   5.713   7.063 -0.4721 -0.6008  0.2487
   40MOL   C11815016   6.115   5.566   7.010 -1.0893  0.5208  0.8598
   40MOL   C11915017   6.183   5.473   7.111 -0.3016  0.1140  0.1636
   40MOL   C12015018   6.180   5.549   7.240 -0.4254 -0.1993 -0.6999
   40MOL   C12115019   6.198   5.694   7.203 -0.4089 -0.5135  0.3709
   40MOL   C12215020   6.252   5.945   7.001  1.0240  0.7996  0.0788
   40MOL   H12315021   6.211   5.793   6.859 -1.8069 -0.5475 -0.0196
   40MOL   H12415022   6.053   5.768   7.072 -0.2077  0.1583 -1.3842
   40MOL   H12515023   6.010   5.537   7.008 -0.4087 -2.1325  1.5088
   40MOL   H12615024   6.160   5.545   6.913 -1.8564  2.0527  0.1572
   40MOL   H12715025   6.284   5.445   7.083 -0.3408  0.2118 -0.0801
   40MOL   H12815026   6.110   5.392   7.112 -1.5810  1.2015  4.0573
   40MOL   H12915027   6.250   5.507   7.312  0.0700  1.0481 -0.4371
   40MOL   H13015028   6.082   5.536   7.285  1.5862 -0.4912  3.8271
   40MOL   H13115029   6.150   5.761   7.275 -3.4900  0.0991 -2.1590
   40MOL   H13215030   6.307   5.705   7.208 -0.2831 -1.2913 -0.4718
   40MOL   H13315031   6.340   5.994   6.960  0.3223  1.4901 -0.6229
   40MOL   H13415032   6.278   5.956   7.106  0.2511  0.1104  0.3479
   40MOL   C13515033   6.138   6.032   6.951  0.0366 -0.3284 -0.3659
   40MOL   C13615034   6.182   6.120   6.829  0.5316 -0.3073  0.9909
   40MOL   C13715035   6.057   6.195   6.777 -0.2038 -0.0749  0.8681
   40MOL   C13815036   6.080   6.197   6.621  0.9069 -0.8219 -0.3259
   40MOL   C13915037   6.220   6.150   6.602  0.7990 -0.2074  0.3790
   40MOL   C14015038   6.245   6.048   6.711 -0.3802 -0.3968 -0.4011
   40MOL   C14115039   6.087   6.115   7.071  0.1838  0.3365 -0.2189
   40MOL   H14215040   6.062   5.963   6.913 -1.6636  1.5901 -0.5528
   40MOL   H14315041   6.239   6.207   6.861  1.0484  0.0730 -0.9200
   40MOL   H14415042   5.971   6.128   6.786  1.6216 -2.5473  0.6529
   40MOL   H14515043   6.030   6.288   6.827  1.5027  0.8350  0.1383
   40MOL   H14615044   6.069   6.297   6.580 -1.3152 -0.7410  0.3958
   40MOL   H14715045   6.010   6.127   6.574  2.2098 -2.1959 -0.2417
   40MOL   H14815046   6.280   6.241   6.606 -0.5464  0.7456 -0.5490
   40MOL   H14915047   6.247   6.105   6.506  0.0006 -2.7830  1.3121
   40MOL   H15015048   6.209   5.953   6.672  1.0022 -0.4628 -1.5617
   40MOL   H15115049   6.353   6.037   6.720 -0.1664 -1.4796 -3.5298
   40MOL   H15215050   6.031   6.203   7.038  3.9141  1.8332 -2.8115
   40MOL   H15315051   6.171   6.169   7.112 -1.0496  1.6652  0.6091
   40MOL   C15415052   5.997   6.038   7.169 -0.0256  0.1222 -0.3063
   40MOL   C15515053   6.005   6.090   7.317  0.0189  0.3001  0.7466
   40MOL   C15615054   5.966   6.241   7.328 -0.0246  0.7788  0.1601
   40MOL   C15715055   6.044   6.305   7.446  0.1365  0.1693  0.3501
   40MOL   C15815056   6.112   6.188   7.514  0.4564  0.1298  0.4819
   40MOL   C15915057   6.139   6.090   7.397  0.4599 -0.1725  0.1523
   40MOL   C16015058   5.849   6.031   7.112  0.0030 -0.7082 -0.5491
   40MOL   H16115059   6.033   5.935   7.178  1.2661  0.4755 -1.2604
   40MOL   H16215060   5.927   6.044   7.379 -0.2491  0.4043  0.4906
   40MOL   H16315061   5.987   6.302   7.240  0.1500  1.1427  0.4513
   40MOL   H16415062   5.857   6.243   7.337 -0.2594 -0.1052 -2.0692
   40MOL   H16515063   6.126   6.372   7.420 -1.8509  3.2469  1.6498
   40MOL   H16615064   5.980   6.356   7.518 -1.9940 -0.0912 -1.3081
   40MOL   H16715065   6.059   6.138   7.595 -0.7068 -0.9153 -0.8919
   40MOL   H16815066   6.209   6.217   7.555 -0.3906  0.1007  2.5674
   40MOL   H16915067   6.160   5.989   7.433 -0.6189 -0.7089 -0.6821
   40MOL   H17015068   6.228   6.124   7.345  0.4291 -1.0653 -0.5065
   40MOL   H17115069   5.851   5.993   7.010 -0.7636 -0.8585 -0.5164
   40MOL   H17215070   5.815   6.135   7.103 -1.3167 -1.0886 -0.1106
   40MOL   C17315071   5.736   5.966   7.195  0.0588 -0.2004  0.7953
   40MOL   C17415072   5.772   5.823   7.253 -0.1499 -0.2584 -0.5035
   40MOL   C17515073   5.770   5.702   7.167 -0.1335  0.3839 -0.2717
   40MOL   C17615074   5.767   5.589   7.274  0.4226  0.2694  0.9033
   40MOL   C17715075   5.694   5.646   7.399 -0.4051  0.7845  0.2605
   40MOL   C17815076   5.684   5.792   7.380  0.3382 -0.2892  0.1925
   40MOL   C17915077   5.607   5.960   7.114 -0.2981 -0.1578 -0.4413
   40MOL   H18015078   5.731   6.027   7.285  3.1026 -0.1555  0.9902
   40MOL   H18115079   5.878   5.819   7.280  0.3242  1.5459 -2.0206
   40MOL   H18215080   5.858   5.704   7.102  0.6834  2.8371  0.8457
   40MOL   H18315081   5.676   5.697   7.111  0.2924  0.5754 -1.0154
   40MOL   H18415082   5.722   5.496   7.239  1.8593  0.0955 -0.5518
   40MOL   H18515083   5.866   5.560   7.310  1.3655  1.9597 -0.2539
   40MOL   H18615084   5.748   5.641   7.493  0.4790 -0.4463 -0.2986
   40MOL   H18715085   5.595   5.601   7.416  0.5786 -1.8958 -0.8125
   40MOL   H18815086   5.581   5.821   7.360  0.0571 -1.8557 -0.7361
   40MOL   H18915087   5.708   5.849   7.470  0.9098  1.3626 -0.9786
   40MOL   H19015088   5.620   5.895   7.027  0.1513 -2.4772  1.3003
   40MOL   H19115089   5.528   5.917   7.175 -0.4413  0.1136 -0.4346
   40MOL   C19215090   5.548   6.101   7.068 -0.2082 -0.1067 -0.4362
   40MOL   C19315091   5.529   6.192   7.180  0.4188  0.2117 -0.8141
   40MOL   C19415092   5.424   6.157   7.291  0.0625  0.2914  0.3733
   40MOL   C19515093   5.380   6.294   7.334 -0.3103 -0.1190  0.0679
   40MOL   C19615094   5.475   6.400   7.264 -0.1416  0.2667  0.0463
   40MOL   C19715095   5.511   6.335   7.133 -0.3592 -0.5149 -0.1420
   40MOL   C19815096   5.415   6.073   6.987 -0.1805 -0.3475 -0.7461
   40MOL   H19915097   5.615   6.149   6.996  0.6001 -0.8625 -0.1886
   40MOL   H20015098   5.625   6.198   7.232  0.9699 -1.4030 -1.5846
   40MOL   H20115099   5.469   6.098   7.370  0.7163  1.2217  0.7067
   40MOL   H20215100   5.334   6.104   7.260 -0.5279  1.8933 -0.7445
   40MOL   H20315101   5.275   6.302   7.306 -0.2022 -0.8978 -0.5734
   40MOL   H20415102   5.392   6.297   7.442  0.1228 -0.9552  0.0517
   40MOL   H20515103   5.562   6.434   7.319 -1.4699 -0.4275  2.6496
   40MOL   H20615104   5.420   6.492   7.243  0.6415  0.5569 -0.7560
   40MOL   H20715105   5.603   6.387   7.105 -0.6837 -0.4740 -1.1496
   40MOL   H20815106   5.449   6.353   7.045  0.2715 -0.6807 -0.6267
   40MOL   H20915107   5.353   5.998   7.037  1.3076 -1.8277 -1.0813
   40MOL   H21015108   5.364   6.169   6.985  3.3343  1.5801 -1.2851
   40MOL   C21115109   5.436   6.029   6.838 -0.2635 -0.3921 -0.1743
   40MOL   C21215110   5.311   5.954   6.786  0.0987 -0.1809 -0.3974
   40MOL   C21315111   5.286   5.819   6.848 -0.0234  0.0986 -0.2149
   40MOL   C21415112   5.149   5.783   6.807 -0.2412  0.4708  0.1718
   40MOL   C21515113   5.071   5.912   6.803 -0.7634 -0.1759 -0.0204
   40MOL   C21615114   5.175   6.023   6.808  0.0730 -0.2897 -0.4481
   40MOL   C21715115   5.470   6.152   6.747  0.1751  0.8835  0.7300
   40MOL   H21815116   5.514   5.954   6.833 -1.2051 -1.3566 -0.5997
   40MOL   H21915117   5.306   5.917   6.683  0.3105 -2.1236  0.2615
   40MOL   H22015118   5.370   5.751   6.831 -0.0268 -0.4697  1.9012
   40MOL   H22115119   5.290   5.827   6.956 -2.1271 -0.3428 -0.0853
   40MOL   H22215120   5.146   5.739   6.708 -1.3812 -0.2724  0.5216
   40MOL   H22315121   5.103   5.712   6.876  0.3322  0.0494  0.1176
   40MOL   H22415122   5.008   5.923   6.891 -0.7127 -0.7498  0.0893
   40MOL   H22515123   5.004   5.912   6.716 -0.0196  0.6657 -0.6013
   40MOL   H22615124   5.152   6.110   6.747  0.0533  0.5913  0.7928
   40MOL   H22715125   5.166   6.074   6.904 -0.4429  0.8932 -1.1172
   40MOL   H22815126   5.573   6.178   6.773  1.6135 -2.4555 -1.2903
   40MOL   H22915127   5.400   6.231   6.774 -2.0382  0.4179 -3.2134
   40MOL   C23015128   5.466   6.126   6.596  0.7188 -0.3928 -0.1477
   40MOL   C23115129   5.563   6.005   6.563  0.2496 -0.3236  0.3450
   40MOL   C23215130   5.551   5.958   6.413 -0.5583  0.4362  0.2185
   40MOL   C23315131   5.699   5.921   6.379 -0.2617 -0.3330  0.5668
   40MOL   C23415132   5.781   5.933   6.514 -0.0266  0.4303 -0.1644
   40MOL   C23515133   5.709   6.037   6.592  0.4979 -0.4340 -0.0933
   40MOL   C23615134   5.490   6.252   6.507 -0.4364 -0.1634  0.4454
   40MOL   H23715135   5.365   6.094   6.573  0.7354 -0.3238 -0.3246
   40MOL   H23815136   5.548   5.909   6.613  1.0016 -0.6398 -0.0311
   40MOL   H23915137   5.483   5.874   6.405 -0.8397  0.4809  1.9445
   40MOL   H24015138   5.514   6.033   6.342 -3.1026 -1.5456 -0.6428
   40MOL   H24115139   5.703   5.817   6.345 -2.0173 -1.3037  3.1758
   40MOL   H24215140   5.747   5.978   6.300  0.2604  0.0822  1.1832
   40MOL   H24315141   5.878   5.975   6.486  0.1043  1.0067  1.1104
   40MOL   H24415142   5.788   5.839   6.569  2.3380  0.1886 -0.8207
   40MOL   H24515143   5.747   6.136   6.566  0.6187 -0.1865  1.0102
   40MOL   H24615144   5.727   6.036   6.699 -0.8653 -1.2990  0.1423
   40MOL   H24715145   5.477   6.219   6.404 -0.1055  0.9483  0.0425
   40MOL   H24815146   5.597   6.273   6.517 -0.5385  0.4636  0.1948
   40MOL   C24915147   5.418   6.381   6.551 -0.1187 -0.1893  0.5900
   40MOL   C25015148   5.264   6.367   6.570  0.3745 -0.0593  0.2278
   40MOL   C25115149   5.172   6.369   6.445 -1.0215  0.5038  0.0257
   40MOL   C25215150   5.036   6.400   6.505 -0.4473  0.6162  0.2264
   40MOL   C25315151   5.059   6.458   6.641  0.5461  0.2071  0.5051
   40MOL   C25415152   5.206   6.478   6.656 -0.0185  0.4451  0.1814
   40MOL   C25515153   5.464   6.504   6.470 -0.1941 -0.5797  0.1429
   40MOL   H25615154   5.446   6.406   6.654  0.2937 -2.5416  1.0829
   40MOL   H25715155   5.249   6.275   6.627  2.1093 -0.3837  0.2051
   40MOL   H25815156   5.167   6.268   6.404  1.2612  0.1432  0.5455
   40MOL   H25915157   5.207   6.436   6.368  2.4828 -2.6365 -1.2701
   40MOL   H26015158   4.961   6.322   6.494 -1.0634  1.2020  0.1517
   40MOL   H26115159   4.995   6.488   6.453 -2.7304 -1.3773 -1.4790
   40MOL   H26215160   5.022   6.380   6.708  1.5100 -0.7330 -0.0386
   40MOL   H26315161   4.998   6.547   6.656  0.1767  0.1871 -0.8013
   40MOL   H26415162   5.237   6.473   6.760 -1.0326  1.6113  0.5501
   40MOL   H26515163   5.222   6.581   6.624 -0.2341  0.5017  0.2552
   40MOL   H26615164   5.441   6.498   6.363 -1.6368 -0.4921  0.4398
   40MOL   H26715165   5.409   6.596   6.491 -1.6116 -0.9548 -1.7461
   40MOL   C26815166   5.618   6.525   6.479 -0.6423  0.2505  0.6749
   40MOL   C26915167   5.683   6.517   6.621  0.2122  1.1691 -0.8579
   40MOL   C27015168   5.654   6.639   6.708  0.0513  0.3501 -0.9474
   40MOL   C27115169   5.771   6.648   6.807 -0.4855  0.2794 -0.4570
   40MOL   C27215170   5.885   6.552   6.751  0.0950  0.5187 -0.0266
   40MOL   C27315171   5.834   6.498   6.616  0.0719  0.6395  0.0997
   40MOL   C27415172   5.662   6.664   6.408 -0.4668 -0.2141  0.1430
   40MOL   H27515173   5.663   6.445   6.421  1.5662  0.4739  2.0154
   40MOL   H27615174   5.648   6.428   6.674 -0.2318  1.6427 -0.3399
   40MOL   H27715175   5.636   6.732   6.655  1.5083  0.8894 -0.5243
   40MOL   H27815176   5.562   6.605   6.756 -0.7927 -3.0597 -4.6758
   40MOL   H27915177   5.805   6.750   6.826  0.5606 -0.0081 -0.7370
   40MOL   H28015178   5.727   6.616   6.901 -0.2773  1.8016  0.1788
   40MOL   H28115179   5.893   6.473   6.825  0.7317 -0.3546 -1.0125
   40MOL   H28215180   5.977   6.610   6.752 -0.3932  1.2834  1.3968
   40MOL   H28315181   5.860   6.392   6.608  0.7329  0.8070  0.0061
   40MOL   H28415182   5.866   6.553   6.528 -0.1411  0.7923  0.1191
   40MOL   H28515183   5.755   6.703   6.449 -0.5482 -0.3248  0.4305
   40MOL   H28615184   5.584   6.733   6.441  0.8800  1.6443 -0.4374
   40MOL   C28715185   5.655   6.652   6.250  0.2379 -0.4030 -0.1408
   40MOL   C28815186   5.548   6.757   6.200 -0.5481  0.3369  0.3863
   40MOL   C28915187   5.593   6.897   6.221 -0.1030  0.4114  0.4048
   40MOL   C29015188   5.496   6.977   6.133  0.1491 -0.5706 -0.1376
   40MOL   C29115189   5.504   6.895   6.009 -0.2795  0.1308 -0.0099
   40MOL   C29215190   5.511   6.748   6.057  0.0327  0.3738 -0.3969
   40MOL   C29315191   5.795   6.658   6.185 -0.6372  0.1525 -0.3643
   40MOL   H29415192   5.609   6.555   6.231  0.6325 -0.6909  0.3756
   40MOL   H29515193   5.454   6.752   6.256 -0.5859  0.9811  0.3752
   40MOL   H29615194   5.585   6.925   6.326  0.6024 -1.2531  0.9143
   40MOL   H29715195   5.693   6.915   6.182 -0.2147 -0.4431 -0.2916
   40MOL   H29815196   5.402   6.991   6.188 -0.4364  1.1389 -1.5287
   40MOL   H29915197   5.535   7.078   6.120 -0.0375 -0.2291  1.7699
   40MOL   H30015198   5.591   6.922   5.949  0.7232 -0.9609  0.9152
   40MOL   H30115199   5.417   6.909   5.945  0.1667 -1.5727 -1.0320
   40MOL   H30215200   5.592   6.702   6.000  0.3805  2.1608 -1.3840
   40MOL   H30315201   5.417   6.697   6.036 -0.5502  1.7999 -1.3254
   40MOL   H30415202   5.847   6.748   6.220  0.1605 -1.7682  3.7803
   40MOL   H30515203   5.773   6.664   6.079 -3.4000 -1.7647  0.0523
   40MOL   C30615204   5.903   6.553   6.218 -0.7669  0.1905 -0.1398
   40MOL   C30715205   5.855   6.411   6.182  0.0792 -0.1433 -0.6988
   40MOL   C30815206   5.860   6.358   6.038 -0.0841  0.1660 -0.3961
   40MOL   C30915207   5.970   6.255   6.031  0.5729 -0.2673  0.4118
   40MOL   C31015208   5.979   6.197   6.171 -0.0048 -0.2105 -0.4177
   40MOL   C31115209   5.936   6.310   6.266 -0.3124  0.2958 -0.7870
   40MOL   C31215210   6.034   6.582   6.143  0.3469 -0.4148 -0.5557
   40MOL   H31315211   5.914   6.564   6.326 -0.1227 -2.0931  0.0533
   40MOL   H31415212   5.755   6.401   6.224  0.4808  0.3543  0.4061
   40MOL   H31515213   5.873   6.431   5.958  1.0408  1.1267  0.6482
   40MOL   H31615214   5.766   6.313   6.004 -2.2135  3.4559  0.8543
   40MOL   H31715215   5.953   6.181   5.953 -0.2962  0.0626  0.2894
   40MOL   H31815216   6.065   6.302   6.005  0.4071  0.8433  1.7633
   40MOL   H31915217   6.083   6.170   6.190 -0.7842 -3.2892 -0.1740
   40MOL   H32015218   5.915   6.109   6.185 -0.1262 -0.1948 -0.8704
   40MOL   H32115219   5.880   6.264   6.347  0.0334 -0.2067 -0.8287
   40MOL   H32215220   6.029   6.358   6.298 -0.7076  0.0998  0.6922
   40MOL   H32315221   6.005   6.605   6.040 -0.8212  1.1586  0.0956
   40MOL   H32415222   6.090   6.489   6.143 -0.7890 -1.1650  2.5239
   40MOL   C32515223   6.123   6.696   6.202  0.9550  0.1697 -0.8021
   40MOL   C32615224   6.226   6.739   6.093 -0.3764 -0.5464  0.0111
   40MOL   C32715225   6.351   6.823   6.138  1.0299  0.1315  0.4898
   40MOL   C32815226   6.407   6.885   6.015  0.3217  0.4936  0.2308
   40MOL   C32915227   6.283   6.932   5.940  0.2804 -0.4774  0.8217
   40MOL   C33015228   6.172   6.832   5.980 -0.7628 -0.1512  0.5475
   40MOL   C33115229   6.179   6.648   6.346  0.2524 -0.3724 -0.4537
   40MOL   H33215230   6.060   6.781   6.226 -0.9097 -1.4797  0.2853
   40MOL   H33315231   6.272   6.649   6.053  0.9699  0.1913 -0.1691
   40MOL   H33415232   6.414   6.755   6.196 -1.7098 -0.7448  2.5476
   40MOL   H33515233   6.317   6.903   6.203 -3.5484  1.1191 -2.8576
   40MOL   H33615234   6.460   6.816   5.950  0.8753  0.2665  0.9180
   40MOL   H33715235   6.462   6.977   6.037  3.1865  0.0761 -4.5859
   40MOL   H33815236   6.303   6.920   5.833 -0.2625  1.8140  0.4347
   40MOL   H33915237   6.259   7.035   5.966  2.8495  1.1079 -2.6562
   40MOL   H34015238   6.132   6.779   5.894 -0.7438  2.7099 -1.3010
   40MOL   H34115239   6.071   6.867   6.001 -0.9211  0.1775 -0.6944
   40MOL   H34215240   6.280   6.615   6.319  1.6708  1.8412  1.8604
   40MOL   H34315241   6.129   6.557   6.377  0.5233  0.4912  2.6778
   40MOL   C34415242   6.197   6.758   6.453  0.3376 -0.2524 -0.8320
   40MOL   C34515243   6.289   6.700   6.566 -0.2043 -0.0891  0.4302
   40MOL   C34615244   6.431   6.672   6.522  0.1715 -0.3470  0.1985
   40MOL   C34715245   6.493   6.602   6.644 -0.5364  0.5340  0.1497
   40MOL   C34815246   6.381   6.526   6.700 -0.0448 -0.6354 -0.7809
   40MOL   C34915247   6.247   6.581   6.648  0.6612 -0.4951  0.2430
   40MOL   C35015248   6.061   6.823   6.497 -0.9224 -0.7257  0.2044
   40MOL   H35115249   6.250   6.840   6.404  0.0496  0.9219  0.7768
   40MOL   H35215250   6.300   6.786   6.632 -1.3255  1.2323 -1.0808
   40MOL   H35315251   6.483   6.765   6.501 -0.7312 -0.1591 -1.2501
   40MOL   H35415252   6.445   6.597   6.444 -0.4737  2.1387 -2.3797
   40MOL   H35515253   6.584   6.550   6.615  0.1378  1.3820  0.7371
   40MOL   H35615254   6.519   6.671   6.724  0.8079 -0.1599  0.3144
   40MOL   H35715255   6.381   6.523   6.809 -0.4091  0.1461 -0.7515
   40MOL   H35815256   6.398   6.424   6.668  1.5924 -0.8930  0.7872
   40MOL   H35915257   6.187   6.502   6.605 -1.3277  0.4679  1.1892
   40MOL   H36015258   6.187   6.616   6.732  1.1003  0.5831  0.1255
   40MOL   H36115259   6.046   6.824   6.605 -0.8537 -0.6132  0.2133
   40MOL   H36215260   5.982   6.768   6.447  1.2359 -0.6233 -3.4312
   40MOL   C36315261   6.042   6.971   6.457  0.0160  0.2641  0.2160
   40MOL   C36415262   5.890   6.999   6.451  0.2217  0.1561  0.1412
   40MOL   C36515263   5.852   7.118   6.360  0.3524 -0.1458  0.4051
   40MOL   C36615264   5.735   7.194   6.415 -0.6412 -0.1205 -0.1972
   40MOL   C36715265   5.699   7.114   6.537 -0.0359  1.3484  0.1575
   40MOL   C36815266   5.818   7.030   6.585 -0.9550  0.5208  0.0033
   40MOL   C36915267   6.122   7.075   6.545  0.2638 -0.7235  0.0950
   40MOL   H37015268   6.080   6.984   6.355 -2.5878 -0.7452 -0.9283
   40MOL   H37115269   5.841   6.909   6.415  0.2392  0.5370 -0.8551
   40MOL   H37215270   5.934   7.188   6.345  1.1742 -0.8759  1.4052
   40MOL   H37315271   5.828   7.070   6.265 -0.0154  0.4847  0.1816
   40MOL   H37415272   5.760   7.296   6.444 -1.0986 -0.0370 -0.0840
   40MOL   H37515273   5.657   7.210   6.341  1.4839  0.5902 -2.3233
   40MOL   H37615274   5.664   7.168   6.625  2.6610  1.2846  1.2935
   40MOL   H37715275   5.621   7.040   6.514 -0.0137  0.9076  1.4941
   40MOL   H37815276   5.781   6.938   6.631  0.2358  0.3897  0.7344
   40MOL   H37915277   5.884   7.085   6.653  1.8269  1.3785 -3.2978
   40MOL   H38015278   6.099   7.066   6.651 -0.0499 -1.2534 -0.0154
   40MOL   H38115279   6.093   7.172   6.505 -0.5426 -1.4095 -1.0027
   40MOL   H38215280   6.230   7.068   6.532  0.6405  1.6987  1.5637
   41MOL     C115281   0.656   3.486   1.757 -0.8019  0.0637  0.4369
   41MOL     C215282   0.586   3.460   1.620 -0.0367 -0.0319 -0.2958
   41MOL     C315283   0.446   3.499   1.610  0.3059  0.0758  0.1527
   41MOL     C415284   0.382   3.418   1.491 -0.0385  0.5957  0.2551
   41MOL     C515285   0.474   3.295   1.475 -0.3502 -1.0451  0.0276
   41MOL     C615286   0.594   3.315   1.573  0.0562  0.3366 -0.1813
   41MOL     C715287   0.813   3.483   1.739 -0.4319  0.0080 -0.6403
   41MOL     H815288   0.631   3.590   1.778 -0.5405  0.7412 -2.3824
   41MOL     H915289   0.630   3.524   1.543  0.3648  0.9390  0.7261
   41MOL    H1015290   0.394   3.472   1.702 -0.3072  2.3780  0.4980
   41MOL    H1115291   0.440   3.606   1.591 -0.7127  0.5172  2.6685
   41MOL    H1215292   0.279   3.390   1.512 -0.2494 -0.6922 -2.3950
   41MOL    H1315293   0.364   3.476   1.401  0.0289 -2.2449 -1.6573
   41MOL    H1415294   0.418   3.202   1.485  1.1873 -2.1822 -1.5132
   41MOL    H1515295   0.507   3.288   1.372  0.6481 -0.5127  0.3047
   41MOL    H1615296   0.690   3.305   1.522  0.2253  0.8512  0.0283
   41MOL    H1715297   0.597   3.257   1.665  0.9939 -0.8482 -0.9428
   41MOL    H1815298   0.832   3.397   1.675  1.2249  0.3492 -0.6257
   41MOL    H1915299   0.836   3.567   1.673  0.5081 -0.8189 -1.3665
   41MOL    H2015300   0.619   3.420   1.835 -3.5059 -1.4274 -1.9995
   41MOL    C2115301   0.904   3.478   1.860 -0.6992  0.1158 -0.4096
   41MOL    C2215302   0.916   3.338   1.931  0.0391 -0.7281 -0.7281
   41MOL    C2315303   0.975   3.344   2.073 -0.3828  0.5178 -0.0946
   41MOL    C2415304   0.974   3.187   2.097  0.3381 -0.3514  0.7168
   41MOL    C2515305   1.017   3.128   1.964 -0.1982  0.6304 -0.2072
   41MOL    C2615306   0.999   3.238   1.859  0.7952 -0.1593  0.0125
   41MOL    C2715307   1.044   3.549   1.831  0.2596  0.2850  0.6855
   41MOL    H2815308   0.830   3.537   1.915 -0.5254  2.2352 -2.3832
   41MOL    H2915309   0.814   3.304   1.948 -0.2727  1.2290  1.6132
   41MOL    H3015310   0.915   3.390   2.152 -1.0150  0.2555 -0.4126
   41MOL    H3115311   1.077   3.380   2.085 -0.5775  0.9999  0.1035
   41MOL    H3215312   1.047   3.168   2.176 -1.1711  0.9853  2.4630
   41MOL    H3315313   0.880   3.148   2.136 -0.2367  0.5182  0.2333
   41MOL    H3415314   0.962   3.037   1.937  3.4975 -1.0750 -2.3387
   41MOL    H3515315   1.123   3.103   1.962 -0.2033  0.6606 -1.1544
   41MOL    H3615316   0.944   3.200   1.773 -1.5488  3.2066 -0.0692
   41MOL    H3715317   1.099   3.267   1.828  1.0769 -2.0949 -0.9859
   41MOL    H3815318   1.110   3.530   1.916  1.3735 -1.8849 -0.5989
   41MOL    H3915319   1.104   3.497   1.756 -1.9259  1.1452 -1.7307
   41MOL    C4015320   1.039   3.700   1.804 -0.4152  0.6175 -0.3190
   41MOL    C4115321   1.055   3.771   1.940  0.0716  0.5088  0.2313
   41MOL    C4215322   0.934   3.764   2.037 -0.5092 -0.4954  0.3751
   41MOL    C4315323   0.958   3.872   2.147 -0.0801  1.1745  0.5485
   41MOL    C4415324   1.054   3.969   2.075 -0.1895  0.5398  0.2245
   41MOL    C4515325   1.068   3.919   1.930  0.6079  0.8112  0.0076
   41MOL    C4615326   1.155   3.736   1.715 -0.1063  0.1157  0.3864
   41MOL    H4715327   0.943   3.728   1.759 -1.1633 -0.1132  0.7927
   41MOL    H4815328   1.143   3.731   1.989  1.0593  1.6785 -0.5465
   41MOL    H4915329   0.939   3.667   2.087  0.8225 -1.4420 -1.5360
   41MOL    H5015330   0.842   3.776   1.979  0.6883  0.3432 -1.4062
   41MOL    H5115331   0.995   3.841   2.245  0.1888  0.6990  0.3016
   41MOL    H5215332   0.859   3.917   2.157 -0.2793  0.8202  0.2246
   41MOL    H5315333   1.032   4.075   2.081 -0.3349  0.4713  1.0013
   41MOL    H5415334   1.148   3.957   2.129  0.5561  1.2872 -0.8908
   41MOL    H5515335   0.995   3.961   1.861  0.8652  0.2664 -0.6035
   41MOL    H5615336   1.165   3.947   1.890 -0.1295  2.2155 -0.8591
   41MOL    H5715337   1.176   3.843   1.720 -2.1087  0.4929  1.3257
   41MOL    H5815338   1.244   3.683   1.746  1.5622  1.9918 -1.0732
   41MOL    C5915339   1.139   3.699   1.558 -0.4120  0.0945 -0.0551
   41MOL    C6015340   1.073   3.822   1.490 -0.4319  0.0766 -0.2805
   41MOL    C6115341   0.973   3.799   1.377  0.2942  0.3022 -0.1529
   41MOL    C6215342   0.959   3.949   1.322  0.4169 -0.0500 -0.3549
   41MOL    C6315343   1.061   4.033   1.390  0.0495 -1.2129 -0.2763
   41MOL    C6415344   1.163   3.931   1.450  0.5263  0.2975  0.2718
   41MOL    C6515345   1.261   3.640   1.493 -0.2055 -0.0716 -0.0235
   41MOL    H6615346   1.065   3.619   1.551 -1.4112  0.9432  0.7453
   41MOL    H6715347   1.009   3.863   1.569  0.6393  1.9713 -0.3692
   41MOL    H6815348   0.879   3.754   1.410  0.3206  1.3612  1.4315
   41MOL    H6915349   1.013   3.737   1.297  0.4388  0.6720 -0.3693
   41MOL    H7015350   0.856   3.982   1.338  0.4595 -0.3156  0.4696
   41MOL    H7115351   0.981   3.958   1.215 -1.1984  0.4289 -0.6669
   41MOL    H7215352   1.005   4.093   1.462 -1.8050 -1.2208 -1.6788
   41MOL    H7315353   1.116   4.103   1.328  0.6873 -0.6896  0.8580
   41MOL    H7415354   1.223   3.899   1.364  0.2622  0.3951  0.0492
   41MOL    H7515355   1.226   3.979   1.524 -2.5973  0.9127  2.6516
   41MOL    H7615356   1.308   3.577   1.568 -2.1311 -0.3047  1.0299
   41MOL    H7715357   1.321   3.728   1.471  0.0008 -0.2850 -0.3188
   41MOL    C7815358   1.240   3.553   1.363 -0.6932 -0.5891  1.0327
   41MOL    C7915359   1.382   3.560   1.296 -0.0013  0.0358  0.9341
   41MOL    C8015360   1.417   3.699   1.238 -0.1539  0.0150  0.4175
   41MOL    C8115361   1.485   3.678   1.100 -0.2584 -0.5910 -0.4339
   41MOL    C8215362   1.522   3.529   1.095  0.2506 -0.2719 -0.2583
   41MOL    C8315363   1.404   3.465   1.170  0.0865 -0.4613 -1.1510
   41MOL    C8415364   1.186   3.408   1.381 -0.3027  0.8920  0.8587
   41MOL    H8515365   1.168   3.606   1.300 -0.4831  0.5694  1.7508
   41MOL    H8615366   1.458   3.548   1.373  1.6834  0.6955 -0.6018
   41MOL    H8715367   1.486   3.747   1.307  0.0457  0.8215 -0.3381
   41MOL    H8815368   1.333   3.763   1.212  0.4034 -0.5450 -3.0090
   41MOL    H8915369   1.569   3.748   1.100 -1.6604  1.1563  1.9768
   41MOL    H9015370   1.418   3.695   1.015  0.3334 -1.3372 -1.0612
   41MOL    H9115371   1.538   3.482   0.998 -2.9387 -2.2866  0.0918
   41MOL    H9215372   1.616   3.519   1.149  0.2581 -2.0663 -0.5568
   41MOL    H9315373   1.313   3.474   1.112 -0.9093  0.4974  0.5449
   41MOL    H9415374   1.421   3.363   1.204 -0.1441  0.3176  1.4185
   41MOL    H9515375   1.108   3.419   1.457 -1.4024 -1.4557  0.1173
   41MOL    H9615376   1.265   3.343   1.419 -0.9745 -0.6794 -0.3692
   41MOL    C9715377   1.117   3.334   1.258 -0.6363 -0.0866  0.2882
   41MOL    C9815378   0.982   3.413   1.224  0.0034 -0.2902 -0.4838
   41MOL    C9915379   0.904   3.382   1.096  0.2738 -0.8390 -0.2900
   41MOL   C10015380   0.771   3.464   1.099  0.0592 -0.5811 -0.5368
   41MOL   C10115381   0.752   3.492   1.253 -0.0938 -0.5607  0.2413
   41MOL   C10215382   0.857   3.407   1.319 -0.3274 -0.5770  0.3969
   41MOL   C10315383   1.088   3.189   1.295  0.0375  0.8445  0.0683
   41MOL   H10415384   1.166   3.337   1.161  1.5701  0.4490  1.3905
   41MOL   H10515385   1.016   3.516   1.214  0.0606  0.1007  3.0690
   41MOL   H10615386   0.952   3.396   1.000 -0.1705 -0.5089 -0.4663
   41MOL   H10715387   0.858   3.283   1.098 -1.1851 -0.1818  3.2156
   41MOL   H10815388   0.687   3.424   1.042 -0.4270  0.5136 -0.6024
   41MOL   H10915389   0.793   3.559   1.052  0.3869 -1.8303 -2.9596
   41MOL   H11015390   0.650   3.473   1.285 -0.3396  0.0626 -0.1582
   41MOL   H11115391   0.777   3.597   1.270 -2.6008 -0.2304  2.1329
   41MOL   H11215392   0.890   3.451   1.413  0.7382 -0.0251 -0.2260
   41MOL   H11315393   0.817   3.309   1.345 -1.5432 -0.0005  0.7194
   41MOL   H11415394   1.108   3.169   1.401 -0.8420  2.7022  0.6121
   41MOL   H11515395   0.986   3.161   1.270  0.8454 -0.6680 -1.6280
   41MOL   C11615396   1.169   3.078   1.219  0.1786 -0.1657  0.3152
   41MOL   C11715397   1.155   2.935   1.275  0.7683 -0.6596 -0.0136
   41MOL   C11815398   1.214   2.910   1.414  0.6397  0.0701 -0.2781
   41MOL   C11915399   1.159   2.770   1.449 -0.1829  0.1353  0.1855
   41MOL   C12015400   1.033   2.753   1.369 -0.2392 -0.3345  0.1467
   41MOL   C12115401   1.016   2.886   1.291  0.8690 -0.6739  0.3146
   41MOL   C12215402   1.156   3.068   1.066 -0.0484 -0.2525  0.6171
   41MOL   H12315403   1.273   3.098   1.245  0.0215 -1.3933  1.9432
   41MOL   H12415404   1.202   2.865   1.207  1.0458 -0.7576  0.2770
   41MOL   H12515405   1.321   2.932   1.410  0.3982  1.3703  0.2418
   41MOL   H12615406   1.172   2.980   1.486 -1.0655 -1.6050  0.3922
   41MOL   H12715407   1.149   2.763   1.557  0.1614  1.2282  0.2890
   41MOL   H12815408   1.226   2.688   1.420 -0.6543  0.0614 -0.7149
   41MOL   H12915409   0.945   2.742   1.431 -0.4502  0.8087  0.0575
   41MOL   H13015410   1.025   2.669   1.299  0.1018 -0.0547 -0.2320
   41MOL   H13115411   0.977   2.870   1.190  0.6752  1.3722  0.0427
   41MOL   H13215412   0.957   2.952   1.356 -1.4081 -0.5276 -1.8383
   41MOL   H13315413   1.153   3.168   1.024  2.3395 -0.7214 -0.7824
   41MOL   H13415414   1.059   3.024   1.042  0.5682 -0.0848 -2.3509
   41MOL   C13515415   1.278   3.005   0.982 -0.0849 -0.3294  0.4407
   41MOL   C13615416   1.407   3.099   0.974  0.0506  0.2389  0.1812
   41MOL   C13715417   1.397   3.208   0.872  0.2451 -0.0963 -0.1168
   41MOL   C13815418   1.532   3.214   0.796 -0.1935  0.0599 -0.3042
   41MOL   C13915419   1.631   3.136   0.878  0.3613  0.0131 -0.4138
   41MOL   C14015420   1.541   3.031   0.943  0.0903  0.8329  0.9258
   41MOL   C14115421   1.227   2.967   0.837 -0.3682 -0.7160 -0.5079
   41MOL   H14215422   1.306   2.913   1.034  2.6260  0.7097  0.9007
   41MOL   H14315423   1.414   3.155   1.068 -2.3238  0.8842  0.0016
   41MOL   H14415424   1.313   3.199   0.803 -0.6975 -0.5706  1.0663
   41MOL   H14515425   1.395   3.305   0.923  0.5134 -0.4594  0.5905
   41MOL   H14615426   1.558   3.316   0.769  1.1261  0.4803  2.3602
   41MOL   H14715427   1.511   3.149   0.711 -2.5881  2.1861 -1.3960
   41MOL   H14815428   1.680   3.200   0.952 -2.5533  2.3543 -0.4035
   41MOL   H14915429   1.706   3.094   0.812  0.1837  1.6660 -1.7048
   41MOL   H15015430   1.518   2.953   0.871 -2.8059  0.6926  1.9496
   41MOL   H15115431   1.592   2.980   1.025 -0.5484 -0.3814  0.5719
   41MOL   H15215432   1.305   2.949   0.762  0.0716  4.1289 -1.3809
   41MOL   H15315433   1.188   3.058   0.792  4.9048  2.5282  0.9961
   41MOL   C15415434   1.125   2.847   0.836 -0.3175 -0.2750 -0.2221
   41MOL   C15515435   1.009   2.869   0.741 -0.7749  0.2087  0.1969
   41MOL   C15615436   1.039   2.913   0.599 -0.2501 -0.2549  0.1869
   41MOL   C15715437   0.915   2.988   0.547  0.0610  0.3542  0.9316
   41MOL   C15815438   0.815   3.002   0.664  0.4983 -0.4976  0.2965
   41MOL   C15915439   0.903   2.975   0.788 -0.2925 -0.3679 -0.5254
   41MOL   C16015440   1.216   2.729   0.808 -0.4807 -0.7889  0.2887
   41MOL   H16115441   1.080   2.832   0.934  0.1428 -0.7474 -0.0801
   41MOL   H16215442   0.944   2.782   0.733 -0.3816 -0.0535 -0.1588
   41MOL   H16315443   1.125   2.979   0.587 -0.7845  0.6747  1.3719
   41MOL   H16415444   1.051   2.821   0.543 -0.6873  2.4401 -4.6356
   41MOL   H16515445   0.961   3.081   0.514  0.4352 -0.4263 -0.8496
   41MOL   H16615446   0.874   2.940   0.457 -0.9961  0.5224  1.3152
   41MOL   H16715447   0.730   2.934   0.665  1.9350 -2.3175  1.3779
   41MOL   H16815448   0.780   3.105   0.677  0.0225 -0.7460  0.9967
   41MOL   H16915449   0.845   2.943   0.875 -2.2029  1.7114 -0.9712
   41MOL   H17015450   0.964   3.059   0.822  1.6410 -1.7851 -0.4527
   41MOL   H17115451   1.309   2.743   0.862 -0.1883 -1.0684 -0.1345
   41MOL   H17215452   1.235   2.741   0.701  2.1045 -0.2614  0.7776
   41MOL   C17315453   1.149   2.590   0.860  0.2498 -0.0526 -0.2355
   41MOL   C17415454   1.162   2.565   1.016 -0.3772 -0.3774  0.2839
   41MOL   C17515455   1.312   2.550   1.053 -0.0191  0.7207 -0.2869
   41MOL   C17615456   1.294   2.475   1.185  0.3856  0.2139  0.2161
   41MOL   C17715457   1.174   2.383   1.159  0.4642 -0.2132 -0.1662
   41MOL   C17815458   1.070   2.455   1.073 -0.1818  0.2462 -0.1118
   41MOL   C17915459   1.196   2.481   0.776 -0.1995 -0.4176  0.1754
   41MOL   H18015460   1.042   2.596   0.842 -0.3082 -0.7292  2.6424
   41MOL   H18115461   1.143   2.660   1.065 -2.5251  0.1929 -1.6009
   41MOL   H18215462   1.352   2.652   1.051  0.3398  0.6205  1.0299
   41MOL   H18315463   1.365   2.485   0.983  0.9990 -1.0295  2.0361
   41MOL   H18415464   1.380   2.413   1.211  0.5244  0.5833  0.6345
   41MOL   H18515465   1.274   2.529   1.278  1.7314 -0.9892  1.2219
   41MOL   H18615466   1.125   2.334   1.244  2.4526 -1.4246  0.3105
   41MOL   H18715467   1.206   2.300   1.096  2.3023 -1.0436  1.8134
   41MOL   H18815468   1.014   2.388   1.008  1.4442  0.6626 -1.9859
   41MOL   H18915469   1.000   2.499   1.144  0.5675  1.2031  0.0480
   41MOL   H19015470   1.305   2.484   0.770 -0.0371 -0.3711  2.4434
   41MOL   H19115471   1.175   2.383   0.818  2.1719 -0.2370  1.9499
   41MOL   C19215472   1.137   2.476   0.632 -0.7710 -0.4166  0.5211
   41MOL   C19315473   0.987   2.483   0.611 -0.2022  0.4138 -0.1000
   41MOL   C19415474   0.899   2.363   0.668  0.7503  0.4680 -0.4651
   41MOL   C19515475   0.769   2.372   0.585  0.0991  1.1545  0.2384
   41MOL   C19615476   0.819   2.395   0.439  0.0311  0.1309  0.9041
   41MOL   C19715477   0.929   2.499   0.465  0.1837 -0.3703 -0.0892
   41MOL   C19815478   1.205   2.370   0.540 -0.1162  0.5799  0.4475
   41MOL   H19915479   1.168   2.563   0.575 -1.6887 -0.2994  0.1984
   41MOL   H20015480   0.950   2.573   0.660 -1.2103 -0.3778  0.6023
   41MOL   H20115481   0.879   2.378   0.774 -0.8154 -1.1819 -0.4958
   41MOL   H20215482   0.944   2.264   0.665  3.5829  1.6978 -0.0889
   41MOL   H20315483   0.713   2.279   0.592  2.3772 -0.5388 -3.0432
   41MOL   H20415484   0.702   2.454   0.614 -1.0241  0.3015  0.0946
   41MOL   H20515485   0.746   2.424   0.364 -0.9533  1.3992  2.3333
   41MOL   H20615486   0.860   2.301   0.401 -2.2091 -0.6294  0.3233
   41MOL   H20715487   0.868   2.589   0.467  0.8638  0.0989 -0.3352
   41MOL   H20815488   1.001   2.524   0.387 -0.0265  0.4608 -0.0181
   41MOL   H20915489   1.195   2.285   0.607  0.2598  0.4896  0.3901
   41MOL   H21015490   1.145   2.351   0.451  2.3715  0.5066 -1.2919
   41MOL   C21115491   1.341   2.385   0.481  0.3749  0.2811 -0.6304
   41MOL   C21215492   1.397   2.248   0.439 -0.5852  0.0568  0.6250
   41MOL   C21315493   1.409   2.127   0.535  0.3261  0.4600  0.1186
   41MOL   C21415494   1.435   2.014   0.444  0.3116 -0.7633  0.3829
   41MOL   C21515495   1.403   2.058   0.296 -0.0913  0.0058  0.5666
   41MOL   C21615496   1.330   2.190   0.316 -0.0492  0.2121  0.7374
   41MOL   C21715497   1.363   2.493   0.371  0.4193  0.4902  0.5812
   41MOL   H21815498   1.401   2.412   0.568  0.4194 -0.1272 -0.5322
   41MOL   H21915499   1.498   2.274   0.407 -0.9978  2.0947  0.9038
   41MOL   H22015500   1.497   2.130   0.600  0.9397 -1.3719 -0.5983
   41MOL   H22115501   1.317   2.114   0.592 -0.3235 -0.1425 -1.0463
   41MOL   H22215502   1.540   1.983   0.438  0.5847 -0.2734  2.3456
   41MOL   H22315503   1.375   1.928   0.473  2.1980 -3.1131 -2.3551
   41MOL   H22415504   1.346   1.975   0.253  0.2503 -0.6684  1.3958
   41MOL   H22515505   1.489   2.080   0.234 -1.4187 -0.7138 -1.5861
   41MOL   H22615506   1.328   2.257   0.230  0.7104  0.2520  0.7514
   41MOL   H22715507   1.224   2.168   0.332  0.0451 -1.0021 -0.2694
   41MOL   H22815508   1.265   2.515   0.329 -0.1842  0.7464  2.0950
   41MOL   H22915509   1.431   2.454   0.295  1.2159  4.0899 -0.6504
   41MOL   C23015510   1.421   2.630   0.424  0.0299 -0.1705  0.3432
   41MOL   C23115511   1.356   2.751   0.357  0.1168 -0.0138  0.4560
   41MOL   C23215512   1.372   2.883   0.431  0.2949  0.3574  0.4458
   41MOL   C23315513   1.329   2.985   0.323 -0.1580  0.2053  0.1700
   41MOL   C23415514   1.381   2.934   0.191 -0.3757 -0.1720 -0.5942
   41MOL   C23515515   1.390   2.782   0.211  0.1985  0.8597  0.2273
   41MOL   C23615516   1.575   2.632   0.434  0.1147 -0.0771  0.1327
   41MOL   H23715517   1.375   2.639   0.522  0.7435  1.5878  0.5328
   41MOL   H23815518   1.249   2.731   0.352  0.0361  0.3100  0.9708
   41MOL   H23915519   1.314   2.885   0.524  0.3947  0.2315  0.5111
   41MOL   H24015520   1.477   2.902   0.455  1.0553 -1.1778 -1.5107
   41MOL   H24115521   1.221   2.983   0.308 -0.2390 -1.3165  0.8794
   41MOL   H24215522   1.370   3.086   0.330 -0.2923  0.2072  0.9679
   41MOL   H24315523   1.481   2.975   0.174 -0.2716  0.3950  1.2393
   41MOL   H24415524   1.328   2.958   0.098 -0.4903 -0.3688 -0.5801
   41MOL   H24515525   1.495   2.757   0.200 -0.1232  0.0514 -1.0274
   41MOL   H24615526   1.331   2.732   0.134 -0.6746 -0.3746  1.6669
   41MOL   H24715527   1.609   2.728   0.473  2.4819 -1.2995  1.1955
   41MOL   H24815528   1.626   2.630   0.337  0.8494  1.2287  0.4684
   41MOL   C24915529   1.649   2.539   0.530 -0.5163  0.1414 -0.5658
   41MOL   C25015530   1.611   2.574   0.681  0.3157 -0.1415 -0.0071
   41MOL   C25115531   1.656   2.706   0.747 -0.4828  0.4049  0.4009
   41MOL   C25215532   1.631   2.675   0.898 -0.1253 -0.5305  0.4752
   41MOL   C25315533   1.674   2.528   0.924 -0.0172 -0.0859  0.1391
   41MOL   C25415534   1.664   2.464   0.780  0.8019 -0.0369 -0.3044
   41MOL   C25515535   1.799   2.535   0.493 -0.4698 -0.0769  0.0233
   41MOL   H25615536   1.608   2.439   0.517 -0.8893  0.3714 -1.1463
   41MOL   H25715537   1.503   2.581   0.692  0.2302 -1.5079  0.0679
   41MOL   H25815538   1.591   2.785   0.708  0.9704  0.5112 -1.9344
   41MOL   H25915539   1.760   2.723   0.722  0.1284 -1.2444  1.7644
   41MOL   H26015540   1.527   2.697   0.926 -0.5839 -1.4581 -0.4788
   41MOL   H26115541   1.686   2.744   0.963 -0.0497  0.7162 -0.8915
   41MOL   H26215542   1.608   2.482   0.998 -1.8032  0.4930 -1.0531
   41MOL   H26315543   1.778   2.524   0.954  0.6166  0.8880 -1.8342
   41MOL   H26415544   1.591   2.383   0.774  1.1847 -0.5319  1.5596
   41MOL   H26515545   1.762   2.428   0.749 -0.4573 -3.2581 -0.7732
   41MOL   H26615546   1.809   2.633   0.447 -0.9457  1.0395  2.2318
   41MOL   H26715547   1.870   2.529   0.575 -0.8810 -2.3259  0.2336
   41MOL   C26815548   1.826   2.420   0.385 -0.6759  0.5813  0.2277
   41MOL   C26915549   1.830   2.279   0.452 -0.3918  0.2825 -0.3677
   41MOL   C27015550   1.952   2.256   0.542  0.2577  0.1751  0.0367
   41MOL   C27115551   1.962   2.106   0.561 -0.1816  0.5541 -0.4491
   41MOL   C27215552   1.903   2.042   0.429  1.0307 -1.0649  0.1823
   41MOL   C27315553   1.821   2.161   0.362 -0.5628  0.0151  0.3083
   41MOL   C27415554   1.948   2.460   0.291 -0.0702  0.3571  0.6410
   41MOL   H27515555   1.736   2.415   0.324  0.0606 -2.0112 -0.7124
   41MOL   H27615556   1.746   2.278   0.520 -0.2524 -0.2715 -0.2078
   41MOL   H27715557   2.042   2.287   0.488 -0.5656  0.1009 -1.4244
   41MOL   H27815558   1.938   2.315   0.632 -1.1062  0.0125 -0.0569
   41MOL   H27915559   2.063   2.076   0.588 -1.2515 -1.6599  1.3176
   41MOL   H28015560   1.907   2.075   0.650 -1.0730 -1.3308 -1.6131
   41MOL   H28115561   1.835   1.958   0.444  0.7570 -0.8240  0.2914
   41MOL   H28215562   1.988   2.012   0.368  0.1044 -1.5027 -0.9080
   41MOL   H28315563   1.720   2.124   0.345 -0.4038  0.2497 -1.1875
   41MOL   H28415564   1.868   2.179   0.265 -1.1600 -1.8435 -0.3365
   41MOL   H28515565   2.019   2.377   0.293  0.5101  0.8332 -0.0250
   41MOL   H28615566   2.012   2.535   0.338  0.8663  0.3080 -0.5302
   41MOL   C28715567   1.906   2.470   0.138  0.1359  0.4817  0.1616
   41MOL   C28815568   1.852   2.612   0.115  0.1909 -1.0188  0.0415
   41MOL   C28915569   1.959   2.722   0.109 -1.0719 -0.4580  0.4256
   41MOL   C29015570   1.895   2.826   0.016 -0.6157 -0.3946  0.5556
   41MOL   C29115571   1.764   2.783   7.656  0.4801 -0.1690  0.4806
   41MOL   C29215572   1.768   2.630   7.679  0.2314  0.5710  0.2859
   41MOL   C29315573   2.026   2.430   0.043 -0.1254 -0.7309 -0.1885
   41MOL   H29415574   1.829   2.397   0.114 -0.2293  1.1389 -0.6983
   41MOL   H29515575   1.788   2.639   0.199  1.3854 -0.0513  0.6512
   41MOL   H29615576   1.967   2.783   0.198 -0.9494 -1.3008  0.9964
   41MOL   H29715577   2.062   2.704   0.077 -1.2268  1.3425 -1.2067
   41MOL   H29815578   1.889   2.921   0.068  0.1936 -1.8859  3.4583
   41MOL   H29915579   1.956   2.841   7.616 -2.0428 -0.5292 -0.4461
   41MOL   H30015580   1.769   2.807   7.550  0.6412 -1.3059  0.2245
   41MOL   H30115581   1.677   2.836   0.006  0.3779  0.0930 -0.0838
   41MOL   H30215582   1.814   2.575   7.597  1.4387  1.7111  0.1897
   41MOL   H30315583   1.668   2.589   0.002  0.4926 -0.4955 -0.9167
   41MOL   H30415584   2.107   2.495   0.077  1.2992 -2.2599 -0.5908
   41MOL   H30515585   2.008   2.465   7.631  1.0691 -0.2947 -0.2542
   41MOL   C30615586   2.068   2.278   0.034  0.5235  0.1658  0.4829
   41MOL   C30715587   1.998   2.207   7.599 -0.4316  0.3869 -0.7060
   41MOL   C30815588   2.009   2.058   7.602 -0.1347 -0.7801 -0.4216
   41MOL   C30915589   1.895   1.998   7.513  0.3028  0.4461 -0.2813
   41MOL   C31015590   1.798   2.114   7.489  0.1155 -0.1696 -0.4038
   41MOL   C31115591   1.847   2.221   7.591 -0.0886 -0.2131 -0.0555
   41MOL   C31215592   2.223   2.251   0.047  0.0243 -0.1621 -0.0555
   41MOL   H31315593   2.029   2.235   0.126 -0.0082 -0.5530 -0.0762
   41MOL   H31415594   2.041   2.239   7.504  0.2649 -1.8239 -1.1658
   41MOL   H31515595   1.990   2.031   0.016 -1.0122  1.1111 -0.0684
   41MOL   H31615596   2.110   2.023   7.581  0.1761  0.2222 -0.6401
   41MOL   H31715597   1.938   1.966   7.418  0.4252 -0.8019  0.1826
   41MOL   H31815598   1.851   1.909   7.559  1.2791  0.4175  0.6177
   41MOL   H31915599   1.694   2.089   7.510 -0.0108 -0.0456 -0.8792
   41MOL   H32015600   1.796   2.152   7.387  0.9516  0.0922 -0.3312
   41MOL   H32115601   1.818   2.321   7.560 -1.0234 -0.7978 -1.0845
   41MOL   H32215602   1.801   2.198   7.688 -2.0151  0.0371 -0.8815
   41MOL   H32315603   2.247   2.146   0.032 -2.1854 -0.7011  0.1107
   41MOL   H32415604   2.245   2.273   0.151  0.4187  1.3033 -0.4250
   41MOL   C32515605   2.310   2.331   7.634 -0.5080  0.3617  0.6957
   41MOL   C32615606   2.350   2.236   7.520  0.3264  0.3879  0.1391
   41MOL   C32715607   2.457   2.135   7.537 -0.7285  0.4598  0.0824
   41MOL   C32815608   2.473   2.074   7.398  0.3508  0.7627  0.2710
   41MOL   C32915609   2.458   2.200   7.311 -0.4711  0.6637  0.8088
   41MOL   C33015610   2.371   2.298   7.382 -0.1182  0.2439 -0.0867
   41MOL   C33115611   2.434   2.411   0.001 -1.0597  0.1407 -0.5415
   41MOL   H33215612   2.244   2.409   7.595  0.5943 -0.3677 -2.7973
   41MOL   H33315613   2.261   2.176   7.499  1.1851 -0.5588 -0.8603
   41MOL   H33415614   2.425   2.051   7.598 -0.5195  0.4734  0.2093
   41MOL   H33515615   2.549   2.180   7.575 -1.3693 -0.8439  3.3761
   41MOL   H33615616   2.385   2.011   7.385  0.4108  1.0389 -1.6132
   41MOL   H33715617   2.566   2.023   7.369 -1.1013 -1.8681  0.0868
   41MOL   H33815618   2.418   2.164   7.216 -1.4868  0.1107  1.4334
   41MOL   H33915619   2.557   2.236   7.284  0.2092 -1.5459  0.2216
   41MOL   H34015620   2.277   2.338   7.343 -0.7929  1.9746  3.2066
   41MOL   H34115621   2.423   2.392   7.396  0.6332 -0.6856  3.8706
   41MOL   H34215622   2.498   2.449   7.611 -0.6277  1.8992  0.6134
   41MOL   H34315623   2.492   2.341   0.061  0.0824  1.4334 -0.1006
   41MOL   C34415624   2.403   2.537   0.087  1.0607 -0.7789  0.6193
   41MOL   C34515625   2.416   2.665   0.002  0.5866  0.1545 -0.6600
   41MOL   C34615626   2.380   2.793   0.079  0.0277 -0.0753  0.7806
   41MOL   C34715627   2.286   2.872   7.673  0.3326  0.1187 -0.3681
   41MOL   C34815628   2.294   2.808   7.536  0.6295 -0.9048 -0.6331
   41MOL   C34915629   2.311   2.667   7.573 -0.6611 -0.4562  0.2647
   41MOL   C35015630   2.505   2.543   0.200  0.1055  0.3341  0.1895
   41MOL   H35115631   2.304   2.534   0.134  0.4532 -2.4425 -0.7040
   41MOL   H35215632   2.521   2.669   7.661  0.2838 -0.7087 -1.8879
   41MOL   H35315633   2.482   2.830   0.090  0.0424  0.3355 -0.5896
   41MOL   H35415634   2.334   2.768   0.175 -1.2202  0.3325  0.3063
   41MOL   H35515635   2.182   2.854   0.013  0.5121 -1.7878 -0.8039
   41MOL   H35615636   2.317   2.976   7.678 -2.2287  0.9920 -1.4954
   41MOL   H35715637   2.372   2.843   7.468 -0.4669  0.0396 -1.4176
   41MOL   H35815638   2.208   2.819   7.471  0.5076 -0.9095 -0.4734
   41MOL   H35915639   2.220   2.622   7.614 -0.8329 -1.3221 -1.0413
   41MOL   H36015640   2.345   2.604   7.491 -0.8101 -0.0110 -0.1379
   41MOL   H36115641   2.516   2.645   0.238 -1.6250  0.9981 -0.9971
   41MOL   H36215642   2.599   2.524   0.149 -0.0522  1.6394 -0.6092
   41MOL   C36315643   2.471   2.459   0.330 -0.0473 -0.3273 -0.4915
   41MOL   C36415644   2.594   2.456   0.436 -0.1845  0.4933  0.5162
   41MOL   C36515645   2.731   2.431   0.372  0.0821 -0.0482  0.4523
   41MOL   C36615646   2.802   2.323   0.457  0.0285  0.1949 -1.0708
   41MOL   C36715647   2.694   2.254   0.542 -0.8471  0.0562 -0.2510
   41MOL   C36815648   2.584   2.355   0.556 -0.2144 -0.2330  0.2592
   41MOL   C36915649   2.341   2.501   0.398 -0.4645 -0.6570  0.1400
   41MOL   H37015650   2.464   2.358   0.289 -1.3099 -0.8362  0.9399
   41MOL   H37115651   2.613   2.555   0.477 -0.3544  0.7001  0.0967
   41MOL   H37215652   2.719   2.389   0.272  2.2194 -1.0724  0.5997
   41MOL   H37315653   2.786   2.524   0.358  0.8615 -0.1149  2.8875
   41MOL   H37415654   2.852   2.248   0.396  0.3223 -1.8924  1.6395
   41MOL   H37515655   2.877   2.370   0.521 -0.6752  0.5398 -0.4763
   41MOL   H37615656   2.662   2.168   0.483  0.1824  0.0098 -0.7666
   41MOL   H37715657   2.739   2.215   0.634 -0.9870  1.9521  0.6287
   41MOL   H37815658   2.586   2.418   0.644  0.9278  0.4351 -0.2484
   41MOL   H37915659   2.492   2.295   0.558  0.0282 -0.5569  1.9310
   41MOL   H38015660   2.263   2.540   0.333  0.1565 -3.5083 -2.4301
   41MOL   H38115661   2.364   2.572   0.477  0.5002 -0.2701 -0.4801
   41MOL   H38215662   2.309   2.410   0.449  0.2214 -1.9772 -1.6916
   42MOL     C115663   4.701   0.977   5.993  0.3648 -0.3403  0.6072
   42MOL     C215664   4.673   1.107   5.916 -0.2377  0.0737 -0.2631
   42MOL     C315665   4.687   1.090   5.761  0.4039  0.0681  0.2352
   42MOL     C415666   4.687   1.227   5.701  0.3057 -0.2654  0.4821
   42MOL     C515667   4.743   1.316   5.813 -0.5862  0.3694  0.1130
   42MOL     C615668   4.734   1.239   5.947 -0.2823 -0.2744 -0.0631
   42MOL     C715669   4.643   0.975   6.131  0.3899  0.2141  0.2529
   42MOL     H815670   4.646   0.900   5.938 -3.8144  2.0155  1.2458
   42MOL     H915671   4.567   1.120   5.934 -0.4955  0.0876 -1.6979
   42MOL    H1015672   4.774   1.030   5.731 -0.0126 -0.6856  0.5200
   42MOL    H1115673   4.599   1.037   5.725  0.2342 -0.2660  1.1531
   42MOL    H1215674   4.740   1.230   5.606 -3.1520  2.0100 -1.4678
   42MOL    H1315675   4.581   1.245   5.684 -0.5059 -3.1996  2.0073
   42MOL    H1415676   4.845   1.343   5.787 -0.8700  0.8587 -0.5039
   42MOL    H1515677   4.690   1.411   5.821 -0.4330  0.3993  0.8621
   42MOL    H1615678   4.664   1.288   6.015  0.6872  2.1253 -0.7567
   42MOL    H1715679   4.826   1.222   6.003  1.4075  2.6425 -1.8489
   42MOL    H1815680   4.676   1.054   6.199 -0.4799 -0.6195  1.6728
   42MOL    H1915681   4.536   0.993   6.119  0.4550 -1.1250 -2.7516
   42MOL    H2015682   4.809   0.961   5.992  0.4461  0.2109 -0.8245
   42MOL    C2115683   4.653   0.837   6.210 -0.1135 -0.4364 -0.0092
   42MOL    C2215684   4.636   0.848   6.364 -0.8592  0.4233  0.2983
   42MOL    C2315685   4.502   0.893   6.423 -0.0891  0.3112 -0.7892
   42MOL    C2415686   4.536   0.941   6.566 -0.4687  0.4926  0.4642
   42MOL    C2515687   4.668   1.012   6.544 -0.0892  0.0335  0.5503
   42MOL    C2615688   4.745   0.937   6.433 -0.5948 -0.1788 -0.5595
   42MOL    C2715689   4.555   0.723   6.158  0.4465  0.5402  0.9393
   42MOL    H2815690   4.755   0.809   6.182 -0.4337  1.0528 -2.8233
   42MOL    H2915691   4.641   0.745   6.401 -2.1031  0.5154  0.7771
   42MOL    H3015692   4.417   0.825   6.427  0.8499 -0.8530 -0.3169
   42MOL    H3115693   4.465   0.975   6.362 -0.0799  0.5856 -0.4266
   42MOL    H3215694   4.462   1.011   6.603 -2.4160 -1.4771  0.4083
   42MOL    H3315695   4.546   0.866   6.645 -0.1229  0.8435  0.7547
   42MOL    H3415696   4.734   1.011   6.631  2.8166 -1.4522 -1.5926
   42MOL    H3515697   4.649   1.114   6.511 -0.5627  0.0949  1.0013
   42MOL    H3615698   4.813   0.865   6.478 -1.4630 -0.3612  0.4778
   42MOL    H3715699   4.811   1.003   6.376 -1.2952  1.2045  0.1991
   42MOL    H3815700   4.465   0.727   6.219 -0.9870 -2.2135 -0.9071
   42MOL    H3915701   4.532   0.744   6.054  0.9112 -0.3739  0.6431
   42MOL    C4015702   4.622   0.590   6.148  0.6309  0.1796  0.2277
   42MOL    C4115703   4.515   0.480   6.126  0.3738  0.1169  0.2262
   42MOL    C4215704   4.405   0.485   6.233 -0.5913  0.6254 -0.0976
   42MOL    C4315705   4.330   0.364   6.213  0.2061  0.1875 -0.7749
   42MOL    C4415706   4.431   0.254   6.171 -0.2567 -0.7359 -0.1528
   42MOL    C4515707   4.559   0.338   6.131 -0.0282  0.4480 -0.0454
   42MOL    C4615708   4.735   0.584   6.040 -0.6200 -0.7255  0.2923
   42MOL    H4715709   4.665   0.564   6.245 -0.2150 -1.8842  0.0625
   42MOL    H4815710   4.473   0.501   6.028 -2.4604 -1.6774  1.0223
   42MOL    H4915711   4.333   0.566   6.240 -0.4999  0.5503  2.0082
   42MOL    H5015712   4.452   0.483   6.332 -0.4846  1.4514 -0.1261
   42MOL    H5115713   4.252   0.383   6.139 -0.0662  2.9554  0.1622
   42MOL    H5215714   4.286   0.341   6.310  1.1341 -2.9734 -1.0357
   42MOL    H5315715   4.452   0.179   6.247  1.5405  2.3257  2.4824
   42MOL    H5415716   4.394   0.209   6.079 -1.4564  2.6354 -1.4126
   42MOL    H5515717   4.633   0.338   6.211 -0.3331  2.1491  0.2698
   42MOL    H5615718   4.610   0.299   6.044  0.5070 -1.6996  1.1876
   42MOL    H5715719   4.693   0.543   5.948 -0.2227  0.0403 -0.2371
   42MOL    H5815720   4.759   0.684   6.005  0.3804 -0.6479  1.1720
   42MOL    C5915721   4.870   0.520   6.078 -0.1391  0.3624 -0.2329
   42MOL    C6015722   4.963   0.488   5.963  0.1658  0.4924  0.0155
   42MOL    C6115723   5.018   0.608   5.889  0.3216 -0.3099 -0.3657
   42MOL    C6215724   5.067   0.536   5.758 -0.7677  0.3761 -0.3287
   42MOL    C6315725   4.958   0.440   5.718  0.5523 -0.5561 -0.0047
   42MOL    C6415726   4.907   0.390   5.859 -0.1832  0.4312  0.0772
   42MOL    C6515727   4.937   0.613   6.188  0.3441 -0.2974  0.1045
   42MOL    H6615728   4.839   0.426   6.122  1.0945 -0.6414 -1.4499
   42MOL    H6715729   5.043   0.426   6.001  0.7725  1.6566  0.6598
   42MOL    H6815730   5.096   0.653   5.950 -0.1885  1.7140 -1.1794
   42MOL    H6915731   4.944   0.682   5.859  0.2802 -0.5701 -0.9021
   42MOL    H7015732   5.156   0.477   5.776  0.8151  2.9111  0.3507
   42MOL    H7115733   5.077   0.612   5.681  0.8997  1.1561  0.6228
   42MOL    H7215734   4.987   0.363   5.647  0.8611 -0.2662 -0.1996
   42MOL    H7315735   4.881   0.498   5.668  0.9481 -0.6432 -0.7229
   42MOL    H7415736   4.798   0.395   5.860 -0.1442  3.6285 -2.3405
   42MOL    H7515737   4.941   0.290   5.885  0.4257  0.4420 -0.6600
   42MOL    H7615738   4.861   0.637   6.262  0.5622 -1.0339  0.5686
   42MOL    H7715739   4.959   0.709   6.140  1.7739 -0.6526  0.0277
   42MOL    C7815740   5.061   0.554   6.250  0.5067 -0.6516 -0.0791
   42MOL    C7915741   5.134   0.670   6.333 -0.3672 -0.7623  0.5081
   42MOL    C8015742   5.188   0.803   6.259 -0.0760  0.4179 -0.6897
   42MOL    C8115743   5.276   0.866   6.365 -0.2293 -0.5931  0.0699
   42MOL    C8215744   5.330   0.760   6.463 -0.0957  0.3361  0.4988
   42MOL    C8315745   5.255   0.629   6.420  0.1934 -1.2193  0.1343
   42MOL    C8415746   5.011   0.449   6.351 -0.3905  0.2748  0.2413
   42MOL    H8515747   5.126   0.506   6.177 -0.3751 -1.1210 -0.5660
   42MOL    H8615748   5.050   0.700   6.397  0.5323  0.8198  0.9677
   42MOL    H8715749   5.107   0.869   6.230  0.3896 -0.1906 -3.5666
   42MOL    H8815750   5.245   0.782   6.168 -0.6782 -0.9006 -0.7645
   42MOL    H8915751   5.207   0.929   6.420 -0.7183 -1.5842  0.6046
   42MOL    H9015752   5.357   0.930   6.328 -0.0114 -1.3321 -0.7481
   42MOL    H9115753   5.429   0.744   6.420  0.0687 -0.4257  1.1358
   42MOL    H9215754   5.339   0.787   6.568  0.7413 -2.6883  1.2472
   42MOL    H9315755   5.318   0.565   6.357  0.8524  0.1371 -0.6164
   42MOL    H9415756   5.225   0.571   6.507  1.4960 -2.1765 -0.0290
   42MOL    H9515757   4.910   0.416   6.330 -0.4408  1.3736 -1.3319
   42MOL    H9615758   5.003   0.487   6.453 -0.1781 -1.3698  0.8886
   42MOL    C9715759   5.096   0.319   6.368 -0.0702 -0.4866  0.0528
   42MOL    C9815760   5.122   0.239   6.242  0.4328  0.6630  1.3749
   42MOL    C9915761   5.246   0.152   6.267  0.4383 -0.4635  0.1111
   42MOL   C10015762   5.254   0.043   6.165  0.1519  0.6488  0.8714
   42MOL   C10115763   5.113   0.028   6.109 -0.1941 -0.3906 -0.1431
   42MOL   C10215764   5.029   0.129   6.183 -0.5708 -0.4410  0.0531
   42MOL   C10315765   5.021   0.230   6.465  0.2824 -0.3520 -1.6071
   42MOL   H10415766   5.189   0.356   6.410 -0.2223 -0.9517  0.8104
   42MOL   H10515767   5.137   0.301   6.154 -0.4901  0.0039  0.7488
   42MOL   H10615768   5.342   0.203   6.266 -1.0370  2.3929 -1.3441
   42MOL   H10715769   5.254   0.122   6.371 -0.3977 -2.1326 -0.2900
   42MOL   H10815770   5.290   7.647   6.222  0.1666 -0.6806 -1.0680
   42MOL   H10915771   5.325   0.073   6.088 -1.2710  0.4074 -0.5648
   42MOL   H11015772   5.070   7.617   6.109  1.7639 -1.2486 -0.3124
   42MOL   H11115773   5.112   0.058   6.004  0.4578  0.9848  0.2297
   42MOL   H11215774   4.950   0.165   6.118 -0.0313 -1.2995 -1.1000
   42MOL   H11315775   4.975   0.075   6.262 -2.1621 -1.5813 -1.7724
   42MOL   H11415776   4.913   0.235   6.450  0.4857  0.1758 -3.0044
   42MOL   H11515777   5.032   0.122   6.448  0.3253 -0.7257  0.6449
   42MOL   C11615778   5.055   0.242   6.609  0.1570  0.8163 -0.2976
   42MOL   C11715779   4.950   0.200   6.719 -0.1873 -0.1051  0.0085
   42MOL   C11815780   4.827   0.298   6.717 -0.1081  0.6632 -0.0641
   42MOL   C11915781   4.702   0.212   6.746 -0.0277 -0.0481  0.1494
   42MOL   C12015782   4.752   0.071   6.754  0.1279  0.5063 -0.1205
   42MOL   C12115783   4.885   0.064   6.684  0.2267  0.2343 -0.4711
   42MOL   C12215784   5.195   0.185   6.633  0.5927  0.1655 -0.3719
   42MOL   H12315785   5.070   0.350   6.613  1.7412  0.5707  0.8175
   42MOL   H12415786   4.988   0.206   6.821 -2.1694 -1.8755  0.8889
   42MOL   H12515787   4.839   0.372   6.796  1.7744 -1.4404  1.6739
   42MOL   H12615788   4.807   0.364   6.632 -0.3279  0.1060 -0.4474
   42MOL   H12715789   4.645   0.219   6.653  0.3743  1.7586  0.0118
   42MOL   H12815790   4.635   0.240   6.828 -1.9295  1.1756 -1.7813
   42MOL   H12915791   4.686   7.679   6.725  0.6625  0.3439 -0.8820
   42MOL   H13015792   4.774   0.049   6.858 -1.1926 -2.2795 -0.3890
   42MOL   H13115793   4.950   7.674   6.719 -0.3698 -0.4664 -0.9425
   42MOL   H13215794   4.870   0.066   6.576  1.4934  1.7052 -0.6501
   42MOL   H13315795   5.274   0.237   6.580 -0.8882  0.2169 -2.5934
   42MOL   H13415796   5.196   0.083   6.594  0.0512  0.4091 -1.0266
   42MOL   C13515797   5.253   0.177   6.772  0.0357 -0.0785  0.6353
   42MOL   C13615798   5.261   0.319   6.837  0.1953 -0.3573 -0.1911
   42MOL   C13715799   5.368   0.419   6.782 -0.7533 -0.1628 -0.1171
   42MOL   C13815800   5.426   0.504   6.896  0.3259 -0.0433  0.4059
   42MOL   C13915801   5.350   0.457   7.019  0.0819 -0.5515 -0.4112
   42MOL   C14015802   5.299   0.315   6.983 -0.2234 -0.0037 -0.4690
   42MOL   C14115803   5.387   0.101   6.762  0.7210  0.4013  0.4142
   42MOL   H14215804   5.195   0.127   6.849  0.5061 -0.1055  0.9718
   42MOL   H14315805   5.162   0.365   6.838  0.5086  0.3387 -0.2321
   42MOL   H14415806   5.443   0.361   6.729  0.3317 -1.5919  2.9116
   42MOL   H14515807   5.332   0.487   6.704  2.1060  2.2913  0.6053
   42MOL   H14615808   5.404   0.608   6.871  0.5354  0.5370  2.5246
   42MOL   H14715809   5.532   0.488   6.914  0.6796  3.0404  1.3996
   42MOL   H14815810   5.265   0.522   7.041  1.6229  1.2432  0.3753
   42MOL   H14915811   5.414   0.439   7.105 -0.4826 -3.0411 -0.4689
   42MOL   H15015812   5.385   0.248   6.990 -0.3744 -0.0126  1.8136
   42MOL   H15115813   5.228   0.280   7.058  0.0061  0.3124 -0.0972
   42MOL   H15215814   5.465   0.131   6.831 -0.2645  0.1262  1.6693
   42MOL   H15315815   5.429   0.120   6.663  0.8958  1.0814  0.6230
   42MOL   C15415816   5.372   7.633   6.770 -0.0052  0.1794 -0.2391
   42MOL   C15515817   5.486   7.560   6.690  0.1493 -1.0974 -0.9825
   42MOL   C15615818   5.628   7.607   6.722 -0.1312  0.3245 -0.0705
   42MOL   C15715819   5.712   7.570   6.598 -0.0655 -0.3293 -0.2243
   42MOL   C15815820   5.620   7.600   6.487 -0.5048  0.1122 -0.6259
   42MOL   C15915821   5.480   7.569   6.532 -0.0876 -0.1023 -1.0619
   42MOL   C16015822   5.359   7.578   6.914  0.0885  0.4094  0.0404
   42MOL   H16115823   5.270   7.616   6.736  0.3368 -1.8618 -0.2941
   42MOL   H16215824   5.490   7.451   6.694  1.5195 -0.9657  3.1390
   42MOL   H16315825   5.630   0.026   6.736 -1.0496  0.4850 -1.1003
   42MOL   H16415826   5.670   7.564   6.813  0.4110 -0.0588 -0.4978
   42MOL   H16515827   5.805   7.626   6.588  0.7060 -1.3443  1.0690
   42MOL   H16615828   5.733   7.463   6.604 -0.7230 -0.4670 -0.2942
   42MOL   H16715829   5.648   7.548   6.396 -0.0067 -0.6297 -0.0539
   42MOL   H16815830   5.633   0.014   6.456 -0.3416 -0.2427 -1.7782
   42MOL   H16915831   5.439   7.481   6.483 -2.3270 -0.8062  1.9655
   42MOL   H17015832   5.417   7.654   6.508  2.2835  2.6524  1.9258
   42MOL   H17115833   5.284   7.635   6.969 -0.5192  1.1478 -1.5302
   42MOL   H17215834   5.458   7.603   6.952 -0.3094  1.0921  0.6596
   42MOL   C17315835   5.330   7.430   6.934  0.7884 -0.6890  0.0178
   42MOL   C17415836   5.185   7.387   6.979  0.3173 -0.3640 -0.1819
   42MOL   C17515837   5.079   7.405   6.868  0.1046 -0.0826 -0.2913
   42MOL   C17615838   4.944   7.416   6.939  0.0264  0.4265 -0.1027
   42MOL   C17715839   4.983   7.487   7.065 -0.6342 -0.0922 -0.8779
   42MOL   C17815840   5.125   7.453   7.103  0.0108 -0.0322  0.3206
   42MOL   C17915841   5.446   7.379   7.024 -0.0574  0.5076 -0.5368
   42MOL   H18015842   5.349   7.377   6.840  1.3490 -0.8487  0.2202
   42MOL   H18115843   5.196   7.279   6.991  1.4964 -0.2357 -0.0916
   42MOL   H18215844   5.085   7.319   6.801 -0.1861  0.2160 -0.7064
   42MOL   H18315845   5.104   7.494   6.810  1.1613  1.2218  2.1130
   42MOL   H18415846   4.875   7.474   6.878  1.2157  2.6615  0.5931
   42MOL   H18515847   4.909   7.315   6.959 -1.8839  0.7407 -1.7615
   42MOL   H18615848   4.906   7.470   7.141 -0.9015  1.7985 -0.6999
   42MOL   H18715849   4.980   7.594   7.044  3.1002  0.4145  0.7780
   42MOL   H18815850   5.172   7.551   7.118  0.1685 -0.2084  0.9882
   42MOL   H18915851   5.130   7.387   7.189 -1.5015 -0.8365 -0.2025
   42MOL   H19015852   5.538   7.394   6.969 -0.9275  0.8010 -1.9372
   42MOL   H19115853   5.442   7.435   7.118  1.0000  2.6373 -1.7344
   42MOL   C19215854   5.456   7.226   7.053 -0.6276 -0.1641 -0.9808
   42MOL   C19315855   5.539   7.202   7.175 -0.3170 -0.2622  0.0906
   42MOL   C19415856   5.474   7.247   7.308 -0.8261  0.1917 -0.4881
   42MOL   C19515857   5.598   7.303   7.387 -0.5772  0.5812 -0.3458
   42MOL   C19615858   5.728   7.258   7.318  0.4701 -0.1682  0.0720
   42MOL   C19715859   5.686   7.263   7.171  0.4804 -0.1581 -0.0449
   42MOL   C19815860   5.501   7.143   6.939 -0.3715 -0.0603  1.2420
   42MOL   H19915861   5.359   7.185   7.082 -2.0998  2.2038 -2.3769
   42MOL   H20015862   5.547   7.094   7.177 -0.2570 -0.4116 -3.8838
   42MOL   H20115863   5.443   7.156   7.359  1.5755 -0.7979 -0.7451
   42MOL   H20215864   5.394   7.320   7.300 -2.0848 -1.2035 -0.7603
   42MOL   H20315865   5.603   7.412   7.383  2.2995  0.7331  4.5316
   42MOL   H20415866   5.603   7.265   7.489 -0.1405 -0.3480 -0.7088
   42MOL   H20515867   5.755   7.159   7.356 -1.8798  0.1127  2.6753
   42MOL   H20615868   5.804   7.333   7.340  2.8519 -1.4853 -3.1858
   42MOL   H20715869   5.753   7.203   7.110  0.6357  0.4828 -0.5095
   42MOL   H20815870   5.676   7.368   7.141  1.4543 -0.0902 -0.1362
   42MOL   H20915871   5.500   7.198   6.844 -0.3614  1.1241  1.9227
   42MOL   H21015872   5.607   7.119   6.948  0.1945  1.0031 -1.8935
   42MOL   C21115873   5.424   7.008   6.908  0.3803 -0.3342  0.4175
   42MOL   C21215874   5.395   6.980   6.753  0.0784  0.0991 -0.3833
   42MOL   C21315875   5.307   6.851   6.721  0.7042 -0.2741 -0.3224
   42MOL   C21415876   5.258   6.870   6.587  1.2064  0.0972 -0.3244
   42MOL   C21515877   5.216   7.021   6.593  0.3960  0.6101 -0.2613
   42MOL   C21615878   5.314   7.088   6.677 -0.4080  0.4608  0.2856
   42MOL   C21715879   5.497   6.889   6.983 -0.1642  0.4234  0.0825
   42MOL   H21815880   5.321   7.017   6.944  0.1676 -1.5849  0.1532
   42MOL   H21915881   5.490   6.964   6.702 -0.9704 -1.5266 -1.8587
   42MOL   H22015882   5.363   6.758   6.726 -0.6145 -0.9800  1.7229
   42MOL   H22115883   5.223   6.839   6.789  0.5814  1.0209 -0.2194
   42MOL   H22215884   5.329   6.838   6.511  0.4334  1.3911 -1.6128
   42MOL   H22315885   5.167   6.812   6.570  0.8247  0.5084  0.2596
   42MOL   H22415886   5.123   7.032   6.649  0.4051  0.1154 -0.1455
   42MOL   H22515887   5.201   7.077   6.500 -2.8528  1.5123  0.7188
   42MOL   H22615888   5.381   7.155   6.623 -1.7014  0.2852 -1.5641
   42MOL   H22715889   5.268   7.139   6.761 -1.1269 -0.9622  0.7755
   42MOL   H22815890   5.601   6.914   7.002  0.3278 -1.9992  0.8129
   42MOL   H22915891   5.509   6.811   6.908  2.4208 -0.6895  1.6101
   42MOL   C23015892   5.427   6.851   7.119  0.1542  0.1752  0.5076
   42MOL   C23115893   5.520   6.777   7.217  0.0980 -0.2638  0.8052
   42MOL   C23215894   5.661   6.821   7.235  0.3284  0.1747  0.8845
   42MOL   C23315895   5.697   6.766   7.371  0.1875 -0.2543 -0.5234
   42MOL   C23415896   5.576   6.776   7.467  0.4510  0.9096  0.2844
   42MOL   C23515897   5.470   6.774   7.366  0.0969 -0.2569  0.7933
   42MOL   C23615898   5.308   6.766   7.081 -0.3317 -0.1679 -0.2452
   42MOL   H23715899   5.386   6.940   7.167  2.8595  1.7004  0.0905
   42MOL   H23815900   5.541   6.675   7.187  0.2257  0.0994 -0.3716
   42MOL   H23915901   5.721   6.782   7.152 -0.3651  0.3787  0.2786
   42MOL   H24015902   5.670   6.929   7.244 -0.7950  0.1927  1.8320
   42MOL   H24115903   5.730   6.663   7.365  3.4606  0.6923  0.4550
   42MOL   H24215904   5.778   6.825   7.414 -0.3940 -0.7069  1.2436
   42MOL   H24315905   5.575   6.866   7.528 -2.4310 -0.0037  1.6448
   42MOL   H24415906   5.574   6.698   7.544 -1.0289  1.3317  0.6766
   42MOL   H24515907   5.411   6.861   7.393  1.4787  1.1843 -0.7083
   42MOL   H24615908   5.414   6.684   7.392  0.4641 -0.6100  0.3764
   42MOL   H24715909   5.328   6.659   7.075  1.0747 -0.0935  2.2191
   42MOL   H24815910   5.276   6.798   6.982  2.4276  1.0553 -0.8006
   42MOL   C24915911   5.180   6.765   7.166  0.1716  0.5529  0.1185
   42MOL   C25015912   5.081   6.649   7.147 -0.3825 -0.1818 -0.0291
   42MOL   C25115913   5.114   6.517   7.216  0.4981 -0.2190  0.8043
   42MOL   C25215914   5.008   6.417   7.169  0.4518 -0.1854  0.4027
   42MOL   C25315915   4.972   6.464   7.031 -0.2431  0.6508 -0.0194
   42MOL   C25415916   5.051   6.593   7.006  0.1748 -0.7230  0.2002
   42MOL   C25515917   5.099   6.896   7.151  0.5445 -0.3054 -0.5907
   42MOL   H25615918   5.218   6.767   7.268 -0.1553 -1.2993  0.3063
   42MOL   H25715919   4.985   6.687   7.181  0.2634  1.6413 -0.1744
   42MOL   H25815920   5.121   6.518   7.325 -3.9056 -3.1607  1.2408
   42MOL   H25915921   5.215   6.484   7.189 -0.2420 -0.6657 -1.4987
   42MOL   H26015922   4.918   6.428   7.230 -0.5624  1.5295 -1.3267
   42MOL   H26115923   5.057   6.322   7.187 -1.5782 -1.2626  0.4206
   42MOL   H26215924   4.864   6.466   7.020 -0.2323 -0.7570 -0.5044
   42MOL   H26315925   5.016   6.388   6.967  0.6594  2.0164 -1.0504
   42MOL   H26415926   4.995   6.659   6.939  0.9496 -0.4504 -0.1784
   42MOL   H26515927   5.141   6.577   6.946  0.9247  1.0707  0.8243
   42MOL   H26615928   5.173   6.972   7.124  1.0415  0.1174  1.8704
   42MOL   H26715929   5.032   6.883   7.066  0.3781  0.9423 -0.6605
   42MOL   C26815930   5.025   6.952   7.274 -0.1579 -0.1390 -0.6644
   42MOL   C26915931   4.913   7.035   7.209  0.0421 -0.6058  0.4108
   42MOL   C27015932   4.834   7.137   7.296 -0.1162 -0.4204 -0.1792
   42MOL   C27115933   4.708   7.170   7.211 -0.0251 -0.5952  0.2684
   42MOL   C27215934   4.670   7.046   7.124  0.3728  0.5556 -0.0052
   42MOL   C27315935   4.797   6.954   7.150  0.2476 -0.8247  0.3825
   42MOL   C27415936   5.127   7.032   7.361  0.5428 -0.3023  0.0916
   42MOL   H27515937   4.983   6.876   7.340 -1.0389  0.6349 -0.3150
   42MOL   H27615938   4.955   7.092   7.126 -1.6859  1.0167  0.6086
   42MOL   H27715939   4.792   7.095   7.388 -0.4130  1.3561  0.5182
   42MOL   H27815940   4.889   7.230   7.307  2.3308 -1.9231  0.8436
   42MOL   H27915941   4.615   7.193   7.264  0.9936 -0.1932  1.9031
   42MOL   H28015942   4.733   7.250   7.142 -0.2526 -1.0095 -0.2965
   42MOL   H28115943   4.665   7.074   7.019  1.3755  2.4089  0.4160
   42MOL   H28215944   4.577   6.999   7.157  0.1138  0.1722 -1.2716
   42MOL   H28315945   4.815   6.896   7.059  1.6922  0.1677  0.0224
   42MOL   H28415946   4.770   6.872   7.217  1.8045 -3.3029 -1.8931
   42MOL   H28515947   5.137   7.120   7.298  2.3637 -0.3582  0.2755
   42MOL   H28615948   5.230   6.995   7.369  0.2885 -0.9558  0.4022
   42MOL   C28715949   5.077   7.072   7.506  0.2797 -0.8136 -0.3464
   42MOL   C28815950   5.108   6.953   7.612  0.2431  1.1368  0.0439
   42MOL   C28915951   5.247   6.954   7.680  0.1376 -0.5670  0.0055
   42MOL   C29015952   5.226   6.893   0.131 -0.3568 -0.4040  0.1845
   42MOL   C29115953   5.083   6.838   0.136 -0.5976 -0.3473  0.3950
   42MOL   C29215954   5.012   6.935   0.043  0.2694  0.0433 -0.2279
   42MOL   C29315955   5.127   7.219   7.530 -0.0685  0.0822 -0.0192
   42MOL   H29415956   4.969   7.077   7.520  0.3247  1.3243 -0.7003
   42MOL   H29515957   5.090   6.860   7.557 -0.4471  0.3673  1.5352
   42MOL   H29615958   5.314   6.884   7.631  0.2619 -0.3873 -0.0841
   42MOL   H29715959   5.290   7.054   7.687 -2.5512  0.5899  0.8556
   42MOL   H29815960   5.301   6.818   0.154  0.4483  0.5239  0.5813
   42MOL   H29915961   5.240   6.970   0.206  0.6178  0.0056 -0.4162
   42MOL   H30015962   5.038   6.827   0.235  0.2737 -2.2786  0.5916
   42MOL   H30115963   5.093   6.738   0.096  0.1110  0.4656 -1.5501
   42MOL   H30215964   5.016   7.036   0.085  0.3813  1.2076 -2.8901
   42MOL   H30315965   4.910   6.908   0.019  0.1052 -1.8557  2.4685
   42MOL   H30415966   5.071   7.277   7.457  1.7310  1.5429 -0.2838
   42MOL   H30515967   5.230   7.232   7.497 -0.1184  1.6085  0.3736
   42MOL   C30615968   5.105   7.273   7.668  0.0795  0.0832 -0.7417
   42MOL   C30715969   5.209   7.384   0.009  0.1156 -0.5611  0.1382
   42MOL   C30815970   5.356   7.334   0.029 -0.8610 -0.2348  0.4200
   42MOL   C30915971   5.436   7.466   0.028  0.3305  0.5480 -0.0304
   42MOL   C31015972   5.374   7.546   7.604 -0.4091 -0.2646  0.5065
   42MOL   C31115973   5.223   7.500   7.599 -0.6068 -0.1896  0.1172
   42MOL   C31215974   4.961   7.313   0.011  0.0308 -0.3405  0.2061
   42MOL   H31315975   5.142   7.199   0.049  1.3208 -0.7276 -2.2140
   42MOL   H31415976   5.186   7.429   0.105  0.6110  1.3193 -0.6100
   42MOL   H31515977   5.391   7.267   7.641 -0.9833 -1.6576  1.5564
   42MOL   H31615978   5.373   7.276   0.121 -0.8531 -1.3703 -0.2838
   42MOL   H31715979   5.417   7.506   0.128 -2.1143  0.1374 -0.2972
   42MOL   H31815980   5.543   7.452   0.017  0.4827  1.5940  0.0070
   42MOL   H31915981   5.423   7.528   7.508 -0.7036  1.3674  0.0263
   42MOL   H32015982   5.391   7.652   7.623  0.5632  0.1642 -2.3856
   42MOL   H32115983   5.157   7.580   7.633 -1.4796 -0.8759  0.0619
   42MOL   H32215984   5.178   7.479   7.502  0.7452  1.5087 -0.9044
   42MOL   H32315985   4.890   7.235   7.674  1.2848 -1.3581 -0.2126
   42MOL   H32415986   4.942   7.387   7.623 -1.1048  0.5817  1.3371
   42MOL   C32515987   4.914   7.374   0.144 -0.3516 -0.0726 -0.1831
   42MOL   C32615988   4.935   7.282   0.273  0.1526  0.4871  0.9403
   42MOL   C32715989   4.862   7.328   0.400  0.0223  0.5070 -0.2853
   42MOL   C32815990   4.929   7.256   0.514  0.7169  0.2242 -0.3372
   42MOL   C32915991   5.060   7.199   0.464 -0.1627  0.9898  0.5305
   42MOL   C33015992   5.073   7.243   0.320 -0.7224  0.4319 -0.6981
   42MOL   C33115993   4.760   7.413   0.139 -0.2250  0.1203  0.1666
   42MOL   H33215994   4.975   7.460   0.172  0.1395 -0.3146 -0.4951
   42MOL   H33315995   4.894   7.185   0.244 -1.9266  1.4721  0.4750
   42MOL   H33415996   4.757   7.299   0.397  0.4506 -1.6505  2.9470
   42MOL   H33515997   4.866   7.436   0.415 -1.0838  0.6547 -1.0003
   42MOL   H33615998   4.871   7.166   0.534 -3.2710  2.0746 -3.0288
   42MOL   H33715999   4.925   7.308   0.610 -1.4681 -0.0051 -0.2793
   42MOL   H33816000   5.051   7.090   0.467  2.1388  0.8134  2.1413
   42MOL   H33916001   5.150   7.225   0.520  0.0212 -0.4906  0.9602
   42MOL   H34016002   5.116   7.154   0.274  0.0697  1.1557 -1.3891
   42MOL   H34116003   5.151   7.319   0.311  0.3646 -0.2755  2.3226
   42MOL   H34216004   4.734   7.456   0.236  0.7272  2.4938 -0.5890
   42MOL   H34316005   4.695   7.327   0.127  0.8717 -0.7977  0.7007
   42MOL   C34416006   4.727   7.526   0.035 -0.6364 -0.1656  0.9156
   42MOL   C34516007   4.811   7.657   0.048 -1.2236 -0.1878  0.2951
   42MOL   C34616008   4.819   0.032   0.186  0.1163 -0.5358  0.0736
   42MOL   C34716009   4.840   0.181   0.150  0.5530 -0.1826 -0.2538
   42MOL   C34816010   4.868   0.189   0.003 -0.5746 -0.4462 -0.4643
   42MOL   C34916011   4.793   0.077   7.631 -0.5804  0.2026  0.1011
   42MOL   C35016012   4.573   7.550   0.034  0.2160 -0.2569 -0.5478
   42MOL   H35116013   4.742   7.481   7.627 -0.7822  0.9111  0.3874
   42MOL   H35216014   4.906   7.617   0.012 -1.1149 -1.2544  1.7204
   42MOL   H35316015   4.903   7.676   0.238 -0.0958 -1.1173 -0.0959
   42MOL   H35416016   4.734   0.001   0.246 -0.4060  0.4454 -0.1480
   42MOL   H35516017   4.757   0.244   0.182  0.2150 -0.7942  0.0867
   42MOL   H35616018   4.919   0.221   0.214 -0.0022 -0.5039  0.6380
   42MOL   H35716019   4.976   0.176   0.002 -0.4802  0.3807 -1.1609
   42MOL   H35816020   4.847   0.285   7.646  2.2751  0.3315 -0.2362
   42MOL   H35916021   4.690   0.111   7.625 -0.5838  0.8403  2.9869
   42MOL   H36016022   4.825   0.042   7.532  1.2442 -0.9317  1.0544
   42MOL   H36116023   4.552   7.630   7.652 -1.7480  0.3720  0.6795
   42MOL   H36216024   4.554   7.599   0.130 -0.3664  1.8065 -1.6680
   42MOL   C36316025   4.475   7.434   0.030  0.1648  0.0473 -0.1615
   42MOL   C36416026   4.325   7.470   0.064 -0.1943 -0.3535  0.9837
   42MOL   C36516027   4.272   7.589   7.673 -1.2814  0.3732  0.0815
   42MOL   C36616028   4.287   0.017   0.086 -0.5442 -0.0159  0.5547
   42MOL   C36716029   4.297   7.644   0.228  0.5617  0.3509  1.0292
   42MOL   C36816030   4.292   7.493   0.207  0.6833  0.4980  0.8882
   42MOL   C36916031   4.494   7.333   7.602  0.5076 -0.0741  0.2316
   42MOL   H37016032   4.508   7.380   0.119  2.6734  1.2428 -0.3291
   42MOL   H37116033   4.263   7.385   0.034  0.7092 -0.3122 -1.0725
   42MOL   H37216034   4.325   7.615   7.581 -1.4826 -0.7084 -0.3505
   42MOL   H37316035   4.166   7.578   7.649 -1.4233 -0.3530  1.0407
   42MOL   H37416036   4.374   0.079   0.064 -0.8647 -0.6213 -2.6738
   42MOL   H37516037   4.207   0.090   0.069  0.0881  0.5743  0.0828
   42MOL   H37616038   4.387   7.677   0.280  1.0800  3.5150 -1.7166
   42MOL   H37716039   4.210   7.676   0.285  0.2137  0.7189  0.2994
   42MOL   H37816040   4.195   7.445   0.220  0.7195 -0.5404 -2.0773
   42MOL   H37916041   4.361   7.440   0.272  1.1799 -0.8821 -0.7152
   42MOL   H38016042   4.455   7.370   7.507  0.7743  1.1858  0.6126
   42MOL   H38116043   4.453   7.237   7.636  1.1093 -0.2089  0.5886
   42MOL   H38216044   4.601   7.324   7.584  0.7648  0.0686  1.6352
   43MOL     C116045   2.942   7.514   7.406  0.3734  0.0008 -0.3293
   43MOL     C216046   2.907   7.579   7.541 -0.6832  0.3313  0.2669
   43MOL     C316047   2.773   7.531   7.597  0.2570 -0.2621 -0.0761
   43MOL     C416048   2.730   7.623   0.022 -0.3009  0.1068 -0.1150
   43MOL     C516049   2.789   0.064   7.664 -0.4808  0.7770  0.3412
   43MOL     C616050   2.891   0.043   7.546 -0.0900 -0.0105 -0.2330
   43MOL     C716051   3.056   7.578   7.318  0.3514  0.3141  0.3541
   43MOL     H816052   2.957   7.407   7.411 -0.7098 -0.0656  2.3864
   43MOL     H916053   2.985   7.556   7.613  0.8737  1.0600 -1.1373
   43MOL    H1016054   2.707   7.548   7.512  0.7875  0.5673 -0.3150
   43MOL    H1116055   2.779   7.423   7.614 -0.9774 -0.4346 -0.6349
   43MOL    H1216056   2.624   7.625   0.049  0.0505  1.0471  1.2014
   43MOL    H1316057   2.777   7.580   0.110  0.9157  0.1482 -0.7294
   43MOL    H1416058   2.712   0.132   7.627  1.3975  1.4270 -2.5065
   43MOL    H1516059   2.831   0.118   0.059  0.0105  3.5997 -1.6259
   43MOL    H1616060   2.988   0.091   7.557 -0.4729  1.0951 -1.5529
   43MOL    H1716061   2.853   0.082   7.452 -0.3810 -1.6176 -0.7994
   43MOL    H1816062   3.019   7.677   7.290 -1.5025 -0.9601 -1.8435
   43MOL    H1916063   3.139   7.599   7.386  0.9733 -0.4222 -0.1750
   43MOL    H2016064   2.854   7.519   7.342  0.1366  1.2796  0.0827
   43MOL    C2116065   3.119   7.508   7.199  0.3436 -0.1118  0.1813
   43MOL    C2216066   3.012   7.461   7.100 -0.0628 -0.1501  0.2069
   43MOL    C2316067   3.056   7.372   6.979 -0.5881 -0.1403 -0.0653
   43MOL    C2416068   2.954   7.376   6.871 -0.2475  0.0491 -0.4352
   43MOL    C2516069   2.858   7.482   6.924 -0.2285 -0.2714 -0.7748
   43MOL    C2616070   2.931   7.565   7.036 -0.6681 -0.2188  0.7144
   43MOL    C2716071   3.216   7.614   7.135  0.8677  0.0362 -0.0481
   43MOL    H2816072   3.164   7.418   7.243  0.8074 -0.3014 -0.6773
   43MOL    H2916073   2.947   7.395   7.158  0.0525  1.0885  1.7693
   43MOL    H3016074   3.089   7.270   7.002  3.1413  1.3789  1.7776
   43MOL    H3116075   3.142   7.430   6.946 -0.1649 -0.8583 -0.2481
   43MOL    H3216076   3.001   7.391   6.774  1.3369 -0.5250  0.2273
   43MOL    H3316077   2.898   7.283   6.879 -1.0652  0.5397 -0.3186
   43MOL    H3416078   2.772   7.439   6.976 -0.0018  1.4770  1.1416
   43MOL    H3516079   2.826   7.549   6.844  0.4994  3.2772  1.7834
   43MOL    H3616080   2.867   7.624   7.102  1.5439  1.0805  1.7535
   43MOL    H3716081   3.003   7.631   6.987  1.0063 -1.7774  1.0163
   43MOL    H3816082   3.231   7.598   7.028  0.0703 -0.8905 -0.0246
   43MOL    H3916083   3.168   0.022   7.135 -0.3154 -0.5211 -1.7976
   43MOL    C4016084   3.370   7.619   7.192 -0.1082  0.4749  0.2749
   43MOL    C4116085   3.466   7.530   7.102  0.6471 -0.0414  0.5258
   43MOL    C4216086   3.422   7.391   7.065  0.2593  0.4317  0.5109
   43MOL    C4316087   3.548   7.305   7.048 -0.2477 -0.0374  0.0819
   43MOL    C4416088   3.668   7.386   7.097  0.4649 -0.3416  1.1399
   43MOL    C4516089   3.606   7.511   7.161  0.8536  0.3188  0.2995
   43MOL    C4616090   3.420   0.072   7.201  0.2877 -0.2549  0.4844
   43MOL    H4716091   3.368   7.569   7.289  1.9529  1.2020  0.7069
   43MOL    H4816092   3.471   7.584   7.008  0.3844 -2.2412 -0.7865
   43MOL    H4916093   3.357   7.374   6.980  1.0381  0.1150 -0.0227
   43MOL    H5016094   3.359   7.356   7.147  0.5843  0.4345  0.7622
   43MOL    H5116095   3.571   7.280   6.944  0.1345 -0.3614  0.2468
   43MOL    H5216096   3.533   7.211   7.101 -0.3558  0.2920  0.6404
   43MOL    H5316097   3.731   7.321   7.157  1.2351 -0.2178  0.4827
   43MOL    H5416098   3.736   7.415   7.016 -0.8897 -1.1840 -0.3392
   43MOL    H5516099   3.600   7.508   7.270  1.1774 -0.3403  0.3038
   43MOL    H5616100   3.665   7.598   7.132 -1.3371  2.2918  1.6065
   43MOL    H5716101   3.528   0.063   7.214  0.2052  0.2550  1.5938
   43MOL    H5816102   3.393   0.126   7.110  0.7409 -2.7953 -1.2036
   43MOL    C5916103   3.356   0.160   7.318 -0.2862  0.3830  0.2453
   43MOL    C6016104   3.454   0.170   7.432 -0.4061  0.2574  0.6153
   43MOL    C6116105   3.485   0.033   7.498  0.0068 -0.2732 -0.0678
   43MOL    C6216106   3.551   0.076   7.628  0.0176  0.0272 -0.2130
   43MOL    C6316107   3.502   0.216   7.669  0.3511 -0.9823 -0.7560
   43MOL    C6416108   3.414   0.262   7.553 -0.7430 -0.0682  0.5692
   43MOL    C6516109   3.330   0.303   7.279  0.0117 -0.1085  0.3837
   43MOL    H6616110   3.263   0.109   7.346  0.7226 -2.4748 -1.4965
   43MOL    H6716111   3.545   0.217   7.394 -0.5518 -0.3756 -0.5603
   43MOL    H6816112   3.553   7.659   7.440 -3.0742 -2.7655 -1.0555
   43MOL    H6916113   3.392   7.668   7.509 -0.0147 -0.3816 -0.7357
   43MOL    H7016114   3.659   0.072   7.614 -0.1737  0.1596 -1.8143
   43MOL    H7116115   3.528   0.006   0.019  2.9217  0.2212  0.8185
   43MOL    H7216116   3.584   0.286   7.683  0.3209 -1.1275  0.1594
   43MOL    H7316117   3.444   0.203   0.071  0.1299 -0.2680 -0.7950
   43MOL    H7416118   3.307   0.260   7.571 -0.3601 -1.8716  2.8558
   43MOL    H7516119   3.446   0.362   7.524  0.1635 -0.6141 -0.3750
   43MOL    H7616120   3.429   0.334   7.246 -0.2681  1.0079  0.5970
   43MOL    H7716121   3.292   0.366   7.359  2.6824 -0.9138  2.3512
   43MOL    C7816122   3.234   0.328   7.163  0.8396  0.1184 -0.5122
   43MOL    C7916123   3.095   0.390   7.212 -0.3911  0.0564  0.5700
   43MOL    C8016124   3.030   0.322   7.333 -0.0750  0.1253 -0.0133
   43MOL    C8116125   2.878   0.355   7.316  0.5410  0.1767 -0.6005
   43MOL    C8216126   2.856   0.333   7.168  0.2780  0.4288  0.8880
   43MOL    C8316127   2.984   0.388   7.105  0.1960  0.5516 -0.0653
   43MOL    C8416128   3.300   0.427   7.065 -0.0644 -0.8505  0.4896
   43MOL    H8516129   3.202   0.234   7.118  0.3865  1.0584 -2.1816
   43MOL    H8616130   3.113   0.492   7.243  1.4031 -0.2816  0.7008
   43MOL    H8716131   3.070   0.352   7.430 -0.1601 -0.3378  0.1656
   43MOL    H8816132   3.027   0.213   7.329  1.0668  0.0774  0.3208
   43MOL    H8916133   2.858   0.457   7.349 -0.4669 -0.2712  0.1935
   43MOL    H9016134   2.826   0.295   7.391  0.3753 -0.6099 -1.3390
   43MOL    H9116135   2.847   0.226   7.148  2.0778  0.0989  1.7551
   43MOL    H9216136   2.766   0.384   7.134 -0.1581  0.0686  1.4779
   43MOL    H9316137   3.000   0.329   7.014 -2.3530 -0.5764  0.1711
   43MOL    H9416138   2.968   0.487   7.064  0.9994  0.3214 -0.9743
   43MOL    H9516139   3.342   0.505   7.128  2.4966 -2.7196  1.1615
   43MOL    H9616140   3.222   0.477   7.007 -0.0494 -0.0002  1.1920
   43MOL    C9716141   3.404   0.365   6.963 -0.7942  0.1420  0.3704
   43MOL    C9816142   3.510   0.461   6.904  0.3923 -0.1894 -0.2403
   43MOL    C9916143   3.546   0.589   6.988 -0.3508 -0.0780 -0.1354
   43MOL   C10016144   3.673   0.634   6.917  0.3050 -0.0563  0.1083
   43MOL   C10116145   3.753   0.506   6.890  0.6850 -0.6147 -0.6165
   43MOL   C10216146   3.651   0.394   6.881 -0.7498  0.2891  0.4595
   43MOL   C10316147   3.331   0.278   6.859  0.2583 -0.5508 -0.2008
   43MOL   H10416148   3.460   0.293   7.023  0.4200  0.0230 -0.8943
   43MOL   H10516149   3.483   0.495   6.804  2.0208  0.7627 -0.3743
   43MOL   H10616150   3.481   0.676   6.994  1.0916  1.0056  0.0896
   43MOL   H10716151   3.571   0.565   7.091 -1.3895 -1.2003 -0.1362
   43MOL   H10816152   3.719   0.708   6.982 -2.4721  0.9418  1.0189
   43MOL   H10916153   3.662   0.687   6.822 -1.2596 -0.6388 -0.0519
   43MOL   H11016154   3.837   0.503   6.959 -0.2138  1.3993  0.6117
   43MOL   H11116155   3.795   0.510   6.789 -3.3404  1.7192 -2.3037
   43MOL   H11216156   3.661   0.346   6.784  1.8488 -0.3099  1.0020
   43MOL   H11316157   3.679   0.325   6.960 -1.5432 -1.4705 -0.7638
   43MOL   H11416158   3.410   0.211   6.826  1.4964  0.0941  1.4039
   43MOL   H11516159   3.259   0.213   6.909  1.0774 -1.1293  0.2315
   43MOL   C11616160   3.276   0.336   6.725  0.2851 -0.0453  0.4374
   43MOL   C11716161   3.208   0.226   6.636 -0.6649 -0.2277  0.4188
   43MOL   C11816162   3.295   0.115   6.578  0.6734  0.0087 -0.1435
   43MOL   C11916163   3.197   0.001   6.549 -0.4293  0.5628 -0.0759
   43MOL   C12016164   3.097   0.010   6.666 -0.2424 -1.0299 -0.3932
   43MOL   C12116165   3.085   0.159   6.702 -0.6835  0.0717 -0.1949
   43MOL   C12216166   3.178   0.456   6.743 -0.6227  1.0827  0.1876
   43MOL   H12316167   3.357   0.369   6.661 -1.8981  1.1253 -1.7748
   43MOL   H12416168   3.162   0.281   6.555  1.7590  0.6120 -0.4169
   43MOL   H12516169   3.340   0.157   6.488  1.5195  1.6996  1.0452
   43MOL   H12616170   3.378   0.084   6.643  1.4833 -1.0810 -1.6705
   43MOL   H12716171   3.260   7.602   6.557  0.2835  1.2063  1.9111
   43MOL   H12816172   3.155   0.023   6.451 -1.3256  1.0510  0.4082
   43MOL   H12916173   3.133   7.650   6.755  2.2647  1.9381  0.3580
   43MOL   H13016174   2.994   7.668   6.646 -0.9423  0.7047  0.2749
   43MOL   H13116175   2.997   0.205   6.657 -1.0392 -0.5537 -0.1533
   43MOL   H13216176   3.100   0.172   6.809 -0.1224  2.5789 -0.5549
   43MOL   H13316177   3.238   0.523   6.804  1.2257 -1.2955  1.0355
   43MOL   H13416178   3.100   0.429   6.814  0.6865 -0.4444  1.0479
   43MOL   C13516179   3.128   0.550   6.627 -0.2045  0.6341 -0.2450
   43MOL   C13616180   3.226   0.676   6.613 -0.0408 -0.0586 -0.5186
   43MOL   C13716181   3.242   0.777   6.727  0.4314 -0.3056 -0.6699
   43MOL   C13816182   3.316   0.895   6.659 -0.1172  0.2351 -0.2320
   43MOL   C13916183   3.248   0.899   6.523 -0.6354 -0.6647 -1.2770
   43MOL   C14016184   3.221   0.757   6.485  0.0086  0.1835 -0.1713
   43MOL   C14116185   2.977   0.602   6.637 -0.7783 -0.2282 -0.1433
   43MOL   H14216186   3.140   0.490   6.537 -1.7779  0.5748 -0.4233
   43MOL   H14316187   3.326   0.634   6.612 -0.3747 -0.8603 -0.3432
   43MOL   H14416188   3.149   0.813   6.772  0.8586  2.4008 -1.8445
   43MOL   H14516189   3.291   0.739   6.816 -1.3514  0.0999  0.5023
   43MOL   H14616190   3.425   0.892   6.659 -0.0682 -0.4065  3.4040
   43MOL   H14716191   3.292   0.990   6.707  4.1290  1.6035 -0.5638
   43MOL   H14816192   3.303   0.950   6.445 -1.8063  0.5875 -1.3122
   43MOL   H14916193   3.157   0.954   6.548  0.9228  0.6887  1.7325
   43MOL   H15016194   3.122   0.760   6.440  0.1567 -0.3942 -0.5357
   43MOL   H15116195   3.285   0.720   6.405 -1.9236 -0.8215 -1.2777
   43MOL   H15216196   2.963   0.694   6.580  2.5386 -0.6769 -1.8260
   43MOL   H15316197   2.967   0.654   6.733 -0.9899  0.5003 -0.5536
   43MOL   C15416198   2.861   0.504   6.623  0.4841  0.4921  0.3085
   43MOL   C15516199   2.741   0.559   6.699  0.3875  1.0680 -0.8175
   43MOL   C15616200   2.694   0.700   6.672  0.0877 -0.7674 -0.0213
   43MOL   C15716201   2.727   0.788   6.786  0.0510  0.6754 -0.0847
   43MOL   C15816202   2.714   0.693   6.910 -0.4438 -0.2943  0.4036
   43MOL   C15916203   2.754   0.550   6.854 -0.2553 -0.0903  0.3343
   43MOL   C16016204   2.834   0.472   6.474  0.4249 -0.7543 -0.6049
   43MOL   H16116205   2.890   0.408   6.666  0.7199  0.2934 -0.2940
   43MOL   H16216206   2.654   0.496   6.680 -0.9850  2.6469  0.1102
   43MOL   H16316207   2.749   0.736   6.585 -1.4132 -1.1223 -1.1319
   43MOL   H16416208   2.594   0.702   6.630 -0.1976  0.8014  0.6953
   43MOL   H16516209   2.828   0.830   6.794  0.0943  0.7258 -0.8247
   43MOL   H16616210   2.671   0.881   6.796  0.6863  0.9827  0.7048
   43MOL   H16716211   2.613   0.685   6.952 -0.8500  1.6150 -0.1616
   43MOL   H16816212   2.769   0.726   6.998  0.1399  0.2176 -0.1494
   43MOL   H16916213   2.689   0.471   6.892 -1.3359  0.4898 -0.2883
   43MOL   H17016214   2.858   0.519   6.870 -0.3075  0.5731  2.0040
   43MOL   H17116215   2.930   0.463   6.424  1.2960  0.0376  0.8712
   43MOL   H17216216   2.799   0.565   6.430  0.2414 -1.7084 -2.4937
   43MOL   C17316217   2.729   0.364   6.437  0.6201  0.9494  0.1404
   43MOL   C17416218   2.815   0.235   6.403 -0.0457  0.2517  0.1149
   43MOL   C17516219   2.874   0.237   6.263 -0.1074  0.7438 -0.8696
   43MOL   C17616220   2.807   0.118   6.195 -0.0896  0.2228 -0.2463
   43MOL   C17716221   2.795   0.014   6.303 -0.1757  0.6633  0.5694
   43MOL   C17816222   2.753   0.097   6.424 -0.4541 -0.1379  0.6244
   43MOL   C17916223   2.628   0.405   6.320 -0.0143  0.0834  0.3219
   43MOL   H18016224   2.676   0.335   6.528  1.3581  1.3451  0.7009
   43MOL   H18116225   2.898   0.236   6.474 -1.7134 -1.4447  2.1700
   43MOL   H18216226   2.977   0.225   6.298 -1.4394 -2.8317  2.1936
   43MOL   H18316227   2.862   0.328   6.204  2.8086  1.0097 -1.1261
   43MOL   H18416228   2.711   0.146   6.153 -0.2648  0.7719  0.5195
   43MOL   H18516229   2.873   0.078   6.118 -0.5769  1.0142 -1.0888
   43MOL   H18616230   2.892   7.657   6.318 -0.6776  0.4080  3.1973
   43MOL   H18716231   2.721   7.631   6.269  1.1819  0.1651 -1.3603
   43MOL   H18816232   2.644   0.106   6.423 -0.4154  0.4485  1.3817
   43MOL   H18916233   2.781   0.052   6.519 -1.2106 -1.7998  0.0869
   43MOL   H19016234   2.685   0.456   6.243  1.7092 -1.2527  0.6925
   43MOL   H19116235   2.585   0.314   6.278 -1.2085 -0.4267  2.5598
   43MOL   C19216236   2.509   0.506   6.362 -0.0173  0.4135 -0.0222
   43MOL   C19316237   2.395   0.443   6.455 -0.1420 -0.4663 -0.3703
   43MOL   C19416238   2.309   0.338   6.393 -0.0724 -0.4690  0.7651
   43MOL   C19516239   2.202   0.319   6.500 -0.6778 -0.2558 -0.0296
   43MOL   C19616240   2.175   0.466   6.540  0.0657  0.6990 -0.6464
   43MOL   C19716241   2.310   0.539   6.539 -0.5460  0.1166 -0.1894
   43MOL   C19816242   2.432   0.561   6.234 -0.2305 -0.5997 -0.2151
   43MOL   H19916243   2.557   0.586   6.419  0.5053  1.6442 -2.1457
   43MOL   H20016244   2.461   0.387   6.522  2.0128  2.4724  0.0398
   43MOL   H20116245   2.368   0.247   6.380  1.5623  0.8795 -1.7731
   43MOL   H20216246   2.281   0.366   6.291  1.8951  2.5958  1.0138
   43MOL   H20316247   2.115   0.275   6.451 -0.6028 -0.6990  0.2316
   43MOL   H20416248   2.226   0.240   6.571  1.3750 -0.2623 -0.7010
   43MOL   H20516249   2.116   0.476   6.630 -0.1209  1.4082 -0.8477
   43MOL   H20616250   2.112   0.510   6.463  1.4989  1.0699 -1.6401
   43MOL   H20716251   2.355   0.561   6.635  0.1581  0.9344 -0.7048
   43MOL   H20816252   2.308   0.640   6.498  2.6756 -0.8087 -2.8257
   43MOL   H20916253   2.424   0.481   6.160  0.4488 -0.7396 -0.1452
   43MOL   H21016254   2.328   0.583   6.258 -0.8208 -0.5016 -2.7356
   43MOL   C21116255   2.490   0.680   6.163 -0.2449  0.2835 -0.1598
   43MOL   C21216256   2.490   0.668   6.008 -0.0753 -0.5609  0.2971
   43MOL   C21316257   2.584   0.563   5.956  0.7336  0.4790 -0.5381
   43MOL   C21416258   2.545   0.550   5.807  0.2967  0.4862  0.2399
   43MOL   C21516259   2.395   0.573   5.801  0.1873 -0.5633 -0.1740
   43MOL   C21616260   2.356   0.639   5.939  0.0884 -0.2716  0.1466
   43MOL   C21716261   2.434   0.816   6.213  0.1416  0.9603 -0.9078
   43MOL   H21816262   2.597   0.686   6.185 -0.6928 -0.7354  2.4887
   43MOL   H21916263   2.538   0.756   5.967 -0.2524 -1.1406 -1.1661
   43MOL   H22016264   2.691   0.587   5.960  1.2762 -1.2520 -3.3507
   43MOL   H22116265   2.580   0.468   6.008  1.6869  0.5579 -0.3061
   43MOL   H22216266   2.599   0.613   5.736 -0.0827  0.3432 -0.1832
   43MOL   H22316267   2.573   0.450   5.775 -0.1969  0.7952 -1.2366
   43MOL   H22416268   2.330   0.486   5.790  0.9475 -1.1997  0.3547
   43MOL   H22516269   2.360   0.642   5.724  0.6893 -1.7014 -1.4341
   43MOL   H22616270   2.315   0.739   5.922  2.6729  0.6698 -0.7931
   43MOL   H22716271   2.285   0.587   6.004 -1.9208  0.5931 -1.2974
   43MOL   H22816272   2.422   0.821   6.321  0.9254 -0.9444 -0.7084
   43MOL   H22916273   2.331   0.824   6.177 -0.7120 -0.4200  1.1770
   43MOL   C23016274   2.515   0.945   6.175  0.7840 -0.4694  0.5537
   43MOL   C23116275   2.623   0.983   6.289  0.2900 -0.0237  0.3506
   43MOL   C23216276   2.729   0.878   6.308 -0.5770 -0.5423  0.4141
   43MOL   C23316277   2.837   0.945   6.390  0.1960  0.4726 -0.2350
   43MOL   C23416278   2.823   1.093   6.360 -0.4588  0.0373 -0.4590
   43MOL   C23516279   2.715   1.105   6.252  0.0905 -0.3891  0.2574
   43MOL   C23616280   2.420   1.067   6.152 -0.2976  0.1839  0.1777
   43MOL   H23716281   2.568   0.925   6.082  0.2746 -0.7771  0.3276
   43MOL   H23816282   2.560   1.004   6.375 -1.0727 -3.6025  0.3281
   43MOL   H23916283   2.693   0.781   6.345  2.0784 -1.9747 -0.6205
   43MOL   H24016284   2.763   0.849   6.209  1.6259 -0.9765  1.2521
   43MOL   H24116285   2.822   0.934   6.497 -1.5543 -0.5536 -0.5593
   43MOL   H24216286   2.930   0.898   6.356  0.0786 -0.7986  1.1443
   43MOL   H24316287   2.915   1.129   6.313  1.8517 -1.9358  2.3865
   43MOL   H24416288   2.806   1.153   6.450  2.1371 -0.5631  0.4825
   43MOL   H24516289   2.765   1.088   6.156  0.5771 -0.0765  0.4540
   43MOL   H24616290   2.673   1.205   6.252 -0.3240 -0.5215 -2.2338
   43MOL   H24716291   2.471   1.162   6.138  4.7127 -1.9583  2.6406
   43MOL   H24816292   2.380   1.086   6.251  1.2644  1.8814  0.5175
   43MOL   C24916293   2.306   1.053   6.042  0.6274  0.1437  0.3790
   43MOL   C25016294   2.356   1.110   5.905  0.1874 -0.7302 -0.3498
   43MOL   C25116295   2.252   1.139   5.800 -0.4509 -0.3076  0.1786
   43MOL   C25216296   2.332   1.144   5.659  0.2410  0.2199 -0.0529
   43MOL   C25316297   2.447   1.045   5.679 -0.1468 -0.4114  0.3087
   43MOL   C25416298   2.451   1.017   5.827  0.3634 -0.0826 -0.3930
   43MOL   C25516299   2.184   1.133   6.099 -0.5040  0.2199  1.0522
   43MOL   H25616300   2.272   0.951   6.029 -0.5888  0.7359 -1.1564
   43MOL   H25716301   2.415   1.201   5.912  2.3487 -2.0475 -1.0896
   43MOL   H25816302   2.196   1.231   5.816  1.6478  1.2561 -1.2086
   43MOL   H25916303   2.181   1.056   5.794  1.6085 -2.1266  0.0868
   43MOL   H26016304   2.368   1.245   5.638 -1.2797  0.2584 -2.6800
   43MOL   H26116305   2.272   1.102   5.578  0.1835 -0.5513  0.3947
   43MOL   H26216306   2.540   1.085   5.640  0.3101 -0.9200  0.8720
   43MOL   H26316307   2.442   0.954   5.618  0.8613 -1.7887  2.2253
   43MOL   H26416308   2.549   1.041   5.869 -0.1258  0.4430  0.4661
   43MOL   H26516309   2.425   0.912   5.835  2.5488 -0.6596 -0.3120
   43MOL   H26616310   2.225   1.226   6.140 -1.2345  0.5722  0.9850
   43MOL   H26716311   2.110   1.149   6.021 -1.1004 -1.7676  1.1910
   43MOL   C26816312   2.106   1.060   6.212 -0.3739 -0.7403 -0.0886
   43MOL   C26916313   1.988   0.973   6.159 -0.3377  0.0983 -1.6725
   43MOL   C27016314   1.919   0.880   6.262 -0.5774  0.1240 -0.3125
   43MOL   C27116315   1.900   0.745   6.191 -0.3064  0.1728  0.2574
   43MOL   C27216316   1.897   0.778   6.043 -0.5883 -0.8660  0.1332
   43MOL   C27316317   2.010   0.883   6.037  0.6375  0.6053 -0.2743
   43MOL   C27416318   2.038   1.163   6.315  0.3340 -0.1863  0.5726
   43MOL   H27516319   2.168   0.986   6.264 -0.7163 -0.1917  1.1108
   43MOL   H27616320   1.918   1.052   6.131  1.4481  1.5313 -2.2258
   43MOL   H27716321   1.967   0.868   6.358  0.3779 -1.0457 -0.9151
   43MOL   H27816322   1.819   0.918   6.280 -1.5124 -3.1726  1.9529
   43MOL   H27916323   1.982   0.676   6.211 -0.8352 -0.8309 -0.9584
   43MOL   H28016324   1.808   0.700   6.226 -0.9483  0.2645 -1.2681
   43MOL   H28116325   1.802   0.825   6.015  0.1486  0.8798  0.5234
   43MOL   H28216326   1.934   0.697   5.980  0.8451  0.6027 -0.9661
   43MOL   H28316327   2.022   0.940   5.945 -0.3186  0.8308 -0.2624
   43MOL   H28416328   2.105   0.832   6.052 -0.7626 -1.7303  0.9194
   43MOL   H28516329   1.947   1.116   6.352 -1.5777  3.6262  1.0405
   43MOL   H28616330   2.003   1.249   6.257  0.6583  1.2478  2.4515
   43MOL   C28716331   2.130   1.227   6.424 -0.8611  0.1596 -0.0803
   43MOL   C28816332   2.075   1.361   6.483 -0.2921 -0.3060  0.5202
   43MOL   C28916333   2.094   1.483   6.394  0.3664  0.3856 -0.1571
   43MOL   C29016334   2.010   1.590   6.449 -0.2879 -0.2129 -0.0894
   43MOL   C29116335   1.908   1.522   6.538  0.3119 -0.5494 -0.0428
   43MOL   C29216336   1.929   1.373   6.518 -0.5330  0.5387  0.1739
   43MOL   C29316337   2.165   1.116   6.526 -0.4785  0.1381 -0.1485
   43MOL   H29416338   2.228   1.248   6.380  0.3224  0.9926  2.8024
   43MOL   H29516339   2.124   1.375   6.579  2.6005  1.2423 -1.1029
   43MOL   H29616340   2.200   1.501   6.378  0.3365  1.4071  0.7022
   43MOL   H29716341   2.054   1.460   6.295 -1.5165  0.2886  0.5931
   43MOL   H29816342   2.068   1.665   6.504 -0.7510  1.1636 -1.4284
   43MOL   H29916343   1.954   1.635   6.367 -1.8781 -0.1218  1.0371
   43MOL   H30016344   1.803   1.543   6.515  0.2540 -1.1908 -0.3805
   43MOL   H30116345   1.920   1.548   6.643  1.4660 -1.3540  0.0281
   43MOL   H30216346   1.865   1.332   6.440 -1.9982  0.8563  1.1806
   43MOL   H30316347   1.907   1.319   6.610  0.2449  2.6026  1.6098
   43MOL   H30416348   2.200   1.035   6.463  0.3060  0.4150 -0.0718
   43MOL   H30516349   2.068   1.073   6.551 -0.0347 -0.2931  0.8546
   43MOL   C30616350   2.269   1.134   6.640 -0.2263 -0.2173 -0.3423
   43MOL   C30716351   2.269   1.029   6.750  0.8147 -0.2095 -0.3786
   43MOL   C30816352   2.154   1.038   6.856 -0.7442 -0.0359  0.0951
   43MOL   C30916353   2.147   0.906   6.930 -0.0320 -0.7163  0.1510
   43MOL   C31016354   2.211   0.805   6.830  0.3233  0.5620 -0.1736
   43MOL   C31116355   2.260   0.885   6.710 -0.4603  0.2620 -0.0131
   43MOL   C31216356   2.416   1.157   6.587  0.8423 -0.1711 -0.2093
   43MOL   H31316357   2.246   1.232   6.682 -0.4001 -0.2893 -0.2681
   43MOL   H31416358   2.359   1.046   6.809 -0.2187  0.8114  0.9340
   43MOL   H31516359   2.063   1.059   6.799 -1.3069 -1.1406  0.5590
   43MOL   H31616360   2.176   1.116   6.929 -0.9373 -0.2820  0.4217
   43MOL   H31716361   2.193   0.917   7.028 -0.9922  0.3801  0.4950
   43MOL   H31816362   2.041   0.889   6.948 -0.4618  1.2673 -0.3429
   43MOL   H31916363   2.138   0.733   6.791 -0.4896  0.5511  1.3197
   43MOL   H32016364   2.292   0.759   6.886 -0.1105 -0.5923 -0.4751
   43MOL   H32116365   2.361   0.847   6.691 -0.0007  0.8022  1.3108
   43MOL   H32216366   2.209   0.861   6.616 -0.9902  0.8436  0.1286
   43MOL   H32316367   2.426   1.155   6.479  2.8877  1.0783 -0.0871
   43MOL   H32416368   2.466   1.065   6.620 -0.3411 -0.9908 -0.6909
   43MOL   C32516369   2.489   1.274   6.659  0.4895 -0.1087 -0.5514
   43MOL   C32616370   2.443   1.401   6.578 -0.5917 -0.0928 -0.0518
   43MOL   C32716371   2.507   1.428   6.437 -1.1779 -0.1130  0.0171
   43MOL   C32816372   2.477   1.574   6.409  0.0205 -0.3305 -0.6086
   43MOL   C32916373   2.429   1.642   6.542  0.5016  0.5184  0.1174
   43MOL   C33016374   2.441   1.537   6.659 -0.1847 -0.0913 -0.4605
   43MOL   C33116375   2.638   1.250   6.682 -0.4791 -0.3282 -0.2855
   43MOL   H33216376   2.459   1.284   6.763  1.7224  2.1819 -0.3676
   43MOL   H33316377   2.341   1.375   6.552 -0.5376  0.8658 -1.3062
   43MOL   H33416378   2.475   1.361   6.357  2.5110 -1.3230 -0.5334
   43MOL   H33516379   2.616   1.424   6.432 -1.1469 -0.1593  0.6604
   43MOL   H33616380   2.404   1.594   6.331  0.7549  1.2090 -0.9082
   43MOL   H33716381   2.572   1.614   6.372  0.1787  0.0303  0.1748
   43MOL   H33816382   2.326   1.660   6.512  0.1846 -1.8545 -0.3533
   43MOL   H33916383   2.480   1.737   6.561 -0.9582  1.5183 -0.9083
   43MOL   H34016384   2.362   1.547   6.734  0.9917 -1.6986  1.0296
   43MOL   H34116385   2.537   1.545   6.709 -2.3214  1.3687  3.6272
   43MOL   H34216386   2.696   1.282   6.595  0.6741 -0.4266  0.4235
   43MOL   H34316387   2.660   1.144   6.688  2.4544  0.2732  0.5820
   43MOL   C34416388   2.709   1.314   6.807 -0.8626 -0.5750 -0.7639
   43MOL   C34516389   2.870   1.316   6.786  0.2706 -0.7329  0.4569
   43MOL   C34616390   2.933   1.181   6.776 -0.7229  0.0738  1.0266
   43MOL   C34716391   3.077   1.195   6.801 -0.2561  0.3268  0.1622
   43MOL   C34816392   3.093   1.328   6.881  0.0914  0.3792 -0.0788
   43MOL   C34916393   2.955   1.387   6.895 -0.4408  0.5138 -0.6365
   43MOL   C35016394   2.670   1.264   6.945  0.6631  0.1107 -0.6491
   43MOL   H35116395   2.692   1.421   6.798  1.2154  0.1385  2.7631
   43MOL   H35216396   2.886   1.372   6.693  1.5934  0.4559  1.3888
   43MOL   H35316397   2.915   1.140   6.677  4.5592  0.1031 -0.0618
   43MOL   H35416398   2.891   1.124   6.858  0.8843 -1.8048  0.5858
   43MOL   H35516399   3.125   1.112   6.854  0.1405  0.5369  0.1375
   43MOL   H35616400   3.132   1.206   6.708  1.9343 -1.6476  1.1534
   43MOL   H35716401   3.164   1.393   6.831 -0.3460 -1.5974 -3.3733
   43MOL   H35816402   3.126   1.313   6.984  0.3402  1.9047  0.0745
   43MOL   H35916403   2.925   1.366   6.998 -1.8670  1.5017 -0.8512
   43MOL   H36016404   2.960   1.496   6.892 -3.5746  0.7094 -0.3148
   43MOL   H36116405   2.757   1.238   7.005  0.2296 -1.0977 -0.5367
   43MOL   H36216406   2.620   1.170   6.919 -2.7846  2.2844 -2.2557
   43MOL   C36316407   2.583   1.364   7.019  0.1475  0.2277 -0.0215
   43MOL   C36416408   2.508   1.292   7.139  0.2901 -0.1196 -0.2740
   43MOL   C36516409   2.438   1.161   7.105  0.0956 -0.3632  0.3830
   43MOL   C36616410   2.319   1.142   7.202 -0.3035  0.1896 -1.0054
   43MOL   C36716411   2.307   1.275   7.278 -0.2871  0.3281  0.0528
   43MOL   C36816412   2.398   1.375   7.208  0.0465  0.8279  0.2979
   43MOL   C36916413   2.656   1.501   7.053 -0.1389 -0.2805 -0.1587
   43MOL   H37016414   2.501   1.385   6.950  0.4262 -3.9639 -1.7230
   43MOL   H37116415   2.574   1.267   7.223  0.4579 -0.6757 -0.5677
   43MOL   H37216416   2.380   1.158   7.013 -2.7767 -0.0857  2.1094
   43MOL   H37316417   2.506   1.077   7.098 -1.3147 -1.3448 -1.7532
   43MOL   H37416418   2.224   1.109   7.160  0.1455 -0.2452 -1.6899
   43MOL   H37516419   2.356   1.065   7.271 -1.1920  3.3550  3.2132
   43MOL   H37616420   2.206   1.310   7.294 -0.2255  0.9357 -0.8735
   43MOL   H37716421   2.350   1.244   7.374  0.7058 -1.9582 -1.0778
   43MOL   H37816422   2.440   1.450   7.276  1.0724 -0.3106  0.9316
   43MOL   H37916423   2.344   1.425   7.127 -1.3911  2.8424  2.4276
   43MOL   H38016424   2.757   1.497   7.094 -1.2194 -2.7660  2.4415
   43MOL   H38116425   2.584   1.559   7.111  0.2177 -0.1834  0.1981
   43MOL   H38216426   2.670   1.558   6.962 -1.7310  0.6407  0.1454
   44MOL     C116427   0.845   2.464   1.726  0.0938  0.1206 -0.0772
   44MOL     C216428   0.767   2.598   1.739  0.1138  0.2771 -0.1749
   44MOL     C316429   0.851   2.716   1.777  0.1152  0.0122  0.1054
   44MOL     C416430   0.761   2.820   1.838  0.8120  0.0151  0.0318
   44MOL     C516431   0.640   2.737   1.880  0.5925  0.4099  0.3344
   44MOL     C616432   0.663   2.593   1.849 -0.5840 -0.1388  0.1248
   44MOL     C716433   0.964   2.478   1.632  0.2340  0.7052 -0.0535
   44MOL     H816434   0.890   2.441   1.823  1.4967 -2.8359 -1.3366
   44MOL     H916435   0.719   2.616   1.642 -1.1671  1.1680  0.6027
   44MOL    H1016436   0.928   2.681   1.846 -1.0476 -0.2070  1.3157
   44MOL    H1116437   0.902   2.751   1.687  0.4645 -2.3843 -0.6570
   44MOL    H1216438   0.812   2.843   1.931  0.8890  1.1068 -0.2719
   44MOL    H1316439   0.761   2.909   1.774 -3.6791  1.4626  1.8776
   44MOL    H1416440   0.605   2.753   1.982 -1.5456 -1.5258 -0.0367
   44MOL    H1516441   0.561   2.773   1.816  0.6377  0.9969  0.6095
   44MOL    H1616442   0.565   2.556   1.816 -2.0296  3.6249 -0.0634
   44MOL    H1716443   0.689   2.533   1.937  2.1368 -0.9282 -1.1689
   44MOL    H1816444   0.927   2.491   1.530  0.7613  0.5860 -0.2649
   44MOL    H1916445   1.016   2.573   1.644  0.1498  0.7072  0.3001
   44MOL    H2016446   0.774   2.384   1.706  1.7262 -1.3207 -0.2869
   44MOL    C2116447   1.064   2.360   1.633 -0.5210  0.4493  0.2283
   44MOL    C2216448   1.023   2.244   1.544 -0.4043 -0.4053 -0.2509
   44MOL    C2316449   0.894   2.173   1.579  0.5831 -0.0059 -0.6965
   44MOL    C2416450   0.888   2.043   1.497  0.0636  0.4949 -0.1033
   44MOL    C2516451   1.044   2.012   1.484 -0.0136 -0.1029  0.6584
   44MOL    C2616452   1.122   2.131   1.540  0.6026  0.0744  0.3571
   44MOL    C2716453   1.207   2.412   1.605 -0.9392  0.3815 -0.3381
   44MOL    H2816454   1.067   2.312   1.731 -0.0490 -0.9399 -0.4467
   44MOL    H2916455   1.018   2.279   1.441  1.2831 -0.3483 -0.3260
   44MOL    H3016456   0.805   2.227   1.546 -0.0072  0.4799  1.5291
   44MOL    H3116457   0.871   2.154   1.684 -2.7577 -0.1732 -1.3863
   44MOL    H3216458   0.841   1.960   1.550  0.3830 -0.1885 -0.8648
   44MOL    H3316459   0.856   2.048   1.392  1.8774  1.4074 -0.6324
   44MOL    H3416460   1.056   1.985   1.379  1.5582  1.1333  0.5050
   44MOL    H3516461   1.084   1.922   1.530 -1.4662 -0.7946  0.6005
   44MOL    H3616462   1.206   2.149   1.473  3.3414 -1.3699  3.2857
   44MOL    H3716463   1.156   2.103   1.639 -1.6099  0.0046  1.1195
   44MOL    H3816464   1.250   2.360   1.519  1.1027 -2.2908  2.1776
   44MOL    H3916465   1.214   2.516   1.573 -1.6862  0.5826  0.1586
   44MOL    C4016466   1.310   2.398   1.725  0.6788  0.3395  0.2358
   44MOL    C4116467   1.457   2.362   1.680  0.2010  0.1384  0.1827
   44MOL    C4216468   1.521   2.451   1.569  0.2021  0.1367  0.8047
   44MOL    C4316469   1.622   2.363   1.493 -0.2608 -0.2915  0.2838
   44MOL    C4416470   1.627   2.234   1.579  0.4291  0.5334 -0.2510
   44MOL    C4516471   1.487   2.215   1.647 -1.4710  0.2800  0.3275
   44MOL    C4616472   1.300   2.530   1.807  0.9151  0.4013  0.0291
   44MOL    H4716473   1.281   2.311   1.785 -0.6261 -0.0239 -0.8884
   44MOL    H4816474   1.509   2.380   1.774  1.2456  1.2119 -0.5823
   44MOL    H4916475   1.573   2.540   1.604  3.3016 -1.6317  0.9114
   44MOL    H5016476   1.452   2.487   1.493  0.7229 -1.7321 -0.5919
   44MOL    H5116477   1.720   2.408   1.477 -0.1741 -1.1479 -1.6843
   44MOL    H5216478   1.574   2.334   1.400 -1.7559  0.9730  0.6486
   44MOL    H5316479   1.650   2.138   1.534 -0.2565 -0.5698  1.6863
   44MOL    H5416480   1.700   2.241   1.659  0.0695 -0.7128  0.1929
   44MOL    H5516481   1.423   2.169   1.571 -1.4708  1.8014 -0.6196
   44MOL    H5616482   1.490   2.157   1.739  0.4353  0.4257  0.3764
   44MOL    H5716483   1.360   2.603   1.751  1.6055  0.2090  0.5091
   44MOL    H5816484   1.197   2.565   1.797  0.2512 -0.6437  2.7822
   44MOL    C5916485   1.326   2.534   1.965  0.4002 -0.4666 -0.0099
   44MOL    C6016486   1.370   2.683   2.014  0.0725  0.7711  0.1272
   44MOL    C6116487   1.300   2.809   1.952  0.0618 -0.0144  0.0382
   44MOL    C6216488   1.399   2.917   1.968 -0.1041  0.2225 -0.3674
   44MOL    C6316489   1.539   2.856   1.977 -0.3112  0.1005  0.3004
   44MOL    C6416490   1.517   2.697   1.979 -0.3720  1.0928 -0.3120
   44MOL    C6516491   1.203   2.477   2.044  0.3121 -0.3127  0.0197
   44MOL    H6616492   1.410   2.464   1.969  2.6165  2.1722  1.6474
   44MOL    H6716493   1.359   2.687   2.122 -0.5257 -0.7496  0.1411
   44MOL    H6816494   1.202   2.822   1.997 -1.9452 -0.3025 -4.0582
   44MOL    H6916495   1.275   2.787   1.848 -1.3486 -1.8926  0.7332
   44MOL    H7016496   1.393   2.971   2.063 -0.8414  1.2282 -0.9750
   44MOL    H7116497   1.395   2.995   1.893  0.7402  0.4047 -0.2229
   44MOL    H7216498   1.592   2.897   2.063  1.9547 -2.0714 -0.0187
   44MOL    H7316499   1.603   2.878   1.891  2.0600  1.1236  2.2516
   44MOL    H7416500   1.532   2.657   1.879 -1.0954  1.7882 -0.7128
   44MOL    H7516501   1.592   2.649   2.041  0.5367  0.1744 -2.0701
   44MOL    H7616502   1.156   2.400   1.984  0.3852 -0.2088 -0.1726
   44MOL    H7716503   1.132   2.559   2.037  0.8113  0.1700  0.4772
   44MOL    C7816504   1.213   2.459   2.201 -0.8082  0.0362 -0.7784
   44MOL    C7916505   1.070   2.420   2.258 -0.0057 -0.2128  0.5394
   44MOL    C8016506   0.983   2.320   2.180 -0.1617  0.7765  0.0980
   44MOL    C8116507   0.836   2.367   2.196  0.2248  0.2242  0.1564
   44MOL    C8216508   0.843   2.514   2.222 -0.4230 -0.1984  0.4215
   44MOL    C8316509   0.986   2.552   2.261 -0.7043  0.2753 -0.4551
   44MOL    C8416510   1.318   2.352   2.224  0.1117  0.0819  0.2595
   44MOL    H8516511   1.242   2.556   2.242  0.2301 -1.5026  2.2686
   44MOL    H8616512   1.062   2.377   2.358  0.4132  1.7604  1.4398
   44MOL    H8716513   1.010   2.219   2.213 -0.1667  0.2468 -1.5147
   44MOL    H8816514   1.004   2.310   2.074 -2.3225  0.1457 -0.2811
   44MOL    H8916515   0.806   2.317   2.287 -0.8691 -0.1798 -0.4227
   44MOL    H9016516   0.780   2.346   2.105  1.4748 -1.8990 -0.1632
   44MOL    H9116517   0.811   2.570   2.135  0.0396  1.6534  1.4209
   44MOL    H9216518   0.767   2.537   2.297 -1.2753  2.5085 -1.2154
   44MOL    H9316519   1.030   2.626   2.195 -0.4653  0.4585 -0.0912
   44MOL    H9416520   0.985   2.591   2.363  3.1754  0.4582 -0.4253
   44MOL    H9516521   1.414   2.384   2.183  0.1664  0.4605  0.6807
   44MOL    H9616522   1.281   2.269   2.164  0.1867  0.2182  0.0241
   44MOL    C9716523   1.357   2.288   2.370 -0.4460 -0.1482  0.6902
   44MOL    C9816524   1.397   2.385   2.485  0.3583 -0.3688 -0.6817
   44MOL    C9916525   1.351   2.530   2.484  0.1258 -0.3141 -0.4907
   44MOL   C10016526   1.366   2.578   2.628  0.0228 -0.5408 -0.5288
   44MOL   C10116527   1.342   2.458   2.711 -1.0403  0.0738  0.1888
   44MOL   C10216528   1.347   2.333   2.622  0.3040  0.0234 -0.6642
   44MOL   C10316529   1.473   2.178   2.336 -0.6443  0.4012  0.2954
   44MOL   H10416530   1.264   2.240   2.398 -0.0910 -1.8250 -0.8915
   44MOL   H10516531   1.505   2.399   2.484  0.3210  0.1499  1.4421
   44MOL   H10616532   1.404   2.593   2.413  0.7003  0.6731  0.7919
   44MOL   H10716533   1.245   2.532   2.458  0.1350  2.2105 -0.4223
   44MOL   H10816534   1.283   2.641   2.660 -1.4692 -2.1001 -1.2948
   44MOL   H10916535   1.466   2.620   2.644 -0.0916  0.7435 -3.0409
   44MOL   H11016536   1.245   2.461   2.760 -1.7329 -1.1796 -1.0735
   44MOL   H11116537   1.411   2.447   2.795 -2.2251  1.6141  1.3928
   44MOL   H11216538   1.408   2.255   2.667 -0.0661 -0.2703 -0.6735
   44MOL   H11316539   1.243   2.303   2.616  0.1653  0.1178  0.9556
   44MOL   H11416540   1.446   2.119   2.248 -0.1917 -0.1450  0.5141
   44MOL   H11516541   1.557   2.237   2.299 -0.8851  0.9606  0.6433
   44MOL   C11616542   1.527   2.078   2.448 -0.3588  0.2442  0.4495
   44MOL   C11716543   1.413   1.992   2.514 -0.1954  0.2763  0.4672
   44MOL   C11816544   1.356   1.889   2.415  0.7377  0.2653 -0.1060
   44MOL   C11916545   1.282   1.790   2.502 -0.6678 -0.4496  0.2071
   44MOL   C12016546   1.348   1.792   2.638 -0.0309 -0.0974 -0.1404
   44MOL   C12116547   1.448   1.908   2.635 -0.3230 -1.0191 -0.5365
   44MOL   C12216548   1.656   1.999   2.397  0.3385  0.3252 -0.4260
   44MOL   H12316549   1.558   2.133   2.538 -0.5533  0.9232  0.1019
   44MOL   H12416550   1.338   2.067   2.539 -1.2977 -1.0134  1.0771
   44MOL   H12516551   1.294   1.936   2.339  0.9629  1.7206  0.5826
   44MOL   H12616552   1.439   1.841   2.363  0.5091 -0.3818  0.1156
   44MOL   H12716553   1.288   1.693   2.453 -1.3311  0.1555 -1.0955
   44MOL   H12816554   1.176   1.816   2.506 -0.2906  0.9911  2.1261
   44MOL   H12916555   1.401   1.703   2.671 -1.0268 -0.1951  1.2573
   44MOL   H13016556   1.275   1.798   2.719  2.4579 -0.8245  2.2248
   44MOL   H13116557   1.441   1.970   2.725 -1.2155  0.8591 -1.8545
   44MOL   H13216558   1.549   1.872   2.616  0.3086  0.1260  0.5311
   44MOL   H13316559   1.625   1.955   2.302  0.9741 -0.0455 -0.4627
   44MOL   H13416560   1.686   1.918   2.464  2.8432 -0.8293 -2.8153
   44MOL   C13516561   1.786   2.088   2.377 -0.6280  0.4854 -0.6531
   44MOL   C13616562   1.902   2.014   2.305  0.1623  0.7437 -0.0446
   44MOL   C13716563   1.893   1.993   2.155  0.5243  0.5842 -0.1570
   44MOL   C13816564   1.960   1.855   2.136  0.2062  0.2380 -0.0335
   44MOL   C13916565   2.031   1.812   2.261 -0.3744 -0.2334 -0.2641
   44MOL   C14016566   1.947   1.880   2.368  0.4172 -0.2428 -0.1271
   44MOL   C14116567   1.828   2.143   2.521  0.3208 -0.2487 -1.1064
   44MOL   H14216568   1.758   2.177   2.321  2.7033  1.2914 -1.1413
   44MOL   H14316569   1.991   2.076   2.315 -0.1055  1.2281 -0.6639
   44MOL   H14416570   1.790   1.997   2.119  0.5038  2.3849  0.0331
   44MOL   H14516571   1.949   2.072   2.106  1.6969 -1.3557 -1.9891
   44MOL   H14616572   2.029   1.860   2.051  0.5884  1.6541  0.3417
   44MOL   H14716573   1.880   1.783   2.120  0.1173  0.1855  0.6725
   44MOL   H14816574   2.133   1.848   2.267  0.2135 -1.6931 -1.2690
   44MOL   H14916575   2.036   1.704   2.272  1.9310  0.0141  1.2922
   44MOL   H15016576   1.858   1.827   2.399  0.2408 -0.3081 -0.7528
   44MOL   H15116577   2.011   1.900   2.455  1.0198 -3.0937  0.1154
   44MOL   H15216578   1.869   2.053   2.568  1.3569  0.6965 -0.1571
   44MOL   H15316579   1.751   2.174   2.592  1.6672 -0.9884  0.7311
   44MOL   C15416580   1.935   2.255   2.515  0.0224 -0.2485 -0.3346
   44MOL   C15516581   1.883   2.385   2.580  0.2496  0.5377  0.4711
   44MOL   C15616582   1.743   2.433   2.527 -0.0759 -0.4485  0.3440
   44MOL   C15716583   1.764   2.581   2.483  0.3581  0.7509  0.2917
   44MOL   C15816584   1.886   2.630   2.558 -0.0010  0.4621 -0.3793
   44MOL   C15916585   1.975   2.510   2.565  0.6165 -0.1038  0.4763
   44MOL   C16016586   2.062   2.197   2.583 -0.5223 -0.4817 -0.5565
   44MOL   H16116587   1.957   2.271   2.410  2.4086  0.7755  0.2694
   44MOL   H16216588   1.875   2.362   2.686  1.6700 -1.4070  0.1896
   44MOL   H16316589   1.698   2.378   2.445 -2.4255  0.6386  0.8587
   44MOL   H16416590   1.671   2.433   2.609  1.1857  0.2187  1.4838
   44MOL   H16516591   1.767   2.609   2.378  0.2344 -1.2074 -0.2517
   44MOL   H16616592   1.683   2.648   2.513  0.0851  0.4811  0.1657
   44MOL   H16716593   1.846   2.650   2.658 -1.0267  0.9838 -0.8841
   44MOL   H16816594   1.929   2.721   2.515  1.3199 -0.7704 -1.7261
   44MOL   H16916595   2.038   2.524   2.653 -0.7220 -1.2333  1.6400
   44MOL   H17016596   2.038   2.492   2.478  1.2336 -0.3879  0.9787
   44MOL   H17116597   2.076   2.096   2.546 -0.3523 -1.1243  1.2025
   44MOL   H17216598   2.039   2.193   2.690  1.1690  0.5877 -0.1366
   44MOL   C17316599   2.201   2.270   2.566 -0.8678  0.4948 -0.4546
   44MOL   C17416600   2.238   2.312   2.420 -0.3218  0.8152  0.1259
   44MOL   C17516601   2.258   2.198   2.316  0.1942 -0.1116  0.4716
   44MOL   C17616602   2.414   2.186   2.296 -0.9220 -0.2591  0.2686
   44MOL   C17716603   2.457   2.331   2.320  0.4335 -0.3282  0.0470
   44MOL   C17816604   2.361   2.410   2.405  0.0241 -0.1568  0.0992
   44MOL   C17916605   2.316   2.187   2.624 -0.7409  0.0961  0.1370
   44MOL   H18016606   2.196   2.364   2.620  0.9529  1.4508 -1.8946
   44MOL   H18116607   2.151   2.366   2.383  0.1424  1.5566  0.0908
   44MOL   H18216608   2.215   2.221   2.219  1.9190 -1.0370 -0.5382
   44MOL   H18316609   2.213   2.105   2.351  1.2339 -0.3722  1.1485
   44MOL   H18416610   2.466   2.125   2.370 -0.5710  3.4439  3.1842
   44MOL   H18516611   2.443   2.166   2.193 -1.7230 -0.9592  0.1690
   44MOL   H18616612   2.476   2.380   2.224 -2.1856 -1.7833 -1.2438
   44MOL   H18716613   2.555   2.337   2.368  1.0040 -0.8287 -1.0282
   44MOL   H18816614   2.397   2.439   2.504  0.3547  1.1840 -0.4023
   44MOL   H18916615   2.329   2.495   2.345 -0.7857  0.0621  0.8269
   44MOL   H19016616   2.321   2.089   2.576  1.6238  1.4204 -2.4761
   44MOL   H19116617   2.412   2.233   2.600 -1.0316  0.6535  0.0243
   44MOL   C19216618   2.315   2.182   2.778  0.1610  0.1766 -0.2775
   44MOL   C19316619   2.357   2.315   2.848  0.6145  0.2567 -0.2428
   44MOL   C19416620   2.499   2.361   2.812  0.5101  0.9317 -0.3311
   44MOL   C19516621   2.531   2.476   2.908 -0.3669 -0.1437 -0.0224
   44MOL   C19616622   2.443   2.457   3.032  0.5488 -0.2753  0.6165
   44MOL   C19716623   2.353   2.336   2.999 -0.2569  0.3850  0.4298
   44MOL   C19816624   2.412   2.074   2.819 -0.2378 -0.4197  0.2278
   44MOL   H19916625   2.223   2.150   2.826  1.3774 -1.0262  1.3469
   44MOL   H20016626   2.291   2.390   2.803  1.5881  0.7379 -0.8847
   44MOL   H20116627   2.510   2.398   2.710  1.7667 -0.2414 -0.6380
   44MOL   H20216628   2.568   2.278   2.828 -1.8995 -0.9135  0.7169
   44MOL   H20316629   2.638   2.469   2.929 -0.3633  1.9224  0.7601
   44MOL   H20416630   2.514   2.574   2.863 -1.3687 -0.1266  0.3764
   44MOL   H20516631   2.371   2.539   3.041 -0.2308 -1.0208  1.3199
   44MOL   H20616632   2.489   2.449   3.131  2.6655  0.6364 -0.2603
   44MOL   H20716633   2.251   2.348   3.034 -0.8434 -2.9195 -0.0584
   44MOL   H20816634   2.386   2.251   3.060  0.3924 -0.8119 -1.5571
   44MOL   H20916635   2.507   2.091   2.767 -0.0382  0.7579  0.9856
   44MOL   H21016636   2.430   2.095   2.924 -2.9344  0.4467  0.5589
   44MOL   C21116637   2.364   1.931   2.803 -0.3659  0.1096  0.9845
   44MOL   C21216638   2.475   1.835   2.755  0.9770  0.9368 -0.2582
   44MOL   C21316639   2.538   1.867   2.620 -0.4296  0.1398 -0.2922
   44MOL   C21416640   2.689   1.840   2.631 -0.0410  0.0960  0.3521
   44MOL   C21516641   2.702   1.764   2.761 -0.3290  0.8245 -0.6874
   44MOL   C21616642   2.596   1.824   2.849 -0.1492 -0.0439 -0.5365
   44MOL   C21716643   2.286   1.878   2.925  0.2533  0.8599 -0.1074
   44MOL   H21816644   2.293   1.933   2.720  0.3746 -0.0360  0.3503
   44MOL   H21916645   2.436   1.735   2.735  2.1482  0.2087  1.0085
   44MOL   H22016646   2.498   1.801   2.543 -1.0371 -0.5200  0.5858
   44MOL   H22116647   2.520   1.972   2.596 -0.5400  0.3236  0.5906
   44MOL   H22216648   2.728   1.778   2.551  1.4002  0.6889  0.5769
   44MOL   H22316649   2.738   1.937   2.640 -1.1762  1.0525 -2.8920
   44MOL   H22416650   2.794   1.785   2.814 -0.9142  2.8303 -0.4130
   44MOL   H22516651   2.698   1.655   2.759 -1.0079  0.8446 -0.7202
   44MOL   H22616652   2.576   1.751   2.928 -2.1087 -1.4072 -2.2300
   44MOL   H22716653   2.637   1.920   2.880 -0.1161 -0.2341  0.0194
   44MOL   H22816654   2.236   1.959   2.978  2.1143  2.0172 -0.0659
   44MOL   H22916655   2.354   1.847   3.004 -0.6038  0.8956  0.6508
   44MOL   C23016656   2.173   1.771   2.892  0.0802 -0.6812 -0.4244
   44MOL   C23116657   2.038   1.834   2.824  0.0835 -0.9031 -0.0348
   44MOL   C23216658   1.921   1.735   2.790 -0.0408 -0.0907  0.0604
   44MOL   C23316659   1.797   1.828   2.781  0.2708  0.3338 -0.5133
   44MOL   C23416660   1.815   1.940   2.885 -0.3026 -0.3782 -0.5145
   44MOL   C23516661   1.970   1.939   2.919  0.2248  0.1850 -0.1299
   44MOL   C23616662   2.146   1.687   3.021  0.2967 -0.0900 -0.6091
   44MOL   H23716663   2.223   1.704   2.822  1.6295 -1.0864  1.0251
   44MOL   H23816664   2.061   1.881   2.729 -1.8204  0.7120  0.2764
   44MOL   H23916665   1.926   1.651   2.721 -3.1677  0.4001 -0.8406
   44MOL   H24016666   1.906   1.668   2.875 -2.9534 -2.1181 -1.9475
   44MOL   H24116667   1.783   1.884   2.688 -1.4682 -0.1000 -0.5433
   44MOL   H24216668   1.702   1.775   2.780  0.3580  0.0988  1.9663
   44MOL   H24316669   1.768   1.909   2.979 -1.8878  2.2968 -0.3901
   44MOL   H24416670   1.776   2.036   2.852 -2.0218 -1.6147 -2.1907
   44MOL   H24516671   1.989   1.933   3.026 -1.8432 -0.0436  0.2473
   44MOL   H24616672   1.999   2.041   2.891  1.4612  0.2026  1.1783
   44MOL   H24716673   2.041   1.658   3.013 -0.0647  0.8867  0.4796
   44MOL   H24816674   2.156   1.741   3.115 -2.1139  1.3139 -1.1041
   44MOL   C24916675   2.230   1.553   3.026 -0.2512 -0.3634 -0.0206
   44MOL   C25016676   2.152   1.433   3.071  0.0388  0.5037  0.1148
   44MOL   C25116677   2.056   1.372   2.966 -0.1701 -0.2513  0.0182
   44MOL   C25216678   1.921   1.344   3.023  0.1009 -0.7398 -0.1211
   44MOL   C25316679   1.910   1.426   3.148  0.1330  0.9404 -1.3993
   44MOL   C25416680   2.054   1.447   3.195 -0.3406 -0.2369 -0.1983
   44MOL   C25516681   2.363   1.564   3.119  0.7776  0.0597  0.2821
   44MOL   H25616682   2.268   1.533   2.926 -0.4237  3.6990 -1.0234
   44MOL   H25716683   2.218   1.347   3.080 -0.4848  0.0055 -0.6720
   44MOL   H25816684   2.090   1.276   2.926 -1.3776 -0.8310  0.3297
   44MOL   H25916685   2.052   1.433   2.876 -0.5185  1.1358  0.9619
   44MOL   H26016686   1.923   1.239   3.053  1.6202 -0.8395 -0.5064
   44MOL   H26116687   1.834   1.354   2.958  0.2146 -0.3195 -0.2080
   44MOL   H26216688   1.855   1.371   3.224 -0.9821  1.6221 -1.7078
   44MOL   H26316689   1.860   1.521   3.132 -1.0119  0.7307  0.8080
   44MOL   H26416690   2.077   1.361   3.259  0.7736 -0.7033 -1.2141
   44MOL   H26516691   2.056   1.548   3.235  1.2420 -0.8155  1.2412
   44MOL   H26616692   2.414   1.657   3.095  1.9149 -0.0188  2.2737
   44MOL   H26716693   2.334   1.581   3.223 -0.0654 -1.3447  0.3002
   44MOL   C26816694   2.468   1.452   3.099 -0.5516 -0.0088  0.8331
   44MOL   C26916695   2.575   1.444   3.218  0.0002 -0.2961  0.8202
   44MOL   C27016696   2.535   1.380   3.347 -0.0765 -0.2626 -0.2500
   44MOL   C27116697   2.640   1.413   3.452  0.3377  0.8953 -0.0212
   44MOL   C27216698   2.699   1.553   3.403  0.8219 -0.3006 -0.7563
   44MOL   C27316699   2.646   1.573   3.260  0.1655 -0.0985  0.4346
   44MOL   C27416700   2.545   1.472   2.964  0.5369  0.4931 -0.5886
   44MOL   H27516701   2.434   1.349   3.091  1.7249 -0.8166  1.2365
   44MOL   H27616702   2.655   1.381   3.180 -0.8764 -0.8060 -0.2418
   44MOL   H27716703   2.440   1.428   3.375  0.2116 -1.3623  2.8964
   44MOL   H27816704   2.519   1.273   3.335  0.4805 -0.3504 -0.2021
   44MOL   H27916705   2.596   1.423   3.551  0.2183 -0.7844  0.0972
   44MOL   H28016706   2.720   1.340   3.459 -1.2838 -0.8335  0.9514
   44MOL   H28116707   2.807   1.564   3.417  1.1856 -2.2795 -1.9148
   44MOL   H28216708   2.671   1.640   3.463  0.2799 -1.5692  0.8644
   44MOL   H28316709   2.717   1.604   3.183 -0.0823  1.1685  0.6940
   44MOL   H28416710   2.572   1.653   3.259  0.0246 -0.2322  0.3215
   44MOL   H28516711   2.613   1.555   2.984 -0.4717  0.9559  0.9503
   44MOL   H28616712   2.477   1.518   2.891  2.1287  2.0251 -1.1339
   44MOL   C28716713   2.599   1.358   2.878 -0.4803  0.3308  0.7321
   44MOL   C28816714   2.529   1.325   2.745 -0.2953 -0.0179  0.5512
   44MOL   C28916715   2.384   1.290   2.770 -0.2505  0.3456  0.6084
   44MOL   C29016716   2.306   1.359   2.661 -1.2107  0.0183 -0.5702
   44MOL   C29116717   2.414   1.387   2.558 -0.3601  0.5066  0.6306
   44MOL   C29216718   2.537   1.432   2.628  0.5319 -0.2500 -0.2806
   44MOL   C29316719   2.748   1.379   2.862 -0.1214  0.3702  0.0644
   44MOL   H29416720   2.593   1.267   2.938  0.0242 -0.5530 -0.5162
   44MOL   H29516721   2.583   1.236   2.710 -1.2682  0.0644 -1.2230
   44MOL   H29616722   2.366   1.183   2.764  0.0329  0.2830  0.8642
   44MOL   H29716723   2.353   1.328   2.867  0.3500 -0.6332  1.1910
   44MOL   H29816724   2.219   1.301   2.632 -1.5414  0.2506 -0.0643
   44MOL   H29916725   2.260   1.444   2.713 -1.4198 -0.3829 -0.0996
   44MOL   H30016726   2.384   1.465   2.487 -1.8663 -0.7190 -0.0999
   44MOL   H30116727   2.422   1.292   2.505  3.4094  0.2465  1.5141
   44MOL   H30216728   2.528   1.537   2.653 -1.6707 -0.9455  2.1033
   44MOL   H30316729   2.616   1.421   2.554 -0.0500  1.1610 -1.1220
   44MOL   H30416730   2.781   1.427   2.954 -0.7937  2.2027 -0.6223
   44MOL   H30516731   2.770   1.449   2.781  1.6801  1.0583  1.1257
   44MOL   C30616732   2.844   1.258   2.836 -0.5140 -0.5671 -0.0662
   44MOL   C30716733   2.956   1.290   2.730 -0.5886 -0.9122  0.3352
   44MOL   C30816734   3.042   1.169   2.685  0.2340 -0.0864  0.7657
   44MOL   C30916735   3.097   1.198   2.543  0.4689  0.4966 -0.0041
   44MOL   C31016736   3.011   1.312   2.482  0.3742 -0.4684 -0.2409
   44MOL   C31116737   2.908   1.340   2.598  0.0678 -0.5649 -0.5020
   44MOL   C31216738   2.911   1.201   2.961 -0.0825  0.5540 -0.9440
   44MOL   H31316739   2.786   1.172   2.801 -1.4368  0.6489 -1.5663
   44MOL   H31416740   3.021   1.360   2.783 -3.1814  1.8359 -0.0549
   44MOL   H31516741   2.982   1.078   2.691  1.2044 -0.7690  0.3261
   44MOL   H31616742   3.129   1.132   2.739  0.9394 -0.2464 -0.4610
   44MOL   H31716743   3.204   1.218   2.539  0.3494  2.0876  3.1856
   44MOL   H31816744   3.083   1.110   2.479  1.4871 -0.2566  0.7857
   44MOL   H31916745   2.963   1.291   2.387  0.1263 -0.1052 -0.1937
   44MOL   H32016746   3.066   1.405   2.466 -0.1144 -0.4212 -1.6601
   44MOL   H32116747   2.894   1.448   2.601  0.0230 -0.5592 -0.9047
   44MOL   H32216748   2.815   1.290   2.575 -0.9222  1.1605 -0.3456
   44MOL   H32316749   2.978   1.280   2.993  2.3101 -2.0151  0.6108
   44MOL   H32416750   2.982   1.123   2.932 -0.2261 -0.0544  0.2922
   44MOL   C32516751   2.825   1.140   3.075 -0.5592 -0.6833 -0.2050
   44MOL   C32616752   2.903   1.155   3.208 -0.3251 -0.1561  0.8643
   44MOL   C32716753   2.850   1.100   3.341 -0.1651  0.9531 -0.5621
   44MOL   C32816754   2.953   1.145   3.440 -0.3469  1.0387 -0.7102
   44MOL   C32916755   2.996   1.282   3.394 -0.1013 -0.3574  0.2708
   44MOL   C33016756   2.963   1.286   3.248  0.0247  0.6206 -0.5759
   44MOL   C33116757   2.790   0.987   3.053 -0.2382  0.4580  0.1683
   44MOL   H33216758   2.743   1.208   3.096  1.4234  1.4441  0.8912
   44MOL   H33316759   2.978   1.078   3.192 -0.1988  0.3701 -1.1336
   44MOL   H33416760   2.834   0.992   3.348  0.7497  0.8225 -0.3345
   44MOL   H33516761   2.755   1.146   3.368 -1.2275 -2.7111  2.3999
   44MOL   H33616762   3.037   1.078   3.420 -3.6221 -3.0482 -1.3612
   44MOL   H33716763   2.924   1.144   3.545  0.3040 -1.6607 -0.5168
   44MOL   H33816764   3.100   1.289   3.423  0.1705 -1.4735 -0.3951
   44MOL   H33916765   2.941   1.358   3.450 -2.2680 -1.7082  0.0482
   44MOL   H34016766   3.052   1.297   3.185  1.1521  0.6055  0.9813
   44MOL   H34116767   2.891   1.365   3.228 -1.6988 -0.6926  0.3055
   44MOL   H34216768   2.772   0.930   3.144 -0.3080  1.4073  0.7607
   44MOL   H34316769   2.877   0.940   3.007 -0.5572 -0.5767  0.6090
   44MOL   C34416770   2.667   0.961   2.968  0.4023 -0.3896  0.5131
   44MOL   C34516771   2.536   0.933   3.056 -0.1921 -0.3771 -0.4025
   44MOL   C34616772   2.405   0.933   2.973 -0.6392 -0.2198  0.8783
   44MOL   C34716773   2.304   1.026   3.047 -0.4011 -0.4537  0.1034
   44MOL   C34816774   2.363   1.037   3.184  0.0455  0.4933 -0.4362
   44MOL   C34916775   2.513   1.041   3.162  0.5717 -0.1016 -1.1893
   44MOL   C35016776   2.693   0.837   2.875  0.3129  0.3436  0.5133
   44MOL   H35116777   2.653   1.048   2.905 -0.3469  0.1764  1.4456
   44MOL   H35216778   2.557   0.838   3.105  0.7772 -1.1265 -2.2295
   44MOL   H35316779   2.365   0.833   2.989 -1.7489  0.1432  0.4013
   44MOL   H35416780   2.425   0.954   2.868 -2.3562  2.9751  1.1307
   44MOL   H35516781   2.294   1.126   3.004  0.0491  0.7063  2.6177
   44MOL   H35616782   2.200   0.994   3.041 -1.1668  1.9485 -0.0665
   44MOL   H35716783   2.326   0.956   3.246 -3.1678  0.0625 -2.8296
   44MOL   H35816784   2.336   1.130   3.236  1.6192  0.3350  0.7233
   44MOL   H35916785   2.533   1.137   3.115 -1.2377  0.1300 -1.5198
   44MOL   H36016786   2.570   1.020   3.252 -0.9668 -2.7344 -0.7561
   44MOL   H36116787   2.783   0.850   2.815 -0.3446  0.4731 -0.4439
   44MOL   H36216788   2.608   0.831   2.807  0.2069  2.1848  0.4536
   44MOL   C36316789   2.732   0.697   2.943  0.4674 -0.3407 -0.6476
   44MOL   C36416790   2.637   0.581   2.899  0.5058 -0.0189  0.0662
   44MOL   C36516791   2.489   0.598   2.913  0.1140 -0.3336 -1.0298
   44MOL   C36616792   2.431   0.456   2.906  0.0452  0.1793  0.6487
   44MOL   C36716793   2.533   0.377   2.987 -0.4524  0.4101  0.1958
   44MOL   C36816794   2.670   0.444   2.966 -0.0960  0.8903  0.7324
   44MOL   C36916795   2.878   0.662   2.923 -0.0729  0.0358 -0.8026
   44MOL   H37016796   2.727   0.715   3.051  0.9906  2.8577 -1.1016
   44MOL   H37116797   2.646   0.565   2.792  0.7349 -1.7543  0.3275
   44MOL   H37216798   2.466   0.644   3.010  0.0991  0.9956 -1.6547
   44MOL   H37316799   2.447   0.678   2.851  0.7589  0.0172 -1.0139
   44MOL   H37416800   2.332   0.443   2.949 -0.9475 -0.3065 -1.7341
   44MOL   H37516801   2.417   0.439   2.800 -2.5372  1.7046  0.7003
   44MOL   H37616802   2.508   0.391   3.092  0.4198 -0.5117  0.5363
   44MOL   H37716803   2.525   0.273   2.955 -0.4511  0.5320 -0.2083
   44MOL   H37816804   2.733   0.386   2.898  0.0995  3.8614 -1.7505
   44MOL   H37916805   2.724   0.460   3.059  0.4220  1.6088  0.3120
   44MOL   H38016806   2.917   0.579   2.982 -0.3970  0.5528  0.1603
   44MOL   H38116807   2.952   0.738   2.949  0.4025 -0.8245  0.4312
   44MOL   H38216808   2.881   0.618   2.824 -0.2227 -0.6682 -0.4986
   45MOL     C116809   7.409   5.946   4.200 -0.4381 -0.3796 -0.5506
   45MOL     C216810   7.330   6.059   4.132 -0.6948  0.6916  0.3205
   45MOL     C316811   7.403   6.200   4.148 -0.1623  0.0362  0.5903
   45MOL     C416812   7.292   6.301   4.164 -0.0493 -0.2497 -0.5380
   45MOL     C516813   7.153   6.235   4.150  0.7904  0.0074 -0.1872
   45MOL     C616814   7.188   6.086   4.184  0.2180  0.1518 -0.1954
   45MOL     C716815   7.364   5.803   4.177  0.0519  0.3361  0.2102
   45MOL     H816816   7.514   5.952   4.170  0.0768  0.1585  1.2972
   45MOL     H916817   7.331   6.045   4.023 -1.1755 -0.2133  0.4244
   45MOL    H1016818   7.462   6.202   4.240 -1.5882 -1.3003  1.5562
   45MOL    H1116819   7.478   6.224   4.072  0.0360  0.3062  0.8720
   45MOL    H1216820   7.309   6.343   4.263  0.6447  2.4662 -1.7688
   45MOL    H1316821   7.301   6.387   4.098  2.5323  0.2923  0.4665
   45MOL    H1416822   7.081   6.273   4.221  0.3558 -0.9632 -0.1072
   45MOL    H1516823   7.107   6.233   4.051 -1.5032 -1.1006  0.8837
   45MOL    H1616824   7.117   6.010   4.151 -0.3049  0.6361 -0.2044
   45MOL    H1716825   7.191   6.073   4.292  2.4428  1.6110 -0.0534
   45MOL    H1816826   7.421   5.746   4.251 -1.1691 -0.3364  0.6393
   45MOL    H1916827   7.259   5.793   4.205  0.2734  1.3999  1.4780
   45MOL    H2016828   7.413   5.959   4.308 -0.6049 -0.0496 -0.5824
   45MOL    C2116829   7.391   5.747   4.033 -1.0149 -0.6084 -0.2786
   45MOL    C2216830   7.504   5.637   4.034  0.6046  0.1816 -0.5119
   45MOL    C2316831   7.632   5.699   4.082  0.2123 -0.3183 -0.5277
   45MOL    C2416832   0.056   5.603   4.044  0.0795  0.5463  0.0963
   45MOL    C2516833   7.685   5.509   3.940 -0.1617 -1.0678 -0.1706
   45MOL    C2616834   7.553   5.575   3.898  0.4707 -0.3557 -0.1904
   45MOL    C2716835   7.257   5.697   3.963 -0.0661  0.2568 -0.1959
   45MOL    H2816836   7.429   5.832   3.975  0.9641 -0.8185  0.6493
   45MOL    H2916837   7.477   5.558   4.103 -2.3355  0.4096 -1.3224
   45MOL    H3016838   7.632   5.701   4.191  0.4996  1.7387 -0.5494
   45MOL    H3116839   7.636   5.803   4.048  1.0569  0.8289  2.8345
   45MOL    H3216840   0.139   5.659   3.999 -0.2200  2.3979  1.8135
   45MOL    H3316841   0.106   5.553   4.128 -1.0553 -1.0055 -0.1245
   45MOL    H3416842   7.673   5.414   3.990 -2.3840 -1.3694 -1.2118
   45MOL    H3516843   0.067   5.499   3.859 -0.0954  1.2078 -0.4412
   45MOL    H3616844   7.482   5.499   3.865  0.5408 -0.5713  0.1440
   45MOL    H3716845   7.569   5.651   3.822  1.6453  1.1545  1.5105
   45MOL    H3816846   7.278   5.627   3.882  3.0097 -0.6163  1.2939
   45MOL    H3916847   7.214   5.639   4.045 -2.7164  1.3907 -0.7550
   45MOL    C4016848   7.154   5.805   3.913  0.7774 -0.2120  0.0811
   45MOL    C4116849   7.213   5.881   3.790 -0.2056  0.1033  0.1859
   45MOL    C4216850   7.133   6.003   3.738  0.1814  0.1907  0.0839
   45MOL    C4316851   7.156   5.995   3.583  0.3406  0.2599 -0.1658
   45MOL    C4416852   7.234   5.868   3.551 -0.1532  0.1419 -0.2006
   45MOL    C4516853   7.232   5.783   3.680 -0.7799 -0.2828  0.3045
   45MOL    C4616854   7.021   5.726   3.888  0.3195  0.1455 -0.2161
   45MOL    H4716855   7.147   5.886   3.986  0.1100 -2.0268  2.0913
   45MOL    H4816856   7.309   5.923   3.820 -0.9483  3.3537 -1.7661
   45MOL    H4916857   7.151   6.105   3.772 -0.0365  0.8805 -1.8108
   45MOL    H5016858   7.029   5.994   3.769  0.3633 -0.3611  0.5575
   45MOL    H5116859   7.214   6.079   3.544  1.4766 -0.6759 -0.5318
   45MOL    H5216860   7.060   5.998   3.533 -0.6646  4.2160  1.8332
   45MOL    H5316861   7.189   5.832   3.459  0.2004  0.4175 -0.4830
   45MOL    H5416862   7.337   5.900   3.536  0.4200 -0.4129  2.2641
   45MOL    H5516863   7.149   5.713   3.681 -0.8418 -0.2171  1.7410
   45MOL    H5616864   7.325   5.729   3.696  0.5853  2.0351  0.4080
   45MOL    H5716865   6.965   5.763   3.803  0.0853 -2.1157 -1.0823
   45MOL    H5816866   7.053   5.623   3.875  2.7209  0.9107 -0.6519
   45MOL    C5916867   6.920   5.725   4.009  0.4423 -0.0475  0.2263
   45MOL    C6016868   6.831   5.853   4.011  0.1085  1.0796  0.1572
   45MOL    C6116869   6.729   5.865   4.124 -0.3844  0.5050 -0.3693
   45MOL    C6216870   6.599   5.899   4.054  0.0655 -0.7850  0.2159
   45MOL    C6316871   6.629   5.942   3.908  0.0836 -0.4086  0.3905
   45MOL    C6416872   6.769   5.885   3.877  0.1435 -0.1010  0.0181
   45MOL    C6516873   6.826   5.602   3.996  0.5527  0.0927  0.7159
   45MOL    H6616874   6.979   5.726   4.101  0.2038 -0.2915  0.3817
   45MOL    H6716875   6.900   5.934   4.033 -2.2025  3.3797 -0.7879
   45MOL    H6816876   6.759   5.946   4.190  2.3741 -1.0009  0.2686
   45MOL    H6916877   6.713   5.778   4.188  1.3809  0.7698  0.4631
   45MOL    H7016878   6.540   5.961   4.121  1.5231 -0.0770  0.8801
   45MOL    H7116879   6.551   5.801   4.050  0.6771 -1.0128 -3.3157
   45MOL    H7216880   6.636   6.051   3.912  3.1193 -0.5908  1.3548
   45MOL    H7316881   6.549   5.903   3.846 -0.8875  0.7157  0.8910
   45MOL    H7416882   6.767   5.796   3.815  2.6024 -0.5871  0.5917
   45MOL    H7516883   6.830   5.954   3.819 -0.0108  0.7449  0.8288
   45MOL    H7616884   6.808   5.600   3.888  3.3034 -2.1581  0.2444
   45MOL    H7716885   6.729   5.619   4.042  0.5719  0.1385  0.7387
   45MOL    C7816886   6.881   5.462   4.038  0.0997 -0.5042  0.5645
   45MOL    C7916887   6.922   5.463   4.181 -0.5972  0.4719 -0.6914
   45MOL    C8016888   6.987   5.336   4.236  0.0036 -0.0158 -0.4250
   45MOL    C8116889   6.966   5.341   4.387 -0.5331 -0.3914 -0.0107
   45MOL    C8216890   6.840   5.420   4.417  0.0008  0.7467  0.3437
   45MOL    C8316891   6.812   5.496   4.287  0.2988 -0.1337  0.1126
   45MOL    C8416892   6.777   5.351   4.003  0.7472 -0.1498 -0.1637
   45MOL    H8516893   6.974   5.431   3.991  0.1213  0.5897 -0.1334
   45MOL    H8616894   6.994   5.542   4.200 -0.5491  0.9451 -2.8252
   45MOL    H8716895   7.093   5.333   4.210  0.7601  0.4155  2.4284
   45MOL    H8816896   6.956   5.239   4.197  0.0017 -0.3096  0.3014
   45MOL    H8916897   7.053   5.392   4.429  1.6857 -2.3367 -2.1091
   45MOL    H9016898   6.958   5.246   4.440 -0.7537  0.0307  0.7196
   45MOL    H9116899   6.766   5.348   4.451  0.0742  0.6970  0.3975
   45MOL    H9216900   6.844   5.494   4.497 -0.1526 -0.0310  1.0673
   45MOL    H9316901   6.720   5.445   4.258 -0.4592 -0.1602  2.4571
   45MOL    H9416902   6.804   5.604   4.296  0.5861  0.2128 -3.1289
   45MOL    H9516903   6.679   5.369   4.047 -0.6466 -0.0726 -3.1480
   45MOL    H9616904   6.818   5.260   4.047  0.1417 -0.2559  0.1857
   45MOL    C9716905   6.761   5.327   3.849 -0.1879  0.5547  0.0313
   45MOL    C9816906   6.617   5.279   3.816  0.4171  0.2119  0.0230
   45MOL    C9916907   6.556   5.169   3.913  0.2435  0.0807  0.4918
   45MOL   C10016908   6.409   5.208   3.914  0.0887  0.3647 -0.0151
   45MOL   C10116909   6.410   5.361   3.915  0.5417  0.2509  0.5332
   45MOL   C10216910   6.510   5.391   3.805  0.0265 -0.5018 -0.4613
   45MOL   C10316911   6.875   5.228   3.797  0.1993 -0.3031 -0.3368
   45MOL   H10416912   6.782   5.421   3.798  0.2057  1.1384  1.2748
   45MOL   H10516913   6.627   5.229   3.719 -0.9379 -1.5315  0.7481
   45MOL   H10616914   6.570   5.066   3.879  1.1808 -0.0400  1.2462
   45MOL   H10716915   6.596   5.178   4.014  1.3982 -0.4595  0.0908
   45MOL   H10816916   6.354   5.174   4.001  0.0451  0.2845 -0.0736
   45MOL   H10916917   6.371   5.172   3.818  0.2591  2.5640 -0.9321
   45MOL   H11016918   6.423   5.412   4.010  0.4809  0.8296  0.2350
   45MOL   H11116919   6.305   5.386   3.895  0.3475  0.2581  1.5534
   45MOL   H11216920   6.455   5.395   3.710  1.8787 -1.3002 -1.5921
   45MOL   H11316921   6.554   5.487   3.832  0.5675 -0.3614 -1.8098
   45MOL   H11416922   6.967   5.275   3.829  1.2630 -1.7680 -1.1540
   45MOL   H11516923   6.860   5.132   3.848 -1.0414 -0.5805 -1.2054
   45MOL   C11616924   6.878   5.197   3.640 -0.6304  0.4467  1.3567
   45MOL   C11716925   6.921   5.312   3.555 -0.4444 -0.3149 -0.1974
   45MOL   C11816926   7.057   5.391   3.602 -0.2665 -0.1777 -0.6458
   45MOL   C11916927   7.106   5.465   3.475  0.6094 -0.7835  0.4177
   45MOL   C12016928   7.078   5.369   3.359  0.2618 -0.7115  0.5636
   45MOL   C12116929   6.950   5.294   3.399  0.3115  0.1932  0.3607
   45MOL   C12216930   6.968   5.067   3.623  0.1129 -0.0340 -0.1014
   45MOL   H12316931   6.779   5.171   3.604  0.1313 -1.5385  0.5984
   45MOL   H12416932   6.839   5.382   3.567 -0.1647  0.2167 -1.3297
   45MOL   H12516933   7.031   5.465   3.678  0.4884 -1.1654  0.6099
   45MOL   H12616934   7.128   5.319   3.644  0.4473 -0.1489 -1.7807
   45MOL   H12716935   7.210   5.496   3.486 -0.2419  2.4066 -0.0829
   45MOL   H12816936   7.044   5.551   3.451  0.3067 -0.9892  0.4549
   45MOL   H12916937   7.162   5.302   3.342  0.8525  0.2161 -0.2115
   45MOL   H13016938   7.067   5.424   3.266 -2.1227 -1.5442  0.3081
   45MOL   H13116939   6.866   5.343   3.349  0.8977  0.5683 -0.2664
   45MOL   H13216940   6.941   5.190   3.369 -2.1016  0.9098 -1.5857
   45MOL   H13316941   7.031   5.048   3.710 -0.0011 -1.1564 -0.2583
   45MOL   H13416942   7.043   5.083   3.545  0.8593 -2.7302  0.0186
   45MOL   C13516943   6.885   4.940   3.578  0.4166  0.7572  0.1519
   45MOL   C13616944   6.793   4.905   3.695 -0.1544 -0.0595  0.6045
   45MOL   C13716945   6.860   4.836   3.806  0.0996 -0.4948  0.3066
   45MOL   C13816946   6.801   4.696   3.789 -0.4394  0.4262 -0.2375
   45MOL   C13916947   6.659   4.710   3.738  0.0803  0.0634  0.0182
   45MOL   C14016948   6.682   4.821   3.635  0.1168  0.4275 -0.2485
   45MOL   C14116949   6.985   4.835   3.532 -0.1487  0.4234 -0.4086
   45MOL   H14216950   6.823   4.974   3.495 -1.7950  1.5410  2.0504
   45MOL   H14316951   6.738   4.991   3.733  0.0908  1.6279 -2.6060
   45MOL   H14416952   6.968   4.850   3.814 -0.2001  2.0701  0.2786
   45MOL   H14516953   6.819   4.883   3.896  1.3947  0.4256  0.4205
   45MOL   H14616954   6.795   4.647   3.886 -2.9942 -0.3606 -0.7618
   45MOL   H14716955   6.858   4.640   3.714 -0.1933 -1.8403  1.5953
   45MOL   H14816956   6.601   4.754   3.819  1.1751  0.7927  0.4123
   45MOL   H14916957   6.616   4.624   3.688 -0.3207  0.4532 -0.3214
   45MOL   H15016958   6.721   4.773   3.545 -2.2659 -0.0397 -1.0715
   45MOL   H15116959   6.593   4.881   3.622 -1.0374 -1.8614 -3.4725
   45MOL   H15216960   6.970   4.732   3.563  1.1571  0.0659 -0.9440
   45MOL   H15316961   7.073   4.860   3.591  0.8116  1.2061 -2.1188
   45MOL   C15416962   7.029   4.845   3.385  0.1242 -0.0006 -0.4655
   45MOL   C15516963   7.177   4.804   3.355  0.1676  0.3173  0.2892
   45MOL   C15616964   7.290   4.886   3.427 -0.0737 -0.4772 -0.0241
   45MOL   C15716965   7.397   4.924   3.321  0.8232 -0.1938  0.1389
   45MOL   C15816966   7.359   4.849   3.200 -0.0486 -0.5661  0.7322
   45MOL   C15916967   7.210   4.817   3.212 -0.1941  0.3805 -0.1277
   45MOL   C16016968   6.909   4.805   3.284 -0.0928 -0.7484  0.0898
   45MOL   H16116969   7.036   4.952   3.368  0.3323  0.0411 -0.1107
   45MOL   H16216970   7.182   4.698   3.381 -2.6566 -0.8198 -3.3595
   45MOL   H16316971   7.247   4.976   3.470  0.9856 -1.2472  2.8042
   45MOL   H16416972   7.331   4.827   3.510  0.3700 -0.8084 -0.4783
   45MOL   H16516973   7.399   5.031   3.304 -2.0325 -0.1554 -0.2057
   45MOL   H16616974   7.500   4.911   3.354  0.7689 -0.1434  0.3281
   45MOL   H16716975   7.416   4.761   3.169  0.6156  0.0135  0.2829
   45MOL   H16816976   7.356   4.923   3.120  0.5322  0.2170  1.4321
   45MOL   H16916977   7.185   4.732   3.149  1.2309 -0.4532  0.4011
   45MOL   H17016978   7.165   4.903   3.163 -0.3123 -0.0661 -0.8170
   45MOL   H17116979   6.913   4.874   3.200  1.1324 -0.2774  0.5291
   45MOL   H17216980   6.809   4.822   3.325  0.2675  0.1827  0.5927
   45MOL   C17316981   6.913   4.662   3.236  0.0478  0.0522  0.2834
   45MOL   C17416982   6.856   4.659   3.087  0.2104  0.7504  0.4341
   45MOL   C17516983   6.946   4.713   2.981 -0.0969 -0.0574 -0.5012
   45MOL   C17616984   6.856   4.745   2.856 -0.1659 -0.0562  0.6038
   45MOL   C17716985   6.721   4.787   2.925 -1.4216  0.5476  0.1347
   45MOL   C17816986   6.716   4.709   3.057 -0.5107  0.5496 -0.0049
   45MOL   C17916987   6.822   4.569   3.335 -0.2184  0.2891 -0.5390
   45MOL   H18016988   7.014   4.620   3.229 -0.8283 -2.2605  0.9877
   45MOL   H18116989   6.857   4.553   3.062 -0.4235  0.5440  1.2631
   45MOL   H18216990   7.023   4.639   2.956 -0.2221 -0.6307  0.7607
   45MOL   H18316991   7.004   4.801   3.007 -0.9016  0.5087 -0.6420
   45MOL   H18416992   6.893   4.819   2.785  0.6052 -1.6643 -0.6926
   45MOL   H18516993   6.839   4.653   2.801 -1.8846 -0.3429  1.5663
   45MOL   H18616994   6.628   4.759   2.875 -0.6453  0.2683 -1.1587
   45MOL   H18716995   6.716   4.892   2.953 -0.9185  0.4290  0.6853
   45MOL   H18816996   6.671   4.757   3.144  0.6527 -0.4824  1.2137
   45MOL   H18916997   6.650   4.622   3.052 -0.1416  0.0510  2.8744
   45MOL   H19016998   6.846   4.599   3.437 -0.0648  1.3736 -0.8921
   45MOL   H19116999   6.715   4.589   3.328 -0.2404  1.0821  1.8189
   45MOL   C19217000   6.851   4.418   3.322  0.3373  0.4929 -0.5765
   45MOL   C19317001   6.731   4.331   3.358 -0.5011  0.1347  0.2089
   45MOL   C19417002   6.617   4.333   3.266  0.1599 -0.1732 -0.5760
   45MOL   C19517003   6.499   4.300   3.362 -0.2071  0.4694  0.6951
   45MOL   C19617004   6.529   4.375   3.487  0.1896 -0.4236 -0.2714
   45MOL   C19717005   6.682   4.360   3.502  0.1730 -0.3649  0.1639
   45MOL   C19817006   6.975   4.373   3.404 -0.0917  0.0657 -0.7933
   45MOL   H19917007   6.863   4.404   3.214  0.6006 -0.3565 -0.4423
   45MOL   H20017008   6.763   4.227   3.363  2.0736  0.7980 -1.5527
   45MOL   H20117009   6.626   4.268   3.179  0.8170  1.5580 -1.8337
   45MOL   H20217010   6.600   4.436   3.233  1.7492  0.1926 -0.2771
   45MOL   H20317011   6.401   4.325   3.322  1.0423  2.7327 -1.1078
   45MOL   H20417012   6.510   4.194   3.384  0.8560  0.2192 -0.9703
   45MOL   H20517013   6.464   4.351   3.571  0.2486  0.2832 -0.0213
   45MOL   H20617014   6.512   4.481   3.465 -1.6689 -0.8315 -0.9035
   45MOL   H20717015   6.705   4.282   3.574 -0.0938 -2.0152 -1.5112
   45MOL   H20817016   6.729   4.450   3.541  0.5957 -0.0108 -1.1257
   45MOL   H20917017   7.044   4.457   3.408  1.2217 -1.0585  0.7760
   45MOL   H21017018   6.949   4.352   3.508  2.4950  0.3614 -0.0553
   45MOL   C21117019   7.061   4.255   3.349  0.0766 -0.1252 -0.1626
   45MOL   C21217020   7.165   4.306   3.248  0.0260 -0.8819  0.7734
   45MOL   C21317021   7.287   4.387   3.298  0.7737  0.7273 -0.3812
   45MOL   C21417022   7.384   4.390   3.182 -0.2272 -0.9003 -0.3514
   45MOL   C21517023   7.331   4.282   3.083 -0.8848 -0.2342  0.2012
   45MOL   C21617024   7.230   4.203   3.164 -0.2876 -0.1045  0.0023
   45MOL   C21717025   7.116   4.165   3.459 -0.2223 -0.0042 -1.2876
   45MOL   H21817026   6.994   4.192   3.292 -2.5214  0.4254  2.1925
   45MOL   H21917027   7.107   4.366   3.177 -0.1623 -1.8207  0.1201
   45MOL   H22017028   7.252   4.481   3.340  0.1696 -0.0626  0.9111
   45MOL   H22117029   7.324   4.326   3.381 -0.5216  2.6483  1.6498
   45MOL   H22217030   7.393   4.489   3.138  0.9127 -0.3599  1.0251
   45MOL   H22317031   7.482   4.363   3.222 -0.9307  0.0350  2.1481
   45MOL   H22417032   7.410   4.217   3.046 -0.6161  0.0121  0.3295
   45MOL   H22517033   7.294   4.333   2.994  1.6425 -1.7859 -1.7897
   45MOL   H22617034   7.171   4.138   3.099 -0.4595 -0.1646  0.2186
   45MOL   H22717035   7.295   4.137   3.220 -2.0478  0.0631  2.3059
   45MOL   H22817036   7.161   4.221   3.540 -1.9382  2.2198 -1.8066
   45MOL   H22917037   7.197   4.105   3.417  1.2292  1.7953 -1.1030
   45MOL   C23017038   6.999   4.082   3.525 -0.1418  0.0182 -0.2318
   45MOL   C23117039   7.001   4.078   3.674  0.0427  0.3751 -0.4431
   45MOL   C23217040   7.008   4.217   3.743  0.2534  0.1219  0.2365
   45MOL   C23317041   7.003   4.170   3.885 -0.2965  0.6907  0.4483
   45MOL   C23417042   6.914   4.058   3.889 -0.5820  0.0117 -0.4740
   45MOL   C23517043   6.880   4.019   3.749 -0.5074 -0.0352  0.2467
   45MOL   C23617044   7.000   3.930   3.480 -0.7934  0.0620 -0.3989
   45MOL   H23717045   6.901   4.119   3.494 -1.2294  0.3239  3.3924
   45MOL   H23817046   7.088   4.020   3.704  0.0716 -0.1478 -1.5086
   45MOL   H23917047   7.090   4.287   3.725 -0.8658  1.1677 -0.8571
   45MOL   H24017048   6.913   4.264   3.717  0.5138  0.7490  0.3885
   45MOL   H24117049   7.108   4.150   3.907 -0.8915 -2.3809  0.7197
   45MOL   H24217050   6.966   4.253   3.944  1.4446  0.0948  2.4311
   45MOL   H24317051   6.827   4.081   3.950 -0.5222  0.1956 -0.4575
   45MOL   H24417052   6.968   3.979   3.942  1.1896  1.8520  0.5100
   45MOL   H24517053   6.781   4.057   3.723  0.2710  0.7411 -1.6367
   45MOL   H24617054   6.873   3.911   3.737 -2.3111  0.1462 -0.5223
   45MOL   H24717055   6.921   3.869   3.524 -0.9727  1.0714  0.6899
   45MOL   H24817056   7.090   3.880   3.515 -0.9613  0.7208  0.9835
   45MOL   C24917057   6.979   3.900   3.330 -0.3992 -0.3451  0.1925
   45MOL   C25017058   6.834   3.920   3.291  1.1705  0.6007  0.0045
   45MOL   C25117059   6.732   3.822   3.339 -0.7865 -0.3464  0.3060
   45MOL   C25217060   6.624   3.818   3.238  0.2279  0.0025  0.3757
   45MOL   C25317061   6.695   3.835   3.111 -0.0407 -0.4847  0.8743
   45MOL   C25417062   6.812   3.919   3.144  0.2314 -0.4096 -0.1342
   45MOL   C25517063   7.030   3.761   3.285 -0.3480 -0.3195 -0.2784
   45MOL   H25617064   7.035   3.975   3.275  0.4010 -2.0579 -1.3531
   45MOL   H25717065   6.798   4.016   3.328 -1.7092  0.0085 -1.1613
   45MOL   H25817066   6.696   3.850   3.438 -1.6643 -0.5706  0.0549
   45MOL   H25917067   6.765   3.719   3.355 -1.1323 -0.8900 -2.2268
   45MOL   H26017068   6.570   3.911   3.258  0.3917  0.1357  0.1966
   45MOL   H26117069   6.553   3.735   3.243 -0.1911  0.3027 -0.4223
   45MOL   H26217070   6.637   3.881   3.031  0.2647  1.2169  1.5943
   45MOL   H26317071   6.723   3.735   3.077 -1.4210 -0.2327 -1.0773
   45MOL   H26417072   6.775   4.018   3.118 -1.1801 -1.2658 -1.4380
   45MOL   H26517073   6.897   3.903   3.078  1.2671  1.7843  0.5880
   45MOL   H26617074   7.004   3.691   3.365 -0.8285 -1.0886 -1.0933
   45MOL   H26717075   6.976   3.721   3.199 -1.5686  2.0003 -0.6318
   45MOL   C26817076   7.184   3.765   3.244 -0.5987 -0.3667  0.3397
   45MOL   C26917077   7.205   3.812   3.102  0.3279 -0.0710  0.6302
   45MOL   C27017078   7.147   3.726   2.987 -0.6353  0.4750  0.4419
   45MOL   C27117079   7.203   3.780   2.854 -0.3137 -0.0459 -0.3979
   45MOL   C27217080   7.316   3.878   2.899  0.4582 -0.4536  0.2325
   45MOL   C27317081   7.342   3.848   3.047  0.3528  0.2473 -0.1682
   45MOL   C27417082   7.262   3.633   3.279  0.1146 -0.1855 -0.1973
   45MOL   H27517083   7.236   3.847   3.294  0.6465 -2.1910  2.0853
   45MOL   H27617084   7.143   3.901   3.089 -0.6057 -1.1037 -2.5199
   45MOL   H27717085   7.177   3.621   2.998 -0.3233  0.6343  1.1593
   45MOL   H27817086   7.039   3.715   3.000 -0.7782  0.3835 -0.8074
   45MOL   H27917087   7.239   3.689   2.806 -0.1242 -0.8889  1.3145
   45MOL   H28017088   7.129   3.835   2.796  0.2008  0.6255 -0.4288
   45MOL   H28117089   7.279   3.976   2.869 -1.8234 -1.9316 -2.0290
   45MOL   H28217090   7.416   3.871   2.858  0.9462  0.7415  1.1981
   45MOL   H28317091   7.380   3.939   3.093  0.6439  0.5669 -1.0398
   45MOL   H28417092   7.419   3.772   3.059 -0.5075 -0.6739 -0.3846
   45MOL   H28517093   7.351   3.632   3.216 -0.4844  0.9657 -1.0784
   45MOL   H28617094   7.202   3.550   3.242  0.9155  0.1321 -2.2906
   45MOL   C28717095   7.288   3.621   3.431  0.3111  0.1935 -1.2561
   45MOL   C28817096   7.289   3.475   3.468  0.2691 -0.5461  0.3938
   45MOL   C28917097   7.146   3.423   3.473 -0.5462 -0.5473  0.4236
   45MOL   C29017098   7.172   3.272   3.470 -0.5494 -0.1847  0.1609
   45MOL   C29117099   7.294   3.260   3.374 -0.1134 -0.7140 -0.0485
   45MOL   C29217100   7.381   3.384   3.382  0.2171  0.1856  0.0735
   45MOL   C29317101   7.427   3.690   3.467 -0.5756  0.0102 -0.1579
   45MOL   H29417102   7.211   3.669   3.491 -0.6114 -1.4188 -1.1186
   45MOL   H29517103   7.330   3.461   3.568 -0.2359  2.7274  1.1370
   45MOL   H29617104   7.093   3.468   3.557 -0.3193 -0.8852  0.7454
   45MOL   H29717105   7.083   3.449   3.387  0.1740  2.3857  0.7430
   45MOL   H29817106   7.196   3.242   3.572 -0.4412 -0.3920  0.0748
   45MOL   H29917107   7.083   3.224   3.430 -0.8834 -0.4987  1.2608
   45MOL   H30017108   7.258   3.262   3.271  0.1151  2.6250 -0.1194
   45MOL   H30117109   7.353   3.173   3.401 -2.3794 -2.2608  0.0574
   45MOL   H30217110   7.402   3.431   3.286  0.3995  1.3022  0.6493
   45MOL   H30317111   7.475   3.368   3.435  0.4974 -0.3403 -0.5790
   45MOL   H30417112   7.430   3.783   3.411  0.8996  0.8236  1.2274
   45MOL   H30517113   7.500   3.623   3.421  2.0717  2.1127  0.8173
   45MOL   C30617114   7.454   3.715   3.619  0.0123 -0.4447  0.6518
   45MOL   C30717115   7.605   3.754   3.638  0.0593 -0.9456  0.0334
   45MOL   C30817116   0.021   3.645   3.608 -0.4539  0.6159  0.1464
   45MOL   C30917117   0.162   3.718   3.621 -0.4931 -0.2076  0.0186
   45MOL   C31017118   0.127   3.854   3.574 -0.5725 -0.0345  0.8182
   45MOL   C31117119   7.662   3.874   3.559  0.4973 -0.4109  0.1952
   45MOL   C31217120   7.358   3.823   3.670  0.3332 -0.0440 -0.1646
   45MOL   H31317121   7.432   3.624   3.674 -0.5285  1.0018  2.8754
   45MOL   H31417122   7.630   3.775   3.742 -0.8298  0.0827  0.0480
   45MOL   H31517123   0.011   3.606   3.507  1.0475  0.8153 -0.0884
   45MOL   H31617124   0.003   3.560   3.674 -0.0193 -0.6182 -1.3068
   45MOL   H31717125   0.189   3.722   3.726 -3.6541  1.5864  0.8384
   45MOL   H31817126   0.250   3.675   3.573 -0.6136  0.7120 -1.0602
   45MOL   H31917127   0.177   3.880   3.481 -0.4535  3.3220  1.7825
   45MOL   H32017128   0.161   3.928   3.646  2.1572  1.2026 -1.6467
   45MOL   H32117129   7.626   3.971   3.593 -0.8099 -0.3989 -1.1224
   45MOL   H32217130   7.625   3.860   3.457 -0.7208 -2.2223  0.8555
   45MOL   H32317131   7.259   3.803   3.630  0.8997 -1.4268 -0.8710
   45MOL   H32417132   7.384   3.920   3.626  1.7909 -0.4289 -0.1759
   45MOL   C32517133   7.353   3.833   3.825 -0.5506 -0.0054 -0.2099
   45MOL   C32617134   7.215   3.780   3.885  0.2736  0.4674 -0.0554
   45MOL   C32717135   7.216   3.766   4.040  0.7068 -0.1140 -1.3142
   45MOL   C32817136   7.123   3.649   4.078 -0.3264  0.3470  0.2112
   45MOL   C32917137   7.054   3.614   3.941 -0.7330  0.1816 -0.4744
   45MOL   C33017138   7.161   3.647   3.837 -0.5223  0.2110 -0.6038
   45MOL   C33117139   7.368   3.983   3.853 -0.5194  0.3545  0.1263
   45MOL   H33217140   7.431   3.778   3.877 -0.6003  0.4300  0.3276
   45MOL   H33317141   7.141   3.859   3.872  1.3998  1.4423 -0.7059
   45MOL   H33417142   7.171   3.854   4.086  0.3135 -0.9610 -0.0629
   45MOL   H33517143   7.311   3.751   4.091 -0.1200  1.1863  0.6753
   45MOL   H33617144   7.050   3.679   4.153  0.0368  0.4677  0.5129
   45MOL   H33717145   7.175   3.563   4.121 -2.0123 -1.6120 -1.5075
   45MOL   H33817146   6.959   3.666   3.927 -1.6216 -1.0312  0.9055
   45MOL   H33917147   7.029   3.507   3.941  0.6091 -0.1588 -2.2892
   45MOL   H34017148   7.124   3.651   3.735  1.5622  1.0231 -1.3586
   45MOL   H34117149   7.231   3.563   3.833 -0.3781  0.2355  0.9921
   45MOL   H34217150   7.326   4.017   3.948 -0.5903 -0.3652  0.3608
   45MOL   H34317151   7.307   4.033   3.779 -0.8658  0.1558  0.2763
   45MOL   C34417152   7.501   4.066   3.856  0.2752  0.8605 -0.2229
   45MOL   C34517153   7.601   4.018   3.965 -0.4761 -0.4234 -0.5093
   45MOL   C34617154   7.574   4.076   4.101  0.6251  0.6674 -0.2006
   45MOL   C34717155   0.010   4.060   4.190 -0.0067  0.3289 -0.3384
   45MOL   C34817156   0.120   4.020   4.097 -0.3562 -0.1677  0.5049
   45MOL   C34917157   0.060   4.044   3.950  0.6498 -0.0215 -0.4895
   45MOL   C35017158   7.465   4.215   3.865  0.2937  0.6748 -0.2828
   45MOL   H35117159   7.546   4.046   3.759  0.1816 -1.6849  0.2338
   45MOL   H35217160   7.584   3.912   3.983 -2.0714  0.2414  2.2278
   45MOL   H35317161   7.488   4.027   4.147 -0.8991  2.3987 -1.1186
   45MOL   H35417162   7.559   4.184   4.097  0.1766  0.6534  1.1510
   45MOL   H35517163   0.034   4.147   4.251  1.0393  0.5962 -1.1190
   45MOL   H35617164   7.680   3.971   4.249 -1.1036  1.4088  0.9611
   45MOL   H35717165   0.152   3.917   4.113  1.0648 -0.4253 -3.4932
   45MOL   H35817166   0.206   4.084   4.109  0.2385 -0.8291 -0.1444
   45MOL   H35917167   0.077   4.148   3.921  0.9458  0.1085  0.1481
   45MOL   H36017168   0.116   3.981   3.881 -0.4760  0.0546 -1.4826
   45MOL   H36117169   7.553   4.268   3.900  0.8879 -1.1877  1.1428
   45MOL   H36217170   7.388   4.233   3.940 -0.4444  0.7940 -1.0657
   45MOL   C36317171   7.427   4.298   3.738 -0.6287  0.2168 -0.5398
   45MOL   C36417172   7.390   4.441   3.778 -0.0678  0.0329 -0.7669
   45MOL   C36517173   7.289   4.458   3.889 -0.8404  0.4966 -0.4947
   45MOL   C36617174   7.223   4.591   3.865  0.2679 -0.7801  0.4893
   45MOL   C36717175   7.240   4.633   3.717  0.5470  0.2872  0.0573
   45MOL   C36817176   7.317   4.512   3.663  0.2828  0.1244  0.4173
   45MOL   C36917177   7.544   4.304   3.642 -0.3044 -0.0862  0.1113
   45MOL   H37017178   7.332   4.267   3.693 -0.6410 -0.6105  0.0429
   45MOL   H37117179   7.482   4.498   3.797  0.1802 -0.2137 -1.2043
   45MOL   H37217180   7.211   4.382   3.877  0.9380 -1.2650 -1.2631
   45MOL   H37317181   7.329   4.454   3.990  1.9308  1.3288 -1.4959
   45MOL   H37417182   7.119   4.588   3.897 -0.0493 -2.3384 -0.5814
   45MOL   H37517183   7.278   4.663   3.925 -1.1771 -0.0405  0.9471
   45MOL   H37617184   7.145   4.639   3.664  0.8561 -2.2598 -0.8757
   45MOL   H37717185   7.298   4.725   3.705 -0.5533  0.8521 -1.1176
   45MOL   H37817186   7.389   4.544   3.588  0.5908  2.2987  1.5961
   45MOL   H37917187   7.244   4.450   3.612  1.8821  0.3691 -2.2765
   45MOL   H38017188   7.583   4.206   3.616  0.8260  0.6559 -1.0774
   45MOL   H38117189   7.625   4.365   3.683  0.0119 -0.1683 -0.3883
   45MOL   H38217190   7.521   4.354   3.548  1.1343 -1.5414 -1.0423
   46MOL     C117191   2.976   2.858   5.137 -0.3309  0.3270  0.1741
   46MOL     C217192   2.955   2.846   5.289 -0.5398  0.7625 -0.2909
   46MOL     C317193   2.811   2.841   5.336  0.4147 -0.7522  0.0147
   46MOL     C417194   2.817   2.888   5.487 -0.5239  0.2914  0.1405
   46MOL     C517195   2.959   2.945   5.511  0.2549 -0.7512 -0.4888
   46MOL     C617196   3.021   2.960   5.375  0.0049  0.0730  0.7243
   46MOL     C717197   3.126   2.862   5.101 -0.4267 -0.4014 -0.1071
   46MOL     H817198   2.916   2.792   5.075  0.9206 -0.0326 -0.6708
   46MOL     H917199   3.006   2.753   5.316  1.2339  0.4998 -4.1764
   46MOL    H1017200   2.751   2.915   5.283  0.2469 -1.1922 -0.4218
   46MOL    H1117201   2.769   2.743   5.314 -0.7052 -0.4821  0.9517
   46MOL    H1217202   2.738   2.962   5.501 -1.6660 -1.0966  1.1009
   46MOL    H1317203   2.789   2.810   5.557  0.6770 -1.4456 -1.2695
   46MOL    H1417204   2.960   3.042   5.561  1.0625 -1.2709  0.5287
   46MOL    H1517205   3.021   2.874   5.566 -1.5634 -1.4048  0.7684
   46MOL    H1617206   3.129   2.947   5.380  0.3949  2.3342 -1.3059
   46MOL    H1717207   3.006   3.060   5.336 -0.2650 -0.0637  0.4712
   46MOL    H1817208   3.175   2.928   5.173 -1.5598  1.0537 -0.6339
   46MOL    H1917209   3.162   2.761   5.116 -1.8746 -0.8709  0.2911
   46MOL    H2017210   2.940   2.959   5.119 -0.3265  0.4511  0.8790
   46MOL    C2117211   3.154   2.914   4.954 -0.0362  0.5869 -0.1819
   46MOL    C2217212   3.093   2.824   4.844 -0.0811 -0.2276 -0.1810
   46MOL    C2317213   3.116   2.671   4.845 -0.1608 -0.2642 -0.8241
   46MOL    C2417214   3.080   2.628   4.704  0.5057 -0.9782  0.0995
   46MOL    C2517215   3.151   2.728   4.612 -0.1531 -0.3105  0.6960
   46MOL    C2617216   3.135   2.856   4.700  0.3017 -0.1760  0.4929
   46MOL    C2717217   3.122   3.063   4.938  0.3481 -0.4948  1.1237
   46MOL    H2817218   3.261   2.899   4.945  0.0671  0.0108  1.7029
   46MOL    H2917219   2.986   2.847   4.848  0.1779  1.6845 -3.0439
   46MOL    H3017220   3.058   2.628   4.926  0.8244 -1.4022 -0.7101
   46MOL    H3117221   3.222   2.668   4.871  0.0073  2.4648 -1.0107
   46MOL    H3217222   3.121   2.529   4.686  0.5479 -0.9319 -0.0629
   46MOL    H3317223   2.974   2.634   4.678 -0.1600  0.8805  2.9421
   46MOL    H3417224   3.122   2.739   4.507  0.9720  3.0784  0.7075
   46MOL    H3517225   3.256   2.701   4.608 -0.6394 -2.1423 -0.7253
   46MOL    H3617226   3.053   2.923   4.670  0.2402  0.7296  2.6356
   46MOL    H3717227   3.223   2.919   4.698 -0.3614  0.7580  0.3702
   46MOL    H3817228   3.033   3.066   4.876  0.9155  1.7790  0.3590
   46MOL    H3917229   3.095   3.100   5.037 -0.0563 -1.0710  1.2353
   46MOL    C4017230   3.234   3.156   4.882  0.3367  0.2760  0.0347
   46MOL    C4117231   3.174   3.287   4.837 -0.0075  0.6968  0.0141
   46MOL    C4217232   3.080   3.262   4.717  0.3754  0.2195 -0.3762
   46MOL    C4317233   3.072   3.403   4.647  0.2324  0.3172  0.2012
   46MOL    C4417234   3.214   3.456   4.667  0.0853 -0.0902 -0.0688
   46MOL    C4517235   3.280   3.382   4.779  0.6667  0.2610 -0.1311
   46MOL    C4617236   3.342   3.177   4.996 -0.0464  0.2185  0.2623
   46MOL    H4717237   3.278   3.108   4.795 -0.3017  0.9994 -0.6996
   46MOL    H4817238   3.120   3.343   4.913 -0.5029 -0.2164  0.3464
   46MOL    H4917239   2.981   3.230   4.748  0.6721  0.4020  0.7894
   46MOL    H5017240   3.132   3.184   4.660 -1.4485 -0.5784 -0.9650
   46MOL    H5117241   3.001   3.468   4.697 -1.7981 -1.0774 -0.7803
   46MOL    H5217242   3.041   3.390   4.543 -0.4518  1.2110  0.2824
   46MOL    H5317243   3.261   3.452   4.569  2.5234 -0.8514  1.1050
   46MOL    H5417244   3.216   3.564   4.684  1.5065 -0.3158  1.2854
   46MOL    H5517245   3.364   3.332   4.730  0.8341  0.4855 -0.0777
   46MOL    H5617246   3.320   3.447   4.857  0.9025  1.0402 -0.8837
   46MOL    H5717247   3.324   3.267   5.054  1.5287  1.3755 -1.0037
   46MOL    H5817248   3.328   3.100   5.072 -3.6494  0.0683 -0.4768
   46MOL    C5917249   3.489   3.175   4.949 -0.0705  0.4900  0.2912
   46MOL    C6017250   3.593   3.237   5.049 -0.2404 -0.0972  0.1604
   46MOL    C6117251   3.604   3.160   5.181 -0.1962  0.2181 -0.1822
   46MOL    C6217252   3.648   3.258   5.283  0.1696 -0.1072  0.0207
   46MOL    C6317253   3.608   3.397   5.232  0.7313  0.4395 -0.1025
   46MOL    C6417254   3.584   3.384   5.084 -0.1047 -0.1638 -0.6926
   46MOL    C6517255   3.530   3.020   4.916  0.5400  0.0963  1.0448
   46MOL    H6617256   3.501   3.228   4.855 -1.0766  1.3826  0.6681
   46MOL    H6717257   3.692   3.222   5.005 -0.6883  0.4578 -1.0554
   46MOL    H6817258   3.675   3.077   5.176 -0.2179  0.2382 -0.9288
   46MOL    H6917259   3.510   3.122   5.220 -1.2061 -0.2651 -2.9534
   46MOL    H7017260   3.756   3.263   5.291  0.1206 -0.8298  1.4607
   46MOL    H7117261   3.602   3.229   5.378 -0.0089  0.0242 -0.0256
   46MOL    H7217262   3.686   3.473   5.242 -0.3148  1.2486  2.2509
   46MOL    H7317263   3.518   3.424   5.287  0.1479 -1.1464 -0.2444
   46MOL    H7417264   3.486   3.425   5.057  0.3057  1.5227  0.3093
   46MOL    H7517265   3.657   3.437   5.022  1.3764 -0.4232  0.8123
   46MOL    H7617266   3.441   2.979   4.868  1.4685  0.2978 -0.8978
   46MOL    H7717267   3.547   2.952   5.000  3.5436  0.4257  0.7553
   46MOL    C7817268   3.646   3.011   4.809 -0.5458  0.2661 -0.4128
   46MOL    C7917269   3.724   2.882   4.834 -0.1957  0.9335  0.0428
   46MOL    C8017270   3.861   2.894   4.761  0.2911  0.6730 -0.3731
   46MOL    C8117271   3.913   2.746   4.757  0.2341  0.0068  0.3753
   46MOL    C8217272   3.797   2.657   4.778 -0.3010  0.5389  0.2862
   46MOL    C8317273   3.677   2.743   4.784 -0.1492  0.5287  0.3156
   46MOL    C8417274   3.599   3.021   4.658  0.0322 -0.1629 -0.0881
   46MOL    H8517275   3.717   3.090   4.835  0.7795 -0.9335 -0.3472
   46MOL    H8617276   3.731   2.876   4.942  0.2306 -1.1704 -0.0895
   46MOL    H8717277   3.933   2.956   4.815 -0.8713  2.0750 -0.3871
   46MOL    H8817278   3.857   2.947   4.665 -2.3346 -2.7243 -2.2215
   46MOL    H8917279   4.000   2.727   4.820  1.4110  0.4942 -1.0598
   46MOL    H9017280   3.947   2.740   4.654 -1.3116  0.1166 -0.1494
   46MOL    H9117281   3.792   2.592   4.691 -1.2821  0.7137  0.2043
   46MOL    H9217282   3.805   2.590   4.863 -4.0017 -0.7792 -0.3406
   46MOL    H9317283   3.630   2.763   4.687  0.0001 -2.4940 -0.4242
   46MOL    H9417284   3.591   2.698   4.833 -1.0638  0.7267 -1.0886
   46MOL    H9517285   3.505   2.966   4.653  0.6951 -1.5847  2.2563
   46MOL    H9617286   3.659   2.960   4.590  1.2036  0.5001  0.3405
   46MOL    C9717287   3.594   3.159   4.598  0.8589  0.9845 -0.6601
   46MOL    C9817288   3.522   3.154   4.463 -0.0085  0.4336 -1.0384
   46MOL    C9917289   3.601   3.095   4.345 -0.3454  0.5188 -0.1384
   46MOL   C10017290   3.501   3.017   4.259  0.1700  0.3805  0.6014
   46MOL   C10117291   3.377   2.989   4.351  0.1019  0.0735  0.2955
   46MOL   C10217292   3.377   3.093   4.461 -0.0232  0.3040  0.3255
   46MOL   C10317293   3.737   3.223   4.588 -0.9149 -0.0679 -0.9884
   46MOL   H10417294   3.532   3.220   4.664 -2.9345 -1.8551 -1.3887
   46MOL   H10517295   3.500   3.256   4.432 -3.1371  0.4934  1.1173
   46MOL   H10617296   3.654   3.176   4.295 -0.7175  0.3339 -0.8450
   46MOL   H10717297   3.680   3.025   4.372 -0.6992  1.0136  2.3539
   46MOL   H10817298   3.543   2.926   4.216 -1.5196 -0.4720  0.6945
   46MOL   H10917299   3.463   3.086   4.184 -0.1649  1.0844  1.4090
   46MOL   H11017300   3.399   2.891   4.395  3.2509  0.5786 -0.0059
   46MOL   H11117301   3.283   2.985   4.297  1.0451 -1.7109 -1.2622
   46MOL   H11217302   3.304   3.171   4.436 -0.7923 -0.1985  0.9979
   46MOL   H11317303   3.348   3.044   4.554 -1.3595  0.8910  0.2363
   46MOL   H11417304   3.790   3.232   4.682 -0.8853  0.0682 -1.0179
   46MOL   H11517305   3.799   3.153   4.533  0.3252  0.6348 -0.5029
   46MOL   C11617306   3.746   3.365   4.529 -0.6850  0.1701  0.3605
   46MOL   C11717307   3.643   3.468   4.579 -0.2948 -0.2642  0.3730
   46MOL   C11817308   3.672   3.501   4.719 -0.2812  0.1419 -0.2215
   46MOL   C11917309   3.578   3.625   4.741 -0.0252 -0.5912 -0.2957
   46MOL   C12017310   3.560   3.687   4.598 -0.3232  0.4897  0.1555
   46MOL   C12117311   3.623   3.594   4.494 -0.5658 -0.0200  0.4183
   46MOL   C12217312   3.886   3.418   4.517  0.1211  0.1461 -0.3744
   46MOL   H12317313   3.715   3.360   4.424  2.4191 -0.0682 -0.5854
   46MOL   H12417314   3.549   3.414   4.588  0.6935 -1.7130  2.3281
   46MOL   H12517315   3.638   3.424   4.789 -0.7693  1.2923  0.8295
   46MOL   H12617316   3.777   3.523   4.738 -0.2706 -1.8684  2.4327
   46MOL   H12717317   3.618   3.697   4.812  0.6068  0.0078 -1.2531
   46MOL   H12817318   3.482   3.582   4.771 -0.3962  0.1803 -0.3791
   46MOL   H12917319   3.604   3.786   4.610 -2.0037  1.1683  0.9600
   46MOL   H13017320   3.457   3.708   4.569  0.0491  0.0386 -1.5191
   46MOL   H13117321   3.574   3.581   4.397 -2.2477  2.3124  0.9200
   46MOL   H13217322   3.720   3.642   4.486 -0.2967 -0.6828 -0.3370
   46MOL   H13317323   3.938   3.376   4.603 -0.1897 -4.6768 -2.3537
   46MOL   H13417324   3.893   3.526   4.528  2.0831 -0.0179  0.0702
   46MOL   C13517325   3.970   3.382   4.390 -0.0725 -0.1646 -0.2461
   46MOL   C13617326   4.126   3.400   4.403  0.2554 -0.3489  0.0249
   46MOL   C13717327   4.188   3.292   4.496  0.4980 -0.2802 -0.1057
   46MOL   C13817328   4.319   3.350   4.551 -0.3557 -0.0089 -0.4484
   46MOL   C13917329   4.318   3.502   4.509 -0.3853  0.8522 -0.3481
   46MOL   C14017330   4.177   3.534   4.466  0.5946  0.4985  0.4452
   46MOL   C14117331   3.922   3.466   4.269 -0.0900 -0.1124  0.7918
   46MOL   H14217332   3.957   3.275   4.375  1.5451 -0.1328 -2.1308
   46MOL   H14317333   4.178   3.391   4.308 -0.2826 -1.9403 -0.1407
   46MOL   H14417334   4.120   3.261   4.575 -0.1539 -0.5032 -0.7373
   46MOL   H14517335   4.201   3.198   4.442 -0.1126 -0.3646 -0.1169
   46MOL   H14617336   4.415   3.303   4.531 -0.2570  0.3970 -0.9259
   46MOL   H14717337   4.318   3.349   4.660  0.8224  0.9718 -0.4295
   46MOL   H14817338   4.398   3.503   4.435 -1.1231 -1.4693 -1.2242
   46MOL   H14917339   4.359   3.574   4.579 -0.3492 -0.0041  0.5090
   46MOL   H15017340   4.116   3.562   4.551  1.7804  0.0928  1.4460
   46MOL   H15117341   4.185   3.618   4.396  1.9391  0.6338  0.7341
   46MOL   H15217342   3.941   3.570   4.295  0.1642  0.2897 -0.9485
   46MOL   H15317343   3.816   3.443   4.266  0.0525 -1.2606  3.1555
   46MOL   C15417344   3.971   3.437   4.127  0.8085  0.0834 -0.4837
   46MOL   C15517345   3.987   3.293   4.100 -0.1297  0.2186 -0.2570
   46MOL   C15617346   4.064   3.252   3.972 -0.1474 -0.0304  0.7466
   46MOL   C15717347   3.979   3.152   3.893 -0.0764  0.0088 -0.7649
   46MOL   C15817348   3.838   3.177   3.937 -0.0806 -0.6023 -0.2946
   46MOL   C15917349   3.847   3.228   4.080 -0.2276  0.1888  0.0134
   46MOL   C16017350   3.889   3.519   4.017 -0.2275  0.4165  0.2828
   46MOL   H16117351   4.073   3.476   4.125  0.1874  1.7202 -1.8895
   46MOL   H16217352   4.037   3.245   4.184  0.3211 -0.8889 -1.1495
   46MOL   H16317353   4.073   3.341   3.909 -1.1611  0.7939  1.7217
   46MOL   H16417354   4.161   3.210   3.996  0.7611  0.3106 -2.2112
   46MOL   H16517355   4.003   3.155   3.787 -0.4810  0.5526 -0.8417
   46MOL   H16617356   4.009   3.060   3.944 -0.4418  0.6626  0.6396
   46MOL   H16717357   3.772   3.092   3.923  0.9872 -0.8886 -4.2010
   46MOL   H16817358   3.798   3.262   3.882 -0.9700 -0.9963 -0.2626
   46MOL   H16917359   3.849   3.140   4.144  1.8247  1.1123  1.2667
   46MOL   H17017360   3.762   3.287   4.117 -0.5737  0.2722 -0.8918
   46MOL   H17117361   3.786   3.495   4.044  0.4923 -2.5803  0.5982
   46MOL   H17217362   3.899   3.485   3.914  1.6779  0.4720  0.4361
   46MOL   C17317363   3.916   3.670   4.008  0.5202  0.2001 -0.4274
   46MOL   C17417364   3.789   3.742   3.944 -0.1478 -0.0188  0.2011
   46MOL   C17517365   3.804   3.888   3.905 -0.1494 -0.0918 -0.5940
   46MOL   C17617366   3.664   3.939   3.892  0.4532  0.4539 -0.0698
   46MOL   C17717367   3.594   3.885   4.021 -0.2789 -0.3484 -0.1999
   46MOL   C17817368   3.667   3.752   4.049 -0.9868  0.0775 -0.9254
   46MOL   C17917369   4.049   3.695   3.933  0.5076  0.6050  0.5099
   46MOL   H18017370   3.931   3.713   4.107 -1.2363 -1.7253  0.7071
   46MOL   H18117371   3.766   3.682   3.856  1.5146  2.0726 -1.7367
   46MOL   H18217372   3.852   3.898   3.808  2.5381 -2.1050  0.4820
   46MOL   H18317373   3.865   3.931   3.984 -0.1275 -2.5295  0.7569
   46MOL   H18417374   3.659   4.047   3.876  2.5717  0.7488  1.1321
   46MOL   H18517375   3.628   3.896   3.798  2.8062  0.4196 -0.9763
   46MOL   H18617376   3.489   3.880   3.992  0.1853 -1.8498 -1.7018
   46MOL   H18717377   3.607   3.952   4.106  2.3425 -0.2829 -0.6125
   46MOL   H18817378   3.706   3.744   4.151 -1.4965 -1.3242 -0.8276
   46MOL   H18917379   3.593   3.672   4.041  0.7461 -1.6409 -0.2472
   46MOL   H19017380   4.060   3.615   3.860  1.6515  0.4499  0.8345
   46MOL   H19117381   4.025   3.789   3.884  1.1306  2.2782  3.2875
   46MOL   C19217382   4.188   3.704   4.001 -0.2694  0.5105  0.1449
   46MOL   C19317383   4.198   3.829   4.098 -0.8898  0.0645  0.1532
   46MOL   C19417384   4.202   3.971   4.037 -0.4725  0.2131  0.0524
   46MOL   C19517385   4.225   4.063   4.153  0.2318 -0.2270  0.3475
   46MOL   C19617386   4.275   3.975   4.275 -0.1535 -0.0918 -0.7044
   46MOL   C19717387   4.302   3.833   4.211 -0.1793  0.6326  0.3716
   46MOL   C19817388   4.305   3.686   3.901 -0.0926 -0.1526  0.1355
   46MOL   H19917389   4.197   3.614   4.062  2.0625  0.8175  0.3063
   46MOL   H20017390   4.102   3.827   4.150 -1.6554 -1.4122 -1.2629
   46MOL   H20117391   4.104   3.988   3.993 -0.6349  2.0868  1.0934
   46MOL   H20217392   4.275   3.986   3.958 -0.7562 -0.2842 -0.3116
   46MOL   H20317393   4.293   4.145   4.130 -0.3862 -0.7649 -3.7788
   46MOL   H20417394   4.131   4.112   4.178 -0.3851  0.6999 -3.5341
   46MOL   H20517395   4.205   3.966   4.358  0.3866  1.6441 -0.0226
   46MOL   H20617396   4.369   4.018   4.311 -1.1028  1.1286  0.3433
   46MOL   H20717397   4.302   3.748   4.280 -1.6788  1.1700  1.0764
   46MOL   H20817398   4.398   3.841   4.160 -0.2613  0.1158  0.1396
   46MOL   H20917399   4.272   3.625   3.817  2.2417 -1.1117 -0.1431
   46MOL   H21017400   4.317   3.784   3.856 -0.7913 -1.2373 -2.4749
   46MOL   C21117401   4.441   3.638   3.946  0.4100  0.2510 -0.2688
   46MOL   C21217402   4.440   3.488   3.967  0.3566 -0.0220  0.6439
   46MOL   C21317403   4.571   3.416   3.977 -0.1883 -0.2864  0.1643
   46MOL   C21417404   4.550   3.289   4.062 -0.2280  0.7535  0.3232
   46MOL   C21517405   4.451   3.334   4.171  0.1497 -0.2015  0.7674
   46MOL   C21617406   4.370   3.444   4.103 -0.3721 -0.3303 -1.2013
   46MOL   C21717407   4.553   3.675   3.843 -0.0220  0.2120  0.9981
   46MOL   H21817408   4.474   3.679   4.042 -0.3295  2.0926 -0.7893
   46MOL   H21917409   4.391   3.450   3.877  2.2267 -1.4854  0.2225
   46MOL   H22017410   4.611   3.387   3.880 -2.3109 -1.3220 -0.4052
   46MOL   H22117411   4.646   3.476   4.030  1.2444 -0.1066 -2.0146
   46MOL   H22217412   4.502   3.212   4.001 -1.7904 -0.0239  2.4694
   46MOL   H22317413   4.640   3.242   4.102 -0.7999  0.1005  0.8553
   46MOL   H22417414   4.498   3.369   4.263  0.9898  0.1645  0.2036
   46MOL   H22517415   4.389   3.249   4.199  0.2034 -0.1349  1.0955
   46MOL   H22617416   4.270   3.403   4.092  0.1373 -2.3349  1.0274
   46MOL   H22717417   4.365   3.524   4.178  2.7619  0.0881 -1.3495
   46MOL   H22817418   4.517   3.644   3.745  1.3410  1.0480  0.2037
   46MOL   H22917419   4.644   3.625   3.876 -0.2992 -1.1190 -0.2131
   46MOL   C23017420   4.590   3.827   3.840  0.5892  0.3233  0.5869
   46MOL   C23117421   4.575   3.890   3.691 -0.1716  0.6428  0.1163
   46MOL   C23217422   4.581   4.035   3.669  0.4070 -0.1400 -0.1609
   46MOL   C23317423   4.597   4.061   3.520 -0.1328  0.6085 -0.4685
   46MOL   C23417424   4.659   3.931   3.470  0.5819 -0.6037  0.0351
   46MOL   C23517425   4.675   3.837   3.591  0.1658 -0.2116  0.4817
   46MOL   C23617426   4.733   3.846   3.898  0.5953 -0.8769  0.8333
   46MOL   H23717427   4.514   3.880   3.898 -2.6179 -1.0333 -2.2437
   46MOL   H23817428   4.474   3.866   3.658 -0.2525 -1.0642  1.5658
   46MOL   H23917429   4.487   4.079   3.704  1.9816  1.0700  2.7183
   46MOL   H24017430   4.658   4.084   3.728 -1.4101  0.5904  1.6986
   46MOL   H24117431   4.505   4.083   3.466 -0.1902  0.7589 -0.3084
   46MOL   H24217432   4.659   4.144   3.487  0.2981  0.3795 -0.2431
   46MOL   H24317433   4.752   3.944   3.415  1.5197 -0.7180  1.5576
   46MOL   H24417434   4.587   3.880   3.405 -2.1698 -2.0210  3.9682
   46MOL   H24517435   4.777   3.842   3.629  0.3085 -0.3601  0.1135
   46MOL   H24617436   4.657   3.735   3.555  0.7392  0.8081 -2.8081
   46MOL   H24717437   4.796   3.920   3.850  0.2532 -0.9904  0.2015
   46MOL   H24817438   4.794   3.756   3.899  1.2955 -0.4737 -2.2919
   46MOL   C24917439   4.731   3.908   4.037 -0.2073 -0.4156  0.0578
   46MOL   C25017440   4.698   4.058   4.044  0.4974  0.4603  0.3451
   46MOL   C25117441   4.802   4.158   3.995  0.7929 -0.2660  0.2977
   46MOL   C25217442   4.765   4.294   4.073  0.2747 -0.3230  0.4240
   46MOL   C25317443   4.642   4.267   4.160 -0.2065  0.1399  0.0544
   46MOL   C25417444   4.649   4.112   4.176 -0.4318  0.4232  0.8268
   46MOL   C25517445   4.861   3.879   4.116  0.0648 -0.2544  0.0178
   46MOL   H25617446   4.643   3.861   4.081 -0.7309  1.8776  1.5361
   46MOL   H25717447   4.609   4.067   3.981  0.8274  0.1092 -0.1798
   46MOL   H25817448   4.794   4.165   3.887  1.1377  0.8108  0.3327
   46MOL   H25917449   4.897   4.113   4.022  0.2584 -2.1550 -0.8764
   46MOL   H26017450   4.749   4.372   3.999 -0.2023  0.7660  1.6769
   46MOL   H26117451   4.844   4.327   4.141 -0.4794  0.7973  0.7604
   46MOL   H26217452   4.560   4.291   4.093 -0.6059 -0.6145  0.2578
   46MOL   H26317453   4.628   4.317   4.256 -0.7925 -2.9960  1.6895
   46MOL   H26417454   4.550   4.082   4.208  0.3535  0.7323  3.7286
   46MOL   H26517455   4.717   4.087   4.258  1.0010 -0.5430 -0.6065
   46MOL   H26617456   4.945   3.900   4.049 -0.1070 -2.7910 -1.0436
   46MOL   H26717457   4.880   3.953   4.194 -0.3070 -1.2405  1.0548
   46MOL   C26817458   4.879   3.730   4.167 -0.2651  0.3764 -0.1215
   46MOL   C26917459   4.819   3.707   4.306 -0.5224 -0.4660 -0.5153
   46MOL   C27017460   4.668   3.675   4.326 -0.2904  0.7093 -0.4526
   46MOL   C27117461   4.645   3.700   4.478 -0.5464 -0.1525  0.2632
   46MOL   C27217462   4.773   3.756   4.538 -0.4034  0.1075 -0.4564
   46MOL   C27317463   4.855   3.803   4.419 -0.3948 -0.3341 -0.4345
   46MOL   C27417464   5.027   3.687   4.167 -0.3142  0.8910 -0.2567
   46MOL   H27517465   4.832   3.665   4.094 -1.1018 -2.2721  2.6852
   46MOL   H27617466   4.875   3.620   4.339 -0.6539  0.2848  1.8087
   46MOL   H27717467   4.597   3.735   4.271  0.1415  1.8389  0.2039
   46MOL   H27817468   4.653   3.573   4.290 -0.1575  0.3449  0.4963
   46MOL   H27917469   4.565   3.775   4.480 -0.5743 -0.2151  3.2339
   46MOL   H28017470   4.608   3.609   4.526 -0.1081 -0.9879 -0.9618
   46MOL   H28117471   4.829   3.680   4.593 -1.1735  0.1507  0.3975
   46MOL   H28217472   4.745   3.838   4.604  0.1977  1.3870 -1.7825
   46MOL   H28317473   4.961   3.803   4.443 -0.0616  1.8949 -1.7346
   46MOL   H28417474   4.822   3.905   4.395 -1.6039 -0.2544  1.4666
   46MOL   H28517475   5.054   3.612   4.241  0.6432  0.2043 -1.2868
   46MOL   H28617476   5.089   3.775   4.183  2.1386 -0.6335 -1.1387
   46MOL   C28717477   5.076   3.637   4.021  0.4455  0.2598 -0.2032
   46MOL   C28817478   5.225   3.670   3.983  0.1637  0.4236  0.2650
   46MOL   C28917479   5.259   3.816   3.952 -0.4310  0.6703 -0.5919
   46MOL   C29017480   5.418   3.830   3.976  0.0982  0.2113  0.2248
   46MOL   C29117481   5.460   3.695   4.029  0.0271  0.4323  0.1724
   46MOL   C29217482   5.329   3.633   4.083 -0.3996 -0.3534  0.5910
   46MOL   C29317483   5.044   3.483   4.020  0.0896  0.1651  0.1382
   46MOL   H29417484   5.007   3.674   3.945  0.5192  2.1755  0.6275
   46MOL   H29517485   5.239   3.613   3.891 -2.5742 -1.3106  0.8659
   46MOL   H29617486   5.214   3.839   3.856 -1.1456 -0.7173 -0.5934
   46MOL   H29717487   5.209   3.879   4.026 -0.2388 -0.7704  0.8006
   46MOL   H29817488   5.464   3.844   3.878  0.3395  0.9803  0.4424
   46MOL   H29917489   5.449   3.905   4.049  1.6022  0.2777 -0.4589
   46MOL   H30017490   5.530   3.703   4.112 -0.9586 -0.0291  1.0458
   46MOL   H30117491   5.508   3.629   3.956  3.6485 -0.8532  3.5131
   46MOL   H30217492   5.305   3.658   4.186 -3.0749 -1.1916  0.2092
   46MOL   H30317493   5.341   3.525   4.091  0.8359 -0.3010 -0.3130
   46MOL   H30417494   4.952   3.468   4.076 -0.1362  0.4746 -0.1452
   46MOL   H30517495   5.120   3.431   4.078 -0.0930  2.0644  2.1740
   46MOL   C30617496   5.051   3.413   3.886  0.0318  0.3626 -0.3585
   46MOL   C30717497   5.060   3.251   3.894  0.1146  0.4664  0.0606
   46MOL   C30817498   5.192   3.193   3.932 -0.2273  0.3577 -0.5970
   46MOL   C30917499   5.158   3.044   3.957 -0.3311 -0.1658  0.4691
   46MOL   C31017500   5.008   3.048   3.998 -0.1719  0.3918 -0.4382
   46MOL   C31117501   4.951   3.184   3.974  0.2221 -0.1740  0.8232
   46MOL   C31217502   4.933   3.453   3.793 -0.0833 -0.1215  0.1235
   46MOL   H31317503   5.141   3.443   3.832  1.4558  1.4985  2.5783
   46MOL   H31417504   5.070   3.211   3.794 -0.2464  1.0137 -0.2003
   46MOL   H31517505   5.231   3.240   4.023 -1.1861  0.6074 -0.2963
   46MOL   H31617506   5.265   3.209   3.853  2.9240  0.7534  2.2731
   46MOL   H31717507   5.166   3.000   3.857 -2.6890 -0.4587  0.3735
   46MOL   H31817508   5.223   2.985   4.021 -0.8989  0.3780  1.5505
   46MOL   H31917509   5.010   3.015   4.102  0.9768  2.2240  0.1345
   46MOL   H32017510   4.953   2.968   3.948  2.9824 -1.7366 -0.6453
   46MOL   H32117511   4.849   3.187   3.937  0.4360  1.6313  0.3508
   46MOL   H32217512   4.949   3.223   4.075 -0.4085  1.7357  0.0928
   46MOL   H32317513   4.916   3.561   3.799 -0.5601 -0.2535  1.2771
   46MOL   H32417514   4.842   3.418   3.841 -1.1525 -1.2512 -2.6345
   46MOL   C32517515   4.947   3.425   3.646 -0.3704 -0.0677  0.5375
   46MOL   C32617516   5.068   3.502   3.580 -0.3889  0.5260  0.0105
   46MOL   C32717517   5.071   3.652   3.605 -0.1432 -0.6669  0.7599
   46MOL   C32817518   5.155   3.725   3.492 -0.2587  0.1822  0.2140
   46MOL   C32917519   5.184   3.610   3.392 -0.2806 -0.0665  0.5476
   46MOL   C33017520   5.092   3.489   3.429 -0.0221  0.4934 -0.0664
   46MOL   C33117521   4.806   3.449   3.581 -0.6419  0.8505 -0.2929
   46MOL   H33217522   4.971   3.320   3.631  0.7638  0.1197  1.0164
   46MOL   H33317523   5.166   3.471   3.615 -1.3370 -1.8056  0.6997
   46MOL   H33417524   5.103   3.675   3.707 -1.4744  0.1652  0.9998
   46MOL   H33517525   4.968   3.685   3.589  0.2329  0.1478 -0.0682
   46MOL   H33617526   5.252   3.754   3.533 -0.8295  2.0322  0.2934
   46MOL   H33717527   5.098   3.799   3.436 -0.3429 -0.5013 -0.6105
   46MOL   H33817528   5.290   3.588   3.396  0.0260  1.4065  0.5873
   46MOL   H33917529   5.174   3.639   3.287  0.1581 -1.7097  0.0443
   46MOL   H34017530   5.128   3.391   3.399 -1.9376 -0.4540  0.6837
   46MOL   H34117531   4.998   3.487   3.374 -1.1920  1.5688  1.8435
   46MOL   H34217532   4.816   3.515   3.494  2.0834  0.3927 -0.3680
   46MOL   H34317533   4.744   3.503   3.652  0.7435  1.0255  0.8044
   46MOL   C34417534   4.738   3.317   3.530 -0.0858  0.3913 -0.1835
   46MOL   C34517535   4.606   3.345   3.451 -0.6785  0.2808 -0.4303
   46MOL   C34617536   4.623   3.422   3.315 -0.0447 -0.5769 -0.4586
   46MOL   C34717537   4.479   3.462   3.283 -0.1019  0.0275 -0.6456
   46MOL   C34817538   4.430   3.514   3.413  0.0808  0.1185 -0.3542
   46MOL   C34917539   4.495   3.423   3.522 -0.3790  0.5907  1.1418
   46MOL   C35017540   4.712   3.219   3.642  0.6150 -0.2880  0.1382
   46MOL   H35117541   4.812   3.285   3.457  1.4679 -1.1734  2.0181
   46MOL   H35217542   4.558   3.248   3.435  0.2809 -0.3361  0.4077
   46MOL   H35317543   4.664   3.372   3.227  1.9068  2.6487 -1.4544
   46MOL   H35417544   4.679   3.514   3.328 -0.5714 -0.1331 -1.2888
   46MOL   H35517545   4.473   3.526   3.196 -0.2190 -1.6921 -1.9366
   46MOL   H35617546   4.423   3.372   3.254  0.6106  0.3637 -3.1966
   46MOL   H35717547   4.321   3.514   3.421  0.3163  1.2024  4.0474
   46MOL   H35817548   4.473   3.614   3.418  0.9792 -0.2125 -1.2717
   46MOL   H35917549   4.533   3.487   3.602 -1.2220  0.7377  1.4281
   46MOL   H36017550   4.429   3.354   3.575 -0.4976  1.5409  2.2446
   46MOL   H36117551   4.644   3.265   3.713 -1.1954 -1.0539 -1.0728
   46MOL   H36217552   4.804   3.210   3.700  1.0075 -0.4481 -0.4920
   46MOL   C36317553   4.648   3.078   3.613 -0.1618  0.3333 -0.2369
   46MOL   C36417554   4.718   2.961   3.692 -0.2606 -0.1200 -0.1766
   46MOL   C36517555   4.872   2.963   3.661 -0.1363 -0.2675  0.4797
   46MOL   C36617556   4.917   2.821   3.691  0.4573 -0.0610 -0.3962
   46MOL   C36717557   4.794   2.727   3.659 -0.0258  0.5906 -0.4696
   46MOL   C36817558   4.677   2.822   3.641  0.7015  0.2783 -0.1086
   46MOL   C36917559   4.497   3.068   3.657  0.2407 -0.3404  1.0358
   46MOL   H37017560   4.673   3.055   3.509  2.7249  1.7212  0.0871
   46MOL   H37117561   4.702   2.972   3.800  1.8905 -1.8634  0.3355
   46MOL   H37217562   4.897   2.982   3.557  0.7704  0.4543  0.8190
   46MOL   H37317563   4.926   3.042   3.714  0.8482 -1.0761  0.7256
   46MOL   H37417564   5.007   2.782   3.643  0.3264  0.7002 -1.2732
   46MOL   H37517565   4.932   2.813   3.799  1.9410  2.5007 -0.3791
   46MOL   H37617566   4.813   2.658   3.577 -0.4471  0.5997 -0.5762
   46MOL   H37717567   4.782   2.666   3.749  0.0943  0.1656 -0.7399
   46MOL   H37817568   4.589   2.775   3.685  1.8130 -1.6542  0.1023
   46MOL   H37917569   4.656   2.832   3.534  0.7613  0.3954 -0.1090
   46MOL   H38017570   4.416   3.130   3.618 -0.2449 -0.6603  1.5265
   46MOL   H38117571   4.491   3.099   3.761  3.2796  1.3575  0.7562
   46MOL   H38217572   4.470   2.963   3.657  3.0226 -1.1063  1.3659
   47MOL     C117573   3.624   1.304   4.407 -0.2978  0.0206  0.9689
   47MOL     C217574   3.535   1.399   4.488  0.3648  0.3687 -0.3666
   47MOL     C317575   3.585   1.422   4.636  1.0100  0.3094 -0.1817
   47MOL     C417576   3.454   1.444   4.712  0.1219 -0.2879  0.7568
   47MOL     C517577   3.334   1.405   4.630 -0.9690  0.3331  0.6021
   47MOL     C617578   3.395   1.334   4.508 -0.4240  0.5639 -0.0787
   47MOL     C717579   3.616   1.313   4.252 -0.3217  0.2538 -0.1057
   47MOL     H817580   3.725   1.344   4.420 -0.1462  0.1664 -0.5221
   47MOL     H917581   3.534   1.495   4.437 -0.6166  0.4388 -0.2152
   47MOL    H1017582   3.625   1.326   4.670  0.8768  1.1970  2.6400
   47MOL    H1117583   3.655   1.505   4.632  2.8180 -1.2634 -1.6453
   47MOL    H1217584   3.446   1.390   4.806  2.2083  0.9358  1.6838
   47MOL    H1317585   3.450   1.548   4.746 -0.6339  0.5118 -1.6854
   47MOL    H1417586   3.287   1.327   4.690  0.6561  0.1171  1.6331
   47MOL    H1517587   3.273   1.485   4.589  0.9560  0.7470 -1.5600
   47MOL    H1617588   3.338   1.340   4.416  0.3178  0.1713 -0.5717
   47MOL    H1717589   3.399   1.225   4.519  1.8242  0.6761  0.4601
   47MOL    H1817590   3.514   1.316   4.214  0.0740 -0.3008 -1.2183
   47MOL    H1917591   3.656   1.410   4.223 -1.0915  1.1288  1.6656
   47MOL    H2017592   3.630   1.200   4.439  0.8138  0.0425  0.8598
   47MOL    C2117593   3.692   1.200   4.180 -0.2899 -0.0104 -0.3552
   47MOL    C2217594   3.843   1.200   4.177  0.0824  0.2846 -0.1200
   47MOL    C2317595   3.911   1.336   4.171  0.2298  0.0652 -0.3076
   47MOL    C2417596   4.051   1.310   4.117 -0.5532  0.0942 -0.2602
   47MOL    C2517597   4.041   1.181   4.035 -0.4917 -0.5999  0.5464
   47MOL    C2617598   3.894   1.139   4.047 -0.7948 -0.0786 -0.1279
   47MOL    C2717599   3.629   1.055   4.199  0.1168  0.1752  0.1331
   47MOL    H2817600   3.663   1.218   4.077  1.4575  3.5516 -0.2975
   47MOL    H2917601   3.877   1.143   4.264  2.6494  0.7254 -0.7945
   47MOL    H3017602   3.921   1.386   4.267 -0.0536  1.7521 -1.1273
   47MOL    H3117603   3.859   1.408   4.107 -0.3557  0.9920  1.1934
   47MOL    H3217604   4.099   1.389   4.060 -1.7306  1.7797  1.0389
   47MOL    H3317605   4.117   1.295   4.203 -0.9932 -1.4559 -0.1598
   47MOL    H3417606   4.112   1.108   4.075  1.5274  1.6312  1.1740
   47MOL    H3517607   4.078   1.207   3.936 -1.2208  4.0399  1.3707
   47MOL    H3617608   3.893   1.030   4.037 -3.6803 -0.0854 -0.1544
   47MOL    H3717609   3.841   1.163   3.955  2.3000  2.7849 -1.2470
   47MOL    H3817610   3.683   0.993   4.127  0.0102  0.4218 -0.1608
   47MOL    H3917611   3.659   1.015   4.296  0.8139 -1.9928 -0.9416
   47MOL    C4017612   3.481   1.035   4.167  0.3384 -0.6195  0.4730
   47MOL    C4117613   3.464   1.019   4.006  0.4668 -0.6519 -1.0479
   47MOL    C4217614   3.317   1.033   3.967 -0.3538 -0.3227 -0.2185
   47MOL    C4317615   3.294   0.929   3.854  0.6364  0.0967 -0.5185
   47MOL    C4417616   3.434   0.879   3.818 -0.3758 -0.3947  0.7231
   47MOL    C4517617   3.510   0.881   3.944  0.2710 -0.0760 -0.5525
   47MOL    C4617618   3.423   0.918   4.252  0.1596  0.8028 -0.1966
   47MOL    H4717619   3.429   1.126   4.195 -1.0817 -1.1006 -0.5267
   47MOL    H4817620   3.522   1.101   3.964  0.4751  1.3711  2.6139
   47MOL    H4917621   3.306   1.134   3.926  0.2938 -0.0662  0.2337
   47MOL    H5017622   3.246   1.029   4.050 -0.0689 -0.1591  0.0340
   47MOL    H5117623   3.243   0.969   3.767  2.3289  1.1303 -1.0727
   47MOL    H5217624   3.244   0.840   3.891  0.1080  0.3220 -0.6969
   47MOL    H5317625   3.423   0.785   3.765  1.4341 -0.7830  0.9916
   47MOL    H5417626   3.479   0.951   3.750  4.2215 -0.5764  3.3201
   47MOL    H5517627   3.477   0.800   4.009  1.4854  1.5237  2.1811
   47MOL    H5617628   3.615   0.861   3.924 -0.0841  0.8861 -3.5331
   47MOL    H5717629   3.348   0.859   4.200  0.0332 -0.6780  1.5820
   47MOL    H5817630   3.503   0.847   4.274 -0.0552 -0.3107 -2.8550
   47MOL    C5917631   3.371   0.954   4.389  0.1179  1.0216 -0.0770
   47MOL    C6017632   3.228   0.996   4.374  0.0581 -0.1195 -0.4426
   47MOL    C6117633   3.164   1.059   4.499 -0.5527  0.5873  0.6656
   47MOL    C6217634   3.012   1.031   4.495 -0.4655  0.1593 -0.1788
   47MOL    C6317635   3.016   0.886   4.441 -0.3283 -0.4605 -0.4308
   47MOL    C6417636   3.128   0.886   4.334  0.6007  0.8830 -0.3448
   47MOL    C6517637   3.396   0.836   4.485  0.0001  0.8922  0.3765
   47MOL    H6617638   3.437   1.036   4.418  0.3478  1.0252 -0.6049
   47MOL    H6717639   3.212   1.064   4.290  2.1490  2.6444  1.3131
   47MOL    H6817640   3.180   1.166   4.499  1.8605  0.2411  0.8078
   47MOL    H6917641   3.195   0.999   4.585 -0.1778 -2.1530 -1.2867
   47MOL    H7017642   2.958   1.093   4.424 -0.3129 -0.1261 -0.5421
   47MOL    H7117643   2.966   1.042   4.594  0.2383  1.0564  0.0588
   47MOL    H7217644   2.923   0.845   4.402 -0.1792  0.2541 -1.5583
   47MOL    H7317645   3.047   0.829   4.529 -1.2594  0.2232  0.3469
   47MOL    H7417646   3.175   0.790   4.312  0.2821  0.8548 -0.8968
   47MOL    H7517647   3.086   0.921   4.240 -0.2998  0.3656 -0.1363
   47MOL    H7617648   3.397   0.741   4.432 -0.4340  1.8671 -1.4278
   47MOL    H7717649   3.323   0.835   4.567  0.5296  1.2356  0.8553
   47MOL    C7817650   3.536   0.832   4.557  0.0889 -0.0093 -0.1886
   47MOL    C7917651   3.573   0.961   4.643 -0.1314 -0.6872 -0.2508
   47MOL    C8017652   3.709   0.957   4.716 -0.1780  0.6440  0.0242
   47MOL    C8117653   3.684   0.987   4.858  0.4010 -0.2458  0.7855
   47MOL    C8217654   3.549   1.061   4.851 -0.0292  0.0438  0.3373
   47MOL    C8317655   3.467   0.991   4.752  0.7154  0.5124 -0.2489
   47MOL    C8417656   3.554   0.706   4.644 -0.4007  0.2880  0.5593
   47MOL    H8517657   3.614   0.820   4.482 -1.2352 -1.2346 -1.3978
   47MOL    H8617658   3.564   1.048   4.578  1.0032 -1.6304 -1.7057
   47MOL    H8717659   3.777   1.033   4.677 -0.3013  1.2872  1.0500
   47MOL    H8817660   3.765   0.865   4.695 -1.0882  0.7465 -3.0819
   47MOL    H8917661   3.763   1.046   4.904 -1.1810 -1.1585  4.8206
   47MOL    H9017662   3.684   0.886   4.900  1.1397 -0.7680 -0.4357
   47MOL    H9117663   3.501   1.060   4.949  0.8048  2.8263  0.8148
   47MOL    H9217664   3.566   1.166   4.828 -2.5504  0.7712  1.5854
   47MOL    H9317665   3.421   0.899   4.789  1.1636  0.6042  0.5458
   47MOL    H9417666   3.381   1.044   4.711  0.6972  0.8050  0.1725
   47MOL    H9517667   3.465   0.688   4.703  1.1913 -2.9092  2.1151
   47MOL    H9617668   3.638   0.712   4.714  1.8298 -0.6105 -1.9257
   47MOL    C9717669   3.597   0.585   4.562 -0.4629 -0.2832 -0.5047
   47MOL    C9817670   3.540   0.450   4.600 -0.1565 -0.3208 -0.0669
   47MOL    C9917671   3.559   0.408   4.742 -0.3747 -0.1543  0.1669
   47MOL   C10017672   3.463   0.290   4.758 -0.0896  0.0310 -0.0493
   47MOL   C10117673   3.353   0.313   4.653 -0.4499 -0.0979 -0.3834
   47MOL   C10217674   3.386   0.444   4.584 -0.6154 -0.1163  0.9472
   47MOL   C10317675   3.750   0.583   4.540  0.1984  0.5467  0.0776
   47MOL   H10417676   3.554   0.589   4.462  0.6237  2.5512 -0.8919
   47MOL   H10517677   3.587   0.367   4.548  3.4776  0.6515  1.5159
   47MOL   H10617678   3.662   0.379   4.762 -0.4190 -2.6569 -2.8406
   47MOL   H10717679   3.519   0.492   4.799 -1.6087  0.0560 -0.9800
   47MOL   H10817680   3.435   0.298   4.863 -0.0140  0.7490 -0.0832
   47MOL   H10917681   3.512   0.196   4.730  0.6347  0.0517  1.1288
   47MOL   H11017682   3.254   0.313   4.697 -0.7195 -0.3636 -0.9876
   47MOL   H11117683   3.356   0.231   4.580 -2.9643 -1.2438  0.7655
   47MOL   H11217684   3.359   0.445   4.478  0.8671  0.9387  0.5647
   47MOL   H11317685   3.338   0.533   4.623 -0.3340  0.4172  0.0966
   47MOL   H11417686   3.794   0.682   4.529 -1.3035  0.9398 -2.6290
   47MOL   H11517687   3.783   0.542   4.636 -0.4796 -0.5881 -0.1675
   47MOL   C11617688   3.793   0.493   4.415  0.0004 -0.8002  0.4304
   47MOL   C11717689   3.758   0.561   4.285 -0.4592  0.4343  0.6622
   47MOL   C11817690   3.844   0.688   4.247 -0.5913  0.1787  0.1880
   47MOL   C11917691   3.819   0.707   4.099  0.0631  0.4696 -0.4232
   47MOL   C12017692   3.833   0.562   4.045  0.1081 -0.2401  0.0301
   47MOL   C12117693   3.768   0.472   4.154 -0.2185 -0.5778 -0.4072
   47MOL   C12217694   3.943   0.468   4.417 -0.5448 -0.0870 -0.2601
   47MOL   H12317695   3.734   0.402   4.420 -0.9296 -0.5499 -4.2745
   47MOL   H12417696   3.657   0.600   4.292 -0.2818  0.5446  2.7652
   47MOL   H12517697   3.820   0.775   4.308 -1.4688  0.7063 -0.9020
   47MOL   H12617698   3.951   0.665   4.250 -0.3457  1.4282  1.1769
   47MOL   H12717699   3.902   0.767   4.063  0.1642  1.3931  1.2887
   47MOL   H12817700   3.725   0.759   4.080 -1.0989 -0.9230  1.2857
   47MOL   H12917701   3.939   0.540   4.035 -0.3990 -2.4304 -0.7872
   47MOL   H13017702   3.787   0.561   3.947  2.4669 -0.4811 -1.1137
   47MOL   H13117703   3.668   0.449   4.118 -0.6310  0.4270  0.0860
   47MOL   H13217704   3.831   0.384   4.166 -1.8010 -1.5102  1.2478
   47MOL   H13317705   3.992   0.561   4.447  1.7002 -2.0076  2.2446
   47MOL   H13417706   3.986   0.445   4.320 -2.0910  0.7094 -1.1502
   47MOL   C13517707   3.993   0.359   4.518  0.0081  0.0526  0.2979
   47MOL   C13617708   4.121   0.411   4.598 -0.8781  0.2000 -0.3664
   47MOL   C13717709   4.108   0.537   4.685 -0.4186 -0.4111 -0.4603
   47MOL   C13817710   4.252   0.563   4.727 -0.3631 -0.0057  0.1153
   47MOL   C13917711   4.341   0.511   4.621  0.2472 -0.1820  0.6815
   47MOL   C14017712   4.245   0.455   4.515 -0.6030 -0.6666 -0.8828
   47MOL   C14117713   4.019   0.220   4.453  0.2686 -0.0492  0.1609
   47MOL   H14217714   3.912   0.335   4.587 -2.4042 -0.8710 -2.7471
   47MOL   H14317715   4.147   0.335   4.672 -0.4423  0.6644 -0.0437
   47MOL   H14417716   4.070   0.624   4.631  0.2778  0.4548  0.4454
   47MOL   H14517717   4.045   0.529   4.773 -1.2112  0.3737 -0.9495
   47MOL   H14617718   4.271   0.505   4.817 -0.7673 -1.9337 -1.0194
   47MOL   H14717719   4.267   0.663   4.768 -3.0534  0.8060 -0.7407
   47MOL   H14817720   4.401   0.429   4.659  1.7112 -0.6190 -2.4135
   47MOL   H14917721   4.412   0.574   4.566 -0.0967 -0.0744  0.3600
   47MOL   H15017722   4.234   0.537   4.444 -1.6600 -0.4115 -0.4352
   47MOL   H15117723   4.281   0.369   4.459  2.5247  0.3559 -0.5333
   47MOL   H15217724   4.072   0.162   4.528  1.9636  0.2578 -0.7744
   47MOL   H15317725   4.101   0.240   4.385 -0.4390  1.2316 -0.3427
   47MOL   C15417726   3.906   0.145   4.387  0.3262 -0.3280 -0.0444
   47MOL   C15517727   3.958   0.039   4.288  0.2578  0.1965 -0.1892
   47MOL   C15617728   4.058   7.625   4.341 -0.8513 -0.5679 -0.1249
   47MOL   C15717729   4.162   7.604   4.238  0.9967 -0.6994 -0.1981
   47MOL   C15817730   4.184   0.049   4.175  0.0958  0.4085  0.0388
   47MOL   C15917731   4.036   0.099   4.165 -0.1904  0.3742  0.0737
   47MOL   C16017732   3.803   0.096   4.491 -0.6880 -0.4362 -0.4153
   47MOL   H16117733   3.854   0.221   4.328 -0.7762 -0.6576  0.4954
   47MOL   H16217734   3.872   7.678   4.245 -0.3645  0.4661  0.7241
   47MOL   H16317735   4.108   7.658   4.432 -0.0745  0.6604 -0.9874
   47MOL   H16417736   4.009   7.528   4.352 -1.3126 -0.4455 -1.1095
   47MOL   H16517737   4.253   7.560   4.281  0.4994 -0.2400  1.3512
   47MOL   H16617738   4.116   7.532   4.170  0.3977 -1.3218  0.8546
   47MOL   H16717739   4.218   0.046   4.071  0.8067 -2.3074  0.3156
   47MOL   H16817740   4.250   0.121   4.224 -1.9397  0.5554  2.6839
   47MOL   H16917741   3.993   0.057   4.074  1.6707  2.7934 -1.9810
   47MOL   H17017742   4.037   0.206   4.145  4.1141  1.0060  2.9107
   47MOL   H17117743   3.760   0.175   4.553  0.6961 -0.2617  0.3348
   47MOL   H17217744   3.859   0.033   4.560  0.7992 -1.0161 -2.1205
   47MOL   C17317745   3.686   0.013   4.435  0.5543 -0.6520 -0.7231
   47MOL   C17417746   3.611   0.062   4.314 -0.4808  0.3731 -0.7967
   47MOL   C17517747   3.508   0.169   4.340  0.1224 -0.0887 -0.3776
   47MOL   C17617748   3.375   0.122   4.284  0.6278 -1.1338 -0.4255
   47MOL   C17717749   3.411   0.011   4.181 -0.4281 -0.3497 -0.0824
   47MOL   C17817750   3.537   7.634   4.250  0.2488  0.7096  0.5046
   47MOL   C17917751   3.592   7.651   4.549 -0.4329  0.8687  0.5916
   47MOL   H18017752   3.733   7.609   4.403 -2.0415 -2.6089  0.9271
   47MOL   H18117753   3.680   0.093   4.235  1.1878 -1.9195 -0.2994
   47MOL   H18217754   3.546   0.259   4.291  1.4894  0.8876  2.3419
   47MOL   H18317755   3.509   0.187   4.448 -1.5366 -0.1127 -0.3400
   47MOL   H18417756   3.317   0.072   4.362 -0.1701 -2.3818 -1.7823
   47MOL   H18517757   3.320   0.209   4.248  1.7335 -0.3050 -0.1142
   47MOL   H18617758   3.449   0.061   4.092  0.0922 -0.7337 -0.0791
   47MOL   H18717759   3.328   7.634   4.157 -0.8969  0.0123  0.5205
   47MOL   H18817760   3.496   7.561   4.320 -0.6368  1.3069  0.6234
   47MOL   H18917761   3.598   7.576   4.182 -1.2184 -0.2091 -0.0630
   47MOL   H19017762   3.634   0.003   4.641  0.2019  0.3502  0.5398
   47MOL   H19117763   3.490   7.683   4.531 -0.0067  1.3095 -1.0610
   47MOL   C19217764   3.602   7.496   4.572 -0.4240 -0.1494 -0.2828
   47MOL   C19317765   3.484   7.437   4.657 -0.6719 -0.5393 -0.3410
   47MOL   C19417766   3.353   7.427   4.585 -0.3598 -0.0683  0.6008
   47MOL   C19517767   3.240   7.433   4.683  0.5597 -0.6360 -0.0212
   47MOL   C19617768   3.294   7.547   4.770 -0.1987 -0.0081 -1.3861
   47MOL   C19717769   3.447   7.518   4.787  0.5596 -0.0575 -0.5954
   47MOL   C19817770   3.748   7.458   4.627 -0.6217 -0.6376 -0.0019
   47MOL   H19917771   3.589   7.455   4.472  0.7586  0.5800 -0.7438
   47MOL   H20017772   3.507   7.335   4.689 -2.1625 -0.8204 -0.0977
   47MOL   H20117773   3.362   7.330   4.537  0.8601  0.8544 -1.1085
   47MOL   H20217774   3.340   7.502   4.506  0.1451 -0.4177  0.1808
   47MOL   H20317775   3.143   7.448   4.637  0.8416 -0.3284 -0.5228
   47MOL   H20417776   3.245   7.340   4.739 -2.7986 -2.5854 -2.7619
   47MOL   H20517777   3.243   7.557   4.866  1.0093  2.3335 -0.9598
   47MOL   H20617778   3.285   7.645   4.724  3.3089  0.5982 -0.9454
   47MOL   H20717779   3.457   7.459   4.878 -1.3823  0.0166 -0.3132
   47MOL   H20817780   3.500   7.612   4.797  1.0164 -0.1987 -1.6613
   47MOL   H20917781   3.821   7.529   4.589 -3.2162  0.4030 -3.3721
   47MOL   H21017782   3.738   7.470   4.735 -1.2115  1.4362 -0.2604
   47MOL   C21117783   3.782   7.313   4.612 -0.5060 -0.5184  0.0513
   47MOL   C21217784   3.861   7.284   4.487 -0.0137  0.0300  0.3375
   47MOL   C21317785   3.872   7.132   4.454 -0.3709 -1.3879 -0.0967
   47MOL   C21417786   3.906   7.114   4.308  0.5194  0.0452  0.9589
   47MOL   C21517787   3.872   7.256   4.246 -0.5492  0.7898  0.5195
   47MOL   C21617788   3.800   7.334   4.353 -0.5193 -0.6147  0.6067
   47MOL   C21717789   3.861   7.265   4.741  0.7379  0.0658  0.0929
   47MOL   H21817790   3.694   7.250   4.616 -2.4413  2.1845  2.3440
   47MOL   H21917791   3.963   7.321   4.495 -0.1057  0.2587  0.4540
   47MOL   H22017792   3.938   7.068   4.514 -0.5343 -0.8044  0.7161
   47MOL   H22117793   3.774   7.091   4.479  0.2414 -2.6688  0.2588
   47MOL   H22217794   4.004   7.079   4.276 -0.0829  0.2654 -1.2755
   47MOL   H22317795   3.842   7.036   4.265  0.8437  1.0557 -1.4651
   47MOL   H22417796   3.821   7.255   4.150  0.6831 -0.7373 -0.1407
   47MOL   H22517797   3.967   7.308   4.235  1.2089 -2.4281 -0.1605
   47MOL   H22617798   3.816   7.441   4.340 -0.1372 -0.4631  2.2041
   47MOL   H22717799   3.696   7.301   4.353 -0.4716 -0.7574  1.1447
   47MOL   H22817800   3.931   7.339   4.779 -1.3556  1.2260  1.8019
   47MOL   H22917801   3.927   7.183   4.711 -0.6162 -1.6030  1.5207
   47MOL   C23017802   3.767   7.210   4.845 -0.2581 -0.0491  0.2019
   47MOL   C23117803   3.836   7.214   4.985 -0.2788 -0.3123  0.0738
   47MOL   C23217804   3.967   7.151   5.015  0.0734  0.0857  0.2856
   47MOL   C23317805   4.033   7.249   5.116 -0.0490  0.3316  0.1736
   47MOL   C23417806   3.921   7.341   5.165  0.5847  0.3357 -0.6688
   47MOL   C23517807   3.839   7.361   5.042 -0.2631 -0.6501 -0.2024
   47MOL   C23617808   3.740   7.064   4.797  0.3241 -0.2349  0.0513
   47MOL   H23717809   3.676   7.270   4.851 -1.4746 -1.7897 -0.5067
   47MOL   H23817810   3.761   7.176   5.055 -2.1363  1.7424 -0.7437
   47MOL   H23917811   3.948   7.050   5.051  1.2646 -0.2490  0.0091
   47MOL   H24017812   4.033   7.142   4.928  1.4035 -2.3730  1.4954
   47MOL   H24117813   4.085   7.198   5.197 -0.1686  0.6434  0.4483
   47MOL   H24217814   4.099   7.321   5.068  0.1498  1.4335  2.0399
   47MOL   H24317815   3.952   7.434   5.210  2.0947 -1.0506  1.2339
   47MOL   H24417816   3.863   7.283   5.237  1.2411  0.8095  0.2382
   47MOL   H24517817   3.888   7.434   4.977 -0.7765 -1.2985 -1.3208
   47MOL   H24617818   3.743   7.404   5.071 -0.0036 -0.1804 -0.0440
   47MOL   H24717819   3.838   7.018   4.808  0.3760 -0.7635 -2.3068
   47MOL   H24817820   3.710   7.063   4.692 -1.2865 -0.4483  0.5044
   47MOL   C24917821   3.621   6.991   4.861  0.7029  0.0722 -0.4341
   47MOL   C25017822   3.630   6.832   4.850 -0.1343 -0.1120 -0.2178
   47MOL   C25117823   3.752   6.766   4.911  0.3192  0.2416 -0.4132
   47MOL   C25217824   3.835   6.704   4.803  0.0159 -0.2308  0.3228
   47MOL   C25317825   3.732   6.666   4.689 -0.7174  0.2019  0.3239
   47MOL   C25417826   3.625   6.772   4.712 -0.1390  0.2283 -0.4620
   47MOL   C25517827   3.490   7.058   4.804  0.8174  0.4944  0.1149
   47MOL   H25617828   3.632   7.029   4.962 -0.1328  0.9429 -0.6619
   47MOL   H25717829   3.540   6.799   4.901  0.8532  0.6845  2.1195
   47MOL   H25817830   3.731   6.693   4.990 -2.6617  2.6485  1.1715
   47MOL   H25917831   3.811   6.836   4.971  0.5431  0.6096 -1.0552
   47MOL   H26017832   3.885   6.613   4.836  1.5283 -0.4586 -2.3883
   47MOL   H26117833   3.909   6.778   4.773 -0.7794 -0.7564 -3.1532
   47MOL   H26217834   3.699   6.564   4.708 -2.0371  0.4040 -0.8481
   47MOL   H26317835   3.788   6.668   4.596  0.3650  0.2833  0.9593
   47MOL   H26417836   3.530   6.733   4.676  0.2956 -1.2413 -0.0177
   47MOL   H26517837   3.643   6.851   4.638  1.8467  0.5046  0.2836
   47MOL   H26617838   3.509   7.164   4.790 -2.6871  1.3882  1.6778
   47MOL   H26717839   3.473   7.020   4.703 -0.1507  2.8442 -0.6465
   47MOL   C26817840   3.362   7.048   4.889  0.9358  0.3988  0.7348
   47MOL   C26917841   3.371   7.130   5.017 -0.2664  0.4029 -0.2390
   47MOL   C27017842   3.448   7.078   5.141  0.0671  0.2893  0.2922
   47MOL   C27117843   3.350   7.095   5.262  0.1917  0.0310  1.3705
   47MOL   C27217844   3.265   7.211   5.216 -0.5726 -0.3783  0.5513
   47MOL   C27317845   3.236   7.195   5.066 -0.2873  0.4457  0.8361
   47MOL   C27417846   3.296   6.908   4.906  0.6207 -0.5046  1.0022
   47MOL   H27517847   3.290   7.100   4.825  1.2944  1.2564  1.0142
   47MOL   H27617848   3.438   7.209   4.984 -0.3871 -0.0347 -1.5352
   47MOL   H27717849   3.474   6.972   5.140 -0.4171  0.1737 -0.6264
   47MOL   H27817850   3.546   7.126   5.149  1.4202 -2.5178  1.4665
   47MOL   H27917851   3.293   7.004   5.275 -0.4068  0.0467 -0.9799
   47MOL   H28017852   3.404   7.130   5.350  0.1399  2.6136  0.4251
   47MOL   H28117853   3.325   7.294   5.254 -0.4155 -0.3117  0.1611
   47MOL   H28217854   3.170   7.221   5.268 -0.5508 -1.9014  0.9089
   47MOL   H28317855   3.212   7.290   5.017  0.5845 -0.2250 -0.9627
   47MOL   H28417856   3.158   7.120   5.060 -0.4277  0.6992 -0.7996
   47MOL   H28517857   3.207   6.928   4.966 -0.1173 -1.4724  0.2514
   47MOL   H28617858   3.361   6.860   4.979  2.4762  2.9309  1.7218
   47MOL   C28717859   3.270   6.819   4.775  0.5931 -0.1758 -0.3169
   47MOL   C28817860   3.227   6.679   4.812  0.1431  0.1751  0.4590
   47MOL   C28917861   3.337   6.593   4.885 -0.8875  0.0973 -0.2230
   47MOL   C29017862   3.264   6.479   4.960  0.5217 -0.0824 -0.5143
   47MOL   C29117863   3.121   6.520   4.970  0.3464 -1.1967  0.4807
   47MOL   C29217864   3.102   6.655   4.900 -0.2743  0.4122  0.2166
   47MOL   C29317865   3.160   6.884   4.681 -0.5081  0.5179  0.8353
   47MOL   H29417866   3.357   6.819   4.710  0.2424 -1.3977 -0.7945
   47MOL   H29517867   3.212   6.622   4.721 -1.0598  0.1757  0.6437
   47MOL   H29617868   3.411   6.554   4.816 -1.2902 -2.3666  0.6696
   47MOL   H29717869   3.399   6.657   4.947  1.7828 -2.0702 -0.5995
   47MOL   H29817870   3.264   6.386   4.904 -0.3124 -1.0847  1.1097
   47MOL   H29917871   3.317   6.452   5.052  0.7950  1.9366 -0.0459
   47MOL   H30017872   3.102   6.538   5.076 -0.9947  0.1501  0.0352
   47MOL   H30117873   3.055   6.445   4.925 -1.4497 -0.5592  1.9618
   47MOL   H30217874   3.104   6.734   4.975  0.2916  2.2436 -1.6661
   47MOL   H30317875   3.006   6.679   4.854  0.4966  0.7026 -1.2721
   47MOL   H30417876   3.186   6.989   4.666 -1.1166  0.4356 -0.9003
   47MOL   H30517877   3.067   6.884   4.736 -0.9529  2.0388  0.1019
   47MOL   C30617878   3.122   6.814   4.538 -0.0903 -0.3589 -0.7738
   47MOL   C30717879   2.984   6.856   4.482  0.1714  0.3296  0.1150
   47MOL   C30817880   2.861   6.809   4.557 -0.5561 -0.4891  0.1828
   47MOL   C30917881   2.748   6.894   4.498  0.4777  0.6294 -0.1316
   47MOL   C31017882   2.815   7.030   4.463 -0.0436  0.3023 -0.6294
   47MOL   C31117883   2.965   7.010   4.474  0.2877  0.1466  0.2289
   47MOL   C31217884   3.235   6.824   4.427  0.3362  0.1494 -0.6459
   47MOL   H31317885   3.103   6.712   4.571 -1.0405  0.4419  1.2307
   47MOL   H31417886   2.975   6.817   4.380 -2.0870 -1.1452  0.8312
   47MOL   H31517887   2.876   6.834   4.662  1.2430 -1.7734  0.2556
   47MOL   H31617888   2.837   6.702   4.557 -0.3890 -0.5271 -0.3957
   47MOL   H31717889   2.711   6.854   4.404  2.0717 -1.0317 -0.0799
   47MOL   H31817890   2.661   6.894   4.564  0.4700 -1.7157 -0.1005
   47MOL   H31917891   2.779   7.101   4.537 -3.6100 -0.7904 -1.2500
   47MOL   H32017892   2.788   7.068   4.364  0.2277  0.3773 -0.6768
   47MOL   H32117893   3.026   7.052   4.394  0.8138 -1.9587 -0.5000
   47MOL   H32217894   2.992   7.061   4.567  1.2574 -1.1697  0.6837
   47MOL   H32317895   3.293   6.913   4.453 -1.1497  1.7670 -2.6994
   47MOL   H32417896   3.199   6.855   4.329 -1.0656  0.9784  0.1148
   47MOL   C32517897   3.328   6.696   4.412  0.7530 -0.3549  0.6244
   47MOL   C32617898   3.442   6.720   4.314 -0.2833 -0.3049  0.7368
   47MOL   C32717899   3.554   6.816   4.349 -0.1824  0.1784  0.0890
   47MOL   C32817900   3.617   6.865   4.215  0.6274 -0.0115  0.2463
   47MOL   C32917901   3.544   6.790   4.105 -0.2603  0.6116 -0.6640
   47MOL   C33017902   3.405   6.748   4.166 -0.0692 -0.6265  0.2060
   47MOL   C33117903   3.254   6.570   4.358 -0.3165 -0.9342 -0.2736
   47MOL   H33217904   3.352   6.679   4.517 -0.2972  0.0251  0.9367
   47MOL   H33317905   3.505   6.631   4.308  0.3507  0.1939 -0.1189
   47MOL   H33417906   3.630   6.760   4.405 -0.6643  0.4894  1.0544
   47MOL   H33517907   3.515   6.898   4.409  2.2486  0.1337  1.8271
   47MOL   H33617908   3.723   6.847   4.198  0.4462 -1.8065  0.9027
   47MOL   H33717909   3.589   6.968   4.193  0.3540 -0.3673 -1.0991
   47MOL   H33817910   3.608   6.705   4.080 -0.0228  0.9535 -1.2441
   47MOL   H33917911   3.531   6.859   4.021 -2.5325  2.3549  1.0585
   47MOL   H34017912   3.354   6.664   4.118 -0.6363  0.8095 -1.8118
   47MOL   H34117913   3.335   6.830   4.149 -0.8400 -1.2671  0.2319
   47MOL   H34217914   3.316   6.519   4.283  2.1955  0.2452  0.9389
   47MOL   H34317915   3.172   6.602   4.293  0.1740 -0.5617 -0.7121
   47MOL   C34417916   3.214   6.454   4.447  0.5957 -0.8726  0.0648
   47MOL   C34517917   3.333   6.361   4.478  0.0055  1.1523 -0.0652
   47MOL   C34617918   3.303   6.278   4.611 -0.1871  0.2554  0.0188
   47MOL   C34717919   3.435   6.234   4.667  0.2429 -0.1494 -0.2814
   47MOL   C34817920   3.537   6.307   4.588 -0.4962  0.0978  0.0943
   47MOL   C34917921   3.468   6.416   4.507  0.0102  0.7379 -0.0493
   47MOL   C35017922   3.089   6.372   4.395 -0.1331  0.8329 -0.0095
   47MOL   H35117923   3.191   6.506   4.540 -2.5536 -2.7162  0.3661
   47MOL   H35217924   3.353   6.289   4.398  1.9376  1.9395 -0.3186
   47MOL   H35317925   3.238   6.193   4.595  1.0216 -1.1702  2.4904
   47MOL   H35417926   3.251   6.346   4.679 -0.0967  2.4902 -2.0878
   47MOL   H35517927   3.450   6.243   4.775  1.0937 -0.0098 -0.4077
   47MOL   H35617928   3.452   6.128   4.645 -0.7828 -0.3695 -0.0567
   47MOL   H35717929   3.591   6.242   4.520 -0.0048 -0.1610  0.7220
   47MOL   H35817930   3.610   6.355   4.653  3.8341 -0.7568 -3.9460
   47MOL   H35917931   3.461   6.507   4.567  0.2547  1.9071 -1.7598
   47MOL   H36017932   3.517   6.445   4.414  0.8762 -0.8714 -0.1148
   47MOL   H36117933   3.082   6.273   4.440  0.2682  1.6032  1.8056
   47MOL   H36217934   3.114   6.359   4.289 -1.1272  1.8266 -0.3760
   47MOL   C36317935   2.956   6.455   4.407  0.0117 -0.0629 -0.2673
   47MOL   C36417936   2.855   6.438   4.298  0.3574 -0.7022  0.6421
   47MOL   C36517937   2.816   6.294   4.267 -1.0419 -0.7980 -0.4147
   47MOL   C36617938   2.752   6.294   4.123  0.1547  0.0705  0.7226
   47MOL   C36717939   2.852   6.398   4.053 -0.0482 -0.6597  0.4846
   47MOL   C36817940   2.905   6.493   4.157 -0.6351 -1.1774  0.3434
   47MOL   C36917941   2.900   6.426   4.546 -0.1089  0.9095 -0.6919
   47MOL   H37017942   2.977   6.562   4.400  0.5458 -0.1726 -0.3485
   47MOL   H37117943   2.763   6.493   4.318  0.0152 -0.2535 -1.9704
   47MOL   H37217944   2.893   6.219   4.288  0.4162  0.9224  0.5884
   47MOL   H37317945   2.742   6.268   4.342  2.1106 -1.5217  2.6066
   47MOL   H37417946   2.745   6.196   4.076 -0.7075 -0.3860  1.8045
   47MOL   H37517947   2.655   6.342   4.135  0.8865  1.9057 -0.2582
   47MOL   H37617948   2.938   6.346   4.009  0.0113  1.5223 -2.0817
   47MOL   H37717949   2.785   6.443   3.980 -1.7341 -3.0140  0.5030
   47MOL   H37817950   2.853   6.588   4.147 -3.8426 -2.8361  0.2949
   47MOL   H37917951   3.013   6.501   4.146 -0.3559 -0.0361  3.5566
   47MOL   H38017952   2.804   6.477   4.560 -0.0597  0.7312  0.3643
   47MOL   H38117953   2.958   6.464   4.631 -1.0894  0.7785  0.0455
   47MOL   H38217954   2.874   6.323   4.570  2.6460  0.1491 -0.8563
   48MOL     C117955   3.846   3.441   7.177  0.4421  0.7392 -0.6356
   48MOL     C217956   4.000   3.429   7.150  0.6096 -0.6305 -0.5431
   48MOL     C317957   4.043   3.505   7.025  0.2848 -0.2135  0.3135
   48MOL     C417958   4.090   3.411   6.919 -0.7822  0.2035 -0.2428
   48MOL     C517959   4.145   3.292   6.999  0.3551 -0.1684 -0.5146
   48MOL     C617960   4.066   3.291   7.133  0.3549  0.1062 -0.1295
   48MOL     C717961   3.803   3.591   7.209 -0.2991  0.1547 -0.2681
   48MOL     H817962   3.793   3.391   7.096  0.6828  2.2691 -1.7657
   48MOL     H917963   4.052   3.483   7.228  1.8699 -1.9887 -0.4270
   48MOL    H1017964   3.957   3.553   6.978 -0.2408 -0.2182  1.2546
   48MOL    H1117965   4.106   3.593   7.043 -1.1218  0.8309  0.2121
   48MOL    H1217966   4.000   3.372   6.871 -1.9413  0.4103  1.7240
   48MOL    H1317967   4.144   3.459   6.837 -0.7208  0.8563  0.1720
   48MOL    H1417968   4.159   3.195   6.952  1.5894  1.3705 -3.4044
   48MOL    H1517969   4.246   3.314   7.035 -1.0749  0.6757  3.2792
   48MOL    H1617970   4.130   3.265   7.217 -0.8276 -0.1290  0.7240
   48MOL    H1717971   3.981   3.222   7.139  0.1913  0.2096 -1.2412
   48MOL    H1817972   3.850   3.627   7.301 -1.0211 -0.2520  0.2703
   48MOL    H1917973   3.840   3.661   7.134  0.7033  1.1355  1.1121
   48MOL    H2017974   3.826   3.371   7.257 -1.2762 -1.1190 -2.6326
   48MOL    C2117975   3.655   3.604   7.245  0.3465  0.2031 -0.2890
   48MOL    C2217976   3.569   3.608   7.119 -0.2454 -0.1569  0.0928
   48MOL    C2317977   3.429   3.669   7.128  1.1854  0.4761  0.6456
   48MOL    C2417978   3.340   3.605   7.028 -0.0727  0.0160  0.0200
   48MOL    C2517979   3.409   3.462   7.014  0.4627 -0.2967 -0.1422
   48MOL    C2617980   3.547   3.470   7.042  0.7277  0.5538 -0.8086
   48MOL    C2717981   3.617   3.509   7.355  0.3707  0.2690 -0.6369
   48MOL    H2817982   3.652   3.707   7.281 -0.3193  0.8669 -2.1982
   48MOL    H2917983   3.622   3.677   7.053 -0.5512  0.1236  0.1372
   48MOL    H3017984   3.425   3.777   7.118 -0.0157  0.8273  4.2406
   48MOL    H3117985   3.393   3.645   7.228 -1.0685 -0.1905 -0.3000
   48MOL    H3217986   3.236   3.602   7.063 -0.5379 -1.1297 -1.4261
   48MOL    H3317987   3.348   3.659   6.934 -0.6543 -0.3402 -0.2390
   48MOL    H3417988   3.392   3.415   6.917 -1.9650  0.3318 -0.0506
   48MOL    H3517989   3.361   3.396   7.086  0.2859 -1.4690 -1.3320
   48MOL    H3617990   3.602   3.482   6.949 -0.4922  0.4941 -1.5497
   48MOL    H3717991   3.578   3.382   7.099  0.4984  1.3950  0.6621
   48MOL    H3817992   3.515   3.535   7.385  1.1763  2.5027  0.2812
   48MOL    H3917993   3.612   3.404   7.324 -1.1010 -0.3009  1.3946
   48MOL    C4017994   3.697   3.508   7.492 -0.8333 -0.3739  0.0139
   48MOL    C4117995   3.724   3.644   7.560  0.3569 -0.7880 -0.2422
   48MOL    C4217996   3.839   3.636   7.663 -0.1685 -0.4413 -0.4356
   48MOL    C4317997   3.789   3.690   0.111 -0.0240  0.1099 -0.1065
   48MOL    C4417998   3.636   3.684   0.096  0.3730 -0.2663 -0.3040
   48MOL    C4517999   3.607   3.699   7.636 -0.5857  0.3062 -1.0772
   48MOL    C4618000   3.633   3.409   7.588  0.0297  0.0764  1.0241
   48MOL    H4718001   3.798   3.477   7.465 -0.8861  0.3072 -1.0156
   48MOL    H4818002   3.748   3.718   7.484 -3.2232 -1.8541 -2.5645
   48MOL    H4918003   3.924   3.693   7.628 -1.0037  0.2215 -1.4223
   48MOL    H5018004   3.876   3.535   7.681  2.2090  0.1607 -1.7274
   48MOL    H5118005   3.811   3.794   0.135 -0.0666 -0.2080  1.3744
   48MOL    H5218006   3.821   3.629   0.195 -1.0121 -1.2208 -0.6857
   48MOL    H5318007   3.599   3.593   0.145 -2.0132 -0.1685 -1.8523
   48MOL    H5418008   3.596   3.774   0.144 -1.5579 -1.3971  0.2725
   48MOL    H5518009   3.509   3.658   7.612 -0.1805  0.3057 -2.8252
   48MOL    H5618010   3.601   3.806   7.612  0.9084  0.8688  0.8896
   48MOL    H5718011   3.645   3.435   0.003  0.4823 -0.4465  1.1070
   48MOL    H5818012   3.525   3.416   7.578 -0.0668 -1.7006  0.5814
   48MOL    C5918013   3.682   3.265   7.561 -0.1941  0.0548 -0.2895
   48MOL    C6018014   3.812   3.237   7.649 -0.2681 -0.5165 -0.5264
   48MOL    C6118015   3.912   3.130   7.592  0.7638  0.9287 -0.4312
   48MOL    C6218016   3.988   3.083   0.024 -0.3357 -0.2649  0.0111
   48MOL    C6318017   3.935   3.154   0.147 -0.3830 -0.2462  0.0644
   48MOL    C6418018   3.798   3.203   0.107  0.3073 -0.2779 -0.4169
   48MOL    C6518019   3.570   3.160   7.583 -1.0585  0.6903  0.0218
   48MOL    H6618020   3.719   3.267   7.459  1.0055 -1.6420  0.0956
   48MOL    H6718021   3.865   3.331   7.651 -0.7448 -0.2687  2.4079
   48MOL    H6818022   3.968   3.198   7.527  0.0303 -0.1591 -2.2231
   48MOL    H6918023   3.866   3.045   7.543  3.1824 -1.0067  0.5404
   48MOL    H7018024   4.095   3.083   0.007 -0.7535  0.2489 -2.8798
   48MOL    H7118025   3.966   2.977   0.030  0.8511 -0.4860  0.5251
   48MOL    H7218026   4.001   3.234   0.180 -0.0097 -0.1588 -0.8801
   48MOL    H7318027   3.925   3.093   0.237 -0.3481  1.4819  1.2579
   48MOL    H7418028   3.727   3.121   0.116  0.0564  0.1121  1.4656
   48MOL    H7518029   3.770   3.285   0.173 -0.9086  0.9329 -2.3643
   48MOL    H7618030   3.524   3.182   7.679 -3.2563 -1.5650 -0.4614
   48MOL    H7718031   3.617   3.065   7.609  1.3283  1.5263 -1.0819
   48MOL    C7818032   3.482   3.138   7.457 -0.1538 -0.4871 -0.4637
   48MOL    C7918033   3.554   3.062   7.348 -0.1212  0.1280  0.3526
   48MOL    C8018034   3.486   3.028   7.219 -0.3271  0.2314 -0.2032
   48MOL    C8118035   3.579   2.919   7.161  0.0205 -0.1502  0.1672
   48MOL    C8218036   3.635   2.842   7.277  0.1010  0.6252  0.2713
   48MOL    C8318037   3.588   2.918   7.401  0.6070  0.0733  0.2285
   48MOL    C8418038   3.339   3.078   7.500 -0.0791  0.4393 -0.2334
   48MOL    H8518039   3.451   3.229   7.406 -0.3418 -0.4241 -0.2405
   48MOL    H8618040   3.647   3.114   7.326 -0.6203  1.5905  1.5949
   48MOL    H8718041   3.483   3.116   7.155  1.1712  3.4881  3.9735
   48MOL    H8818042   3.389   2.980   7.234  0.6348 -0.8804  2.8155
   48MOL    H8918043   3.663   2.963   7.107 -0.6288  1.8368  0.7265
   48MOL    H9018044   3.526   2.853   7.092  0.3820  0.5532 -0.8096
   48MOL    H9118045   3.606   2.737   7.264 -0.3285  0.9399 -1.5166
   48MOL    H9218046   3.744   2.842   7.270  0.1384 -1.9491  0.2178
   48MOL    H9318047   3.493   2.868   7.423 -0.9043  3.2855  1.2820
   48MOL    H9418048   3.661   2.906   7.480 -0.1045 -2.5810  0.5277
   48MOL    H9518049   3.356   3.009   7.582 -2.2501 -1.6677 -1.5075
   48MOL    H9618050   3.312   3.000   7.430  1.3750 -0.7194  0.4555
   48MOL    C9718051   3.221   3.173   7.520 -0.0997  0.3647  0.0951
   48MOL    C9818052   3.177   3.265   7.396  0.1223 -0.6493  0.8320
   48MOL    C9918053   3.180   3.195   7.253  0.2277  0.2511  0.2523
   48MOL   C10018054   3.086   3.283   7.167 -0.0251 -0.1060  0.0289
   48MOL   C10118055   3.000   3.362   7.260  0.3390  0.1843 -0.1417
   48MOL   C10218056   3.031   3.305   7.400  0.7063 -0.0218  0.5026
   48MOL   C10318057   3.247   3.264   7.644  0.0826 -0.7502 -0.3818
   48MOL   H10418058   3.128   3.118   7.536  0.5137 -0.0320  2.6282
   48MOL   H10518059   3.245   3.350   7.391  1.2834 -1.5360  1.2512
   48MOL   H10618060   3.277   3.190   7.205 -0.6337 -3.6507 -1.2356
   48MOL   H10718061   3.146   3.092   7.259 -0.5741  0.4253 -1.0507
   48MOL   H10818062   3.027   3.248   7.082 -2.5842  1.7840  0.9317
   48MOL   H10918063   3.158   3.349   7.118  0.1334 -1.5644 -1.7780
   48MOL   H11018064   2.896   3.346   7.233  0.6414  0.2541 -1.3408
   48MOL   H11118065   3.014   3.470   7.253 -2.1383  0.5958  0.8314
   48MOL   H11218066   3.005   3.366   7.487 -1.7014  0.5266 -0.5546
   48MOL   H11318067   2.967   3.218   7.414 -0.9621  0.7412 -2.1379
   48MOL   H11418068   3.344   3.309   7.621  0.6126 -0.8091  1.6686
   48MOL   H11518069   3.162   3.331   7.655 -0.3089 -1.5187  1.3249
   48MOL   C11618070   3.269   3.198   0.094 -0.2460  0.3121  0.3256
   48MOL   C11718071   3.337   3.306   0.185  0.0912 -0.0636 -0.5087
   48MOL   C11818072   3.249   3.435   0.210  0.4996  0.2294  0.0460
   48MOL   C11918073   3.282   3.465   0.358  0.4405  0.0347  0.1773
   48MOL   C12018074   3.294   3.329   0.420  0.2034  0.3454 -0.4144
   48MOL   C12118075   3.388   3.256   0.324  0.5759 -0.2018  0.1357
   48MOL   C12218076   3.137   3.133   0.152 -0.3787 -0.5062  0.6888
   48MOL   H12318077   3.349   3.125   0.080  0.4193  1.1283 -0.2014
   48MOL   H12418078   3.430   3.330   0.134  0.3457 -0.7684 -0.3917
   48MOL   H12518079   3.280   3.519   0.147 -1.0783 -0.5767 -1.8715
   48MOL   H12618080   3.143   3.411   0.198 -0.2878  2.0684  2.7069
   48MOL   H12718081   3.203   3.514   0.414  2.6618  2.8368  0.9392
   48MOL   H12818082   3.376   3.519   0.371  0.4756 -0.1478  0.7121
   48MOL   H12918083   3.200   3.274   0.418 -0.7088  1.7827  1.2062
   48MOL   H13018084   3.321   3.334   0.525 -0.6837  0.9476 -0.2113
   48MOL   H13118085   3.493   3.279   0.339  0.5969  0.5225 -1.0238
   48MOL   H13218086   3.378   3.148   0.332  2.2035 -0.4914 -1.3507
   48MOL   H13318087   3.067   3.183   0.085  1.3046 -1.4547 -1.8393
   48MOL   H13418088   3.119   3.180   0.248  0.6436  1.8172 -0.2160
   48MOL   C13518089   3.118   2.978   0.145  0.6767 -0.4804  0.2877
   48MOL   C13618090   2.962   2.934   0.141 -0.2090  0.6641 -0.2626
   48MOL   C13718091   2.938   2.782   0.135 -0.6071 -0.2743  0.0423
   48MOL   C13818092   2.804   2.760   0.066  0.1099 -0.4690 -0.3972
   48MOL   C13918093   2.756   2.900   0.032  0.0982  1.1681  0.0600
   48MOL   C14018094   2.874   2.988   0.026 -0.5856 -0.0027 -0.8879
   48MOL   C14118095   3.201   2.898   0.243 -0.6323  0.5279 -0.3913
   48MOL   H14218096   3.156   2.959   0.044  0.4607  0.7338 -0.0251
   48MOL   H14318097   2.916   2.978   0.230  0.1132  1.5903 -0.5426
   48MOL   H14418098   3.018   2.732   0.079  1.5694  2.6826  0.3834
   48MOL   H14518099   2.954   2.742   0.235 -0.4523 -0.9283 -0.2363
   48MOL   H14618100   2.731   2.693   0.111 -0.2318 -0.0499 -0.3236
   48MOL   H14718101   2.828   2.700   7.668 -1.7443 -0.5227 -0.8896
   48MOL   H14818102   2.680   2.947   0.094  0.2198  1.4625 -0.0101
   48MOL   H14918103   2.706   2.898   7.625  0.2355  1.3081 -0.0146
   48MOL   H15018104   2.922   2.977   7.619 -0.2893 -0.0802 -0.7334
   48MOL   H15118105   2.845   3.090   0.052  1.5583  0.6843 -1.0722
   48MOL   H15218106   3.137   2.846   0.314  0.6722  0.6244  0.8986
   48MOL   H15318107   3.260   2.962   0.308 -0.4890 -1.7098  1.7580
   48MOL   C15418108   3.304   2.783   0.194 -0.9222 -0.5325 -0.3515
   48MOL   C15518109   3.445   2.839   0.146  0.2067 -0.1748  0.1140
   48MOL   C15618110   3.528   2.733   0.067  0.1232 -0.0601 -0.0942
   48MOL   C15718111   3.676   2.778   0.088  0.1906 -0.1910 -0.0643
   48MOL   C15818112   3.679   2.840   0.227 -0.5824  0.4341  0.0822
   48MOL   C15918113   3.540   2.899   0.252  0.3487 -0.2749  0.1534
   48MOL   C16018114   3.316   2.679   0.304  0.4855  0.6415  0.1233
   48MOL   H16118115   3.264   2.728   0.108  2.6135 -0.9622 -1.7888
   48MOL   H16218116   3.427   2.919   0.074  2.2783  0.4170  0.2055
   48MOL   H16318117   3.521   2.640   0.123  2.5612  0.7099  1.5801
   48MOL   H16418118   3.502   2.712   7.653 -2.4112 -0.2518  0.5598
   48MOL   H16518119   3.740   2.692   0.072  0.0097 -0.0303 -1.7768
   48MOL   H16618120   3.707   2.863   0.027  0.6573  1.1173  1.9267
   48MOL   H16718121   3.765   2.906   0.240  0.4361 -0.4015 -2.1490
   48MOL   H16818122   3.693   2.766   0.305 -0.2418  0.6208  0.1988
   48MOL   H16918123   3.539   3.008   0.252 -1.5108 -0.2602  1.1279
   48MOL   H17018124   3.499   2.882   0.352  1.1388 -0.5347  0.4308
   48MOL   H17118125   3.300   2.728   0.400  0.9677  0.7199  0.1641
   48MOL   H17218126   3.420   2.648   0.317  0.1218 -2.2798 -3.2213
   48MOL   C17318127   3.224   2.556   0.293 -0.0306  0.6569  0.2315
   48MOL   C17418128   3.170   2.515   0.435 -0.0823 -0.0056  0.0582
   48MOL   C17518129   3.077   2.622   0.501  0.3323  0.2207  0.3790
   48MOL   C17618130   3.089   2.592   0.651 -0.1137  0.1481  0.0877
   48MOL   C17718131   3.239   2.556   0.669 -0.7681 -0.1073 -0.3471
   48MOL   C17818132   3.277   2.475   0.549 -0.4209 -0.6081 -0.0280
   48MOL   C17918133   3.305   2.438   0.221  0.2075  0.9375 -0.0982
   48MOL   H18018134   3.141   2.594   0.232 -1.1137 -3.3674 -0.9363
   48MOL   H18118135   3.106   2.431   0.409 -3.4733  2.8660 -1.3674
   48MOL   H18218136   2.974   2.607   0.466 -0.5126  2.6574  1.7031
   48MOL   H18318137   3.108   2.726   0.487 -2.4632  0.7952 -2.1917
   48MOL   H18418138   3.053   2.683   0.699 -0.9600 -0.1059 -0.0479
   48MOL   H18518139   3.019   2.514   0.683 -1.5498  1.5902  0.5348
   48MOL   H18618140   3.269   2.504   0.760 -1.8593  0.5826  0.4119
   48MOL   H18718141   3.288   2.653   0.681 -2.4873  0.6616  0.5514
   48MOL   H18818142   3.380   2.482   0.516 -0.4485 -2.2038 -0.4962
   48MOL   H18918143   3.255   2.373   0.582 -2.8899 -0.3132 -0.6173
   48MOL   H19018144   3.329   2.477   0.121 -0.9005 -0.0678 -0.7619
   48MOL   H19118145   3.404   2.432   0.265 -0.6304  1.4321  1.9146
   48MOL   C19218146   3.240   2.296   0.194  0.6447  0.0354 -0.6120
   48MOL   C19318147   3.088   2.293   0.150  0.3550  0.3968  0.6871
   48MOL   C19418148   3.018   2.159   0.136 -0.0640 -0.4637  0.4731
   48MOL   C19518149   2.908   2.163   0.027  0.0368 -0.8193 -0.2887
   48MOL   C19618150   2.904   2.313   7.674  0.3798  0.2141  0.0942
   48MOL   C19718151   3.052   2.355   0.009  0.5592  0.5285  0.3160
   48MOL   C19818152   3.257   2.210   0.330 -0.3774  0.7831  0.0395
   48MOL   H19918153   3.293   2.248   0.112  0.0345 -0.6708 -0.6029
   48MOL   H20018154   3.032   2.353   0.222 -0.9600  0.2825 -0.2030
   48MOL   H20118155   2.990   2.101   0.224 -1.1912 -0.3918  0.1688
   48MOL   H20218156   3.096   2.093   0.095  0.2569  0.4462 -0.3985
   48MOL   H20318157   2.920   2.089   7.637  0.5608  1.0130 -1.9464
   48MOL   H20418158   2.806   2.146   0.062 -0.2237 -0.3487 -0.8075
   48MOL   H20518159   2.836   2.370   0.047 -0.0445 -0.7171  0.4825
   48MOL   H20618160   2.875   2.322   7.569  1.3962 -3.9214 -0.6310
   48MOL   H20718161   3.064   2.463   0.016  0.5532  0.5757 -0.3928
   48MOL   H20818162   3.123   2.307   7.631 -0.6698 -2.0240  0.7749
   48MOL   H20918163   3.351   2.243   0.374  0.0648 -1.4409  0.8199
   48MOL   H21018164   3.175   2.234   0.398 -0.5923  1.5216 -0.4719
   48MOL   C21118165   3.287   2.057   0.332 -0.0487  0.2239  1.0152
   48MOL   C21218166   3.377   2.013   0.215  0.4360 -0.9271  0.7295
   48MOL   C21318167   3.524   2.060   0.222 -0.3299 -0.2267 -0.1752
   48MOL   C21418168   3.592   1.978   0.117 -0.2805 -0.0453 -0.2883
   48MOL   C21518169   3.515   1.844   0.108  0.0272 -0.6214 -0.0265
   48MOL   C21618170   3.383   1.870   0.181  0.2746 -0.0545 -0.4174
   48MOL   C21718171   3.334   2.010   0.472  0.4312 -0.0534  0.3443
   48MOL   H21818172   3.190   2.012   0.314  0.0059  0.6625 -0.4160
   48MOL   H21918173   3.337   2.047   0.120 -1.0680 -0.8474  1.3781
   48MOL   H22018174   3.537   2.167   0.209 -2.4328 -0.2159 -2.8290
   48MOL   H22118175   3.563   2.038   0.321 -0.6342  0.6522  0.1396
   48MOL   H22218176   3.595   2.027   0.020  1.9643 -3.1314 -1.8438
   48MOL   H22318177   3.693   1.954   0.149 -0.0582  1.0157 -0.1936
   48MOL   H22418178   3.574   1.765   0.155 -0.5426 -0.7605  0.4736
   48MOL   H22518179   3.503   1.809   0.006 -0.2261  0.3428 -0.3285
   48MOL   H22618180   3.288   1.849   0.132 -0.4940  2.2846  0.0132
   48MOL   H22718181   3.393   1.803   0.266  0.8017  0.9731  0.3312
   48MOL   H22818182   3.389   2.091   0.521 -1.5724  0.9285  0.9889
   48MOL   H22918183   3.411   1.934   0.461  1.6507  1.4992 -2.4593
   48MOL   C23018184   3.224   1.968   0.571 -0.2850  0.1517 -1.1379
   48MOL   C23118185   3.189   2.079   0.672  0.1175  0.0721 -0.1303
   48MOL   C23218186   3.053   2.059   0.740  0.8156  0.4243 -0.1788
   48MOL   C23318187   3.061   2.147   0.863  0.0743 -0.1840  0.2501
   48MOL   C23418188   3.214   2.175   0.885 -0.3551 -0.3008  0.4728
   48MOL   C23518189   3.294   2.106   0.777 -0.5636 -0.6515 -1.2531
   48MOL   C23618190   3.257   1.836   0.642 -0.1710 -0.2095  0.1659
   48MOL   H23718191   3.129   1.964   0.518 -0.8781  2.2458 -0.2648
   48MOL   H23818192   3.172   2.166   0.608 -0.4142 -1.0084 -1.4834
   48MOL   H23918193   2.971   2.097   0.679  1.4099  1.2767 -0.4496
   48MOL   H24018194   3.037   1.951   0.753  0.8331  0.6084  1.4589
   48MOL   H24118195   3.014   2.245   0.855 -1.1370 -0.6431  1.5306
   48MOL   H24218196   3.002   2.101   0.943 -0.2257  0.2556  0.2825
   48MOL   H24318197   3.251   2.146   0.983 -0.7781 -0.4530  0.5882
   48MOL   H24418198   3.221   2.284   0.888  1.1401 -0.3765  0.3744
   48MOL   H24518199   3.345   2.017   0.816 -0.6226 -1.0738 -2.1206
   48MOL   H24618200   3.371   2.168   0.732 -0.8268  0.0780 -0.6974
   48MOL   H24718201   3.188   1.804   0.719  1.7076 -1.0916  1.5396
   48MOL   H24818202   3.349   1.853   0.699 -0.3053  0.2586  0.2422
   48MOL   C24918203   3.271   1.706   0.550  0.4276  0.0283 -0.0018
   48MOL   C25018204   3.141   1.664   0.489  0.8701 -0.0363  0.0841
   48MOL   C25118205   3.023   1.640   0.580 -0.3818  0.1762  0.1174
   48MOL   C25218206   2.916   1.562   0.494  0.2182 -0.5777  0.4165
   48MOL   C25318207   2.976   1.540   0.353  0.0925 -0.5551  0.1747
   48MOL   C25418208   3.131   1.545   0.380  0.2460  0.2918 -0.5884
   48MOL   C25518209   3.321   1.590   0.646 -0.4514 -0.0907 -0.0856
   48MOL   H25618210   3.340   1.729   0.469  0.3573  0.4474  0.0573
   48MOL   H25718211   3.118   1.747   0.422 -0.4025 -0.4803 -0.0389
   48MOL   H25818212   2.976   1.727   0.626  0.6944  1.0895 -0.4797
   48MOL   H25918213   3.050   1.581   0.668  0.3755  1.5409  0.8155
   48MOL   H26018214   2.832   1.629   0.476  1.4829  0.6647 -1.0585
   48MOL   H26118215   2.893   1.465   0.538  0.4211 -0.7291  0.1905
   48MOL   H26218216   2.944   1.621   0.288  1.5126 -0.5440 -0.5254
   48MOL   H26318217   2.950   1.441   0.314 -2.1533  0.4923 -1.0711
   48MOL   H26418218   3.192   1.562   0.292  4.2347  1.5773  2.3097
   48MOL   H26518219   3.160   1.452   0.429 -2.4825  0.3961  1.3456
   48MOL   H26618220   3.259   1.584   0.735 -0.1220  1.0833  0.2280
   48MOL   H26718221   3.305   1.494   0.596  0.2641 -0.4110  0.2988
   48MOL   C26818222   3.470   1.585   0.679 -0.4722  0.4478 -0.1561
   48MOL   C26918223   3.563   1.578   0.546  0.1149  0.5959 -0.0446
   48MOL   C27018224   3.541   1.473   0.439 -0.4960  0.4346 -0.3139
   48MOL   C27118225   3.676   1.479   0.357  0.6863  0.3172 -1.2941
   48MOL   C27218226   3.781   1.493   0.467  0.1258  0.5117 -0.8444
   48MOL   C27318227   3.721   1.590   0.568 -0.4416 -0.8938 -0.3286
   48MOL   C27418228   3.511   1.475   0.785 -0.3558  0.0829 -0.1649
   48MOL   H27518229   3.490   1.677   0.736 -0.5549 -0.5209  1.4796
   48MOL   H27618230   3.536   1.672   0.499  0.8085  0.5150 -0.6070
   48MOL   H27718231   3.534   1.375   0.485  3.3294  0.4101  0.3470
   48MOL   H27818232   3.453   1.486   0.375 -0.4005 -1.2115 -0.8006
   48MOL   H27918233   3.697   1.391   0.296 -0.1338 -2.1781  1.8742
   48MOL   H28018234   3.672   1.572   0.300 -1.5637 -0.1717 -1.9755
   48MOL   H28118235   3.887   1.516   0.452 -0.0767  2.5603  0.6060
   48MOL   H28218236   3.782   1.402   0.526 -2.1490  0.1542 -1.3217
   48MOL   H28318237   3.776   1.684   0.566 -0.1092 -1.0657  0.4669
   48MOL   H28418238   3.735   1.562   0.672 -1.7944 -0.4141 -0.0042
   48MOL   H28518239   3.618   1.464   0.804 -0.0159  0.7028 -1.6746
   48MOL   H28618240   3.489   1.378   0.740  0.1914 -0.6031  1.0057
   48MOL   C28718241   3.447   1.485   0.925  0.2315 -0.8495 -0.1810
   48MOL   C28818242   3.372   1.354   0.968 -0.1649 -0.4693 -0.8934
   48MOL   C28918243   3.269   1.372   1.086 -0.3979 -0.2996 -0.4214
   48MOL   C29018244   3.205   1.232   1.093 -0.1550  0.4740  0.3305
   48MOL   C29118245   3.175   1.203   0.943  0.7600 -0.3962  0.0170
   48MOL   C29218246   3.288   1.273   0.865  0.2161  0.7690 -0.5936
   48MOL   C29318247   3.535   1.550   1.030 -0.4672  0.1676  0.2490
   48MOL   H29418248   3.358   1.547   0.908 -0.1645 -1.1193  0.9054
   48MOL   H29518249   3.441   1.284   1.015 -2.1509 -0.4199  2.2739
   48MOL   H29618250   3.308   1.404   1.183 -1.0937 -1.8837  0.4075
   48MOL   H29718251   3.198   1.452   1.065 -2.1659 -1.3663  1.2628
   48MOL   H29818252   3.276   1.155   1.126 -3.5633 -1.1400  4.3784
   48MOL   H29918253   3.123   1.234   1.164  0.2711 -1.1746  0.9001
   48MOL   H30018254   3.075   1.243   0.924  0.8202 -0.2965 -0.0939
   48MOL   H30118255   3.172   1.100   0.908  5.2729 -0.2056 -1.1615
   48MOL   H30218256   3.233   1.339   0.798 -1.0600 -0.5923 -0.9138
   48MOL   H30318257   3.343   1.210   0.795  0.6673  0.2043  0.2621
   48MOL   H30418258   3.631   1.501   1.010 -0.6099 -0.3416  0.7695
   48MOL   H30518259   3.513   1.527   1.135 -0.6998  1.6768  0.5382
   48MOL   C30618260   3.544   1.702   1.014  0.0927  0.1614  0.0301
   48MOL   C30718261   3.480   1.783   1.130 -0.0151 -0.4514 -0.1419
   48MOL   C30818262   3.334   1.738   1.171 -0.7167 -0.0361  0.0474
   48MOL   C30918263   3.321   1.793   1.314 -0.4078  0.0090  0.1815
   48MOL   C31018264   3.452   1.790   1.383 -0.4931  0.7529 -0.3542
   48MOL   C31118265   3.550   1.779   1.266 -0.5704  0.2440 -0.0465
   48MOL   C31218266   3.694   1.738   0.998  0.1753 -0.0721 -0.2891
   48MOL   H31318267   3.493   1.739   0.925  2.2321  0.0711 -1.2769
   48MOL   H31418268   3.473   1.888   1.103  2.4339 -0.2477 -0.1210
   48MOL   H31518269   3.325   1.630   1.184  1.3233 -0.2153  0.1398
   48MOL   H31618270   3.266   1.777   1.096 -0.4793  1.6515  0.6857
   48MOL   H31718271   3.295   1.899   1.312  2.5149  0.7632 -0.6000
   48MOL   H31818272   3.242   1.737   1.364  0.1041 -0.5124  0.4071
   48MOL   H31918273   3.454   1.694   1.435 -1.3440  0.4826 -0.8068
   48MOL   H32018274   3.471   1.876   1.447 -0.7793  1.2738 -0.9620
   48MOL   H32118275   3.625   1.856   1.282 -0.0652 -0.3778  0.6388
   48MOL   H32218276   3.607   1.687   1.280  0.4809  0.8914  0.0536
   48MOL   H32318277   3.730   1.691   0.907  0.7830 -0.1630  0.0008
   48MOL   H32418278   3.752   1.695   1.078  0.8714 -0.7063 -1.1250
   48MOL   C32518279   3.724   1.898   0.988 -0.8248 -0.3725 -0.5151
   48MOL   C32618280   3.654   1.967   0.871 -0.3216  0.4707 -0.0563
   48MOL   C32718281   3.701   1.917   0.735  0.6937  0.0042 -0.3635
   48MOL   C32818282   3.684   2.036   0.645 -0.0616  0.2678 -0.3707
   48MOL   C32918283   3.739   2.150   0.730  0.0307  0.1925 -0.0168
   48MOL   C33018284   3.669   2.120   0.866  0.2345  0.6962  0.3312
   48MOL   C33118285   3.877   1.915   0.981  0.0473 -0.5542 -0.2029
   48MOL   H33218286   3.695   1.955   1.076  0.4413 -0.4543 -0.0230
   48MOL   H33318287   3.548   1.944   0.881  0.1415 -2.2039 -0.6999
   48MOL   H33418288   3.650   1.830   0.694  0.4969  0.8780 -1.9873
   48MOL   H33518289   3.804   1.885   0.722  0.5686 -0.3973 -0.3967
   48MOL   H33618290   3.578   2.043   0.623 -0.7425  1.3366  2.8711
   48MOL   H33718291   3.727   2.022   0.546 -0.3500  0.3058 -0.4997
   48MOL   H33818292   3.711   2.250   0.696 -0.4835  0.5083  1.3140
   48MOL   H33918293   3.847   2.154   0.743  0.0170  1.1088 -0.1586
   48MOL   H34018294   3.568   2.163   0.866 -0.6784 -1.3449 -1.0554
   48MOL   H34118295   3.740   2.164   0.935  1.8450 -0.5882 -0.4916
   48MOL   H34218296   3.906   2.012   0.940 -1.1770 -0.9937 -2.1996
   48MOL   H34318297   3.919   1.836   0.919 -0.0439 -2.3747  1.9891
   48MOL   C34418298   3.949   1.900   1.114 -0.1863 -0.0718 -0.1917
   48MOL   C34518299   3.930   2.030   1.209 -0.7198  0.9523 -0.5920
   48MOL   C34618300   3.981   2.162   1.149  0.5407 -0.4828  0.1931
   48MOL   C34718301   4.021   2.256   1.268  0.2878  0.5612  0.1370
   48MOL   C34818302   4.028   2.166   1.385  0.3998  0.5457  0.1518
   48MOL   C34918303   3.994   2.020   1.352  0.6703  0.4364 -0.4015
   48MOL   C35018304   4.097   1.858   1.091 -0.3717 -0.6312  0.1076
   48MOL   H35118305   3.903   1.820   1.172  0.6366 -1.4553 -1.4356
   48MOL   H35218306   3.826   2.041   1.240 -1.2218 -1.8737 -1.1304
   48MOL   H35318307   3.902   2.196   1.082  1.2026 -2.7235 -1.8177
   48MOL   H35418308   4.072   2.146   1.092  1.5676 -0.6260  1.8458
   48MOL   H35518309   4.118   2.304   1.250  0.7864 -1.5424 -3.0526
   48MOL   H35618310   3.954   2.341   1.281 -1.5300 -0.5979 -1.5273
   48MOL   H35718311   3.953   2.206   1.454 -0.7467 -0.4210 -0.5035
   48MOL   H35818312   4.128   2.154   1.425  1.0202 -0.9634 -1.8016
   48MOL   H35918313   4.080   1.954   1.363 -0.6263 -0.7567  3.2421
   48MOL   H36018314   3.921   1.998   1.430  1.1970 -0.0117 -0.0354
   48MOL   H36118315   4.167   1.895   1.166 -0.7116  1.2043 -0.4439
   48MOL   H36218316   4.130   1.909   1.000  0.2575 -2.6464 -0.8245
   48MOL   C36318317   4.122   1.707   1.071 -0.2091 -0.5088 -0.1038
   48MOL   C36418318   4.240   1.686   0.978 -0.3287 -0.4624 -0.3028
   48MOL   C36518319   4.215   1.738   0.830  0.0813 -0.3424 -0.0358
   48MOL   C36618320   4.315   1.645   0.752 -0.0649  0.1124 -0.7239
   48MOL   C36718321   4.363   1.529   0.837  0.8494  0.0141 -0.2880
   48MOL   C36818322   4.268   1.539   0.955  0.4729 -0.0156 -0.1102
   48MOL   C36918323   4.145   1.659   1.213  0.0917  0.1702 -0.6759
   48MOL   H37018324   4.041   1.652   1.022 -0.7359  0.5072 -0.3939
   48MOL   H37118325   4.326   1.741   1.017 -1.1089  1.4538 -1.2234
   48MOL   H37218326   4.114   1.705   0.803 -1.1689 -0.0488  4.0523
   48MOL   H37318327   4.243   1.842   0.814  0.1644 -0.5220 -1.1294
   48MOL   H37418328   4.265   1.596   0.669  0.8273 -1.0452 -0.5809
   48MOL   H37518329   4.405   1.698   0.720  0.7553 -0.7490  0.1491
   48MOL   H37618330   4.365   1.430   0.791  2.8197 -0.6918  1.2550
   48MOL   H37718331   4.464   1.530   0.879  2.0699 -2.0968 -2.9744
   48MOL   H37818332   4.310   1.498   1.047  4.1727  5.2769  0.8371
   48MOL   H37918333   4.181   1.482   0.925  2.0347 -1.3735 -2.2032
   48MOL   H38018334   4.236   1.696   1.259  0.9250 -2.0143 -0.5060
   48MOL   H38118335   4.157   1.551   1.202 -0.5157  0.1163 -0.8865
   48MOL   H38218336   4.062   1.681   1.280  1.5048 -0.2245  1.2189
   49MOL     C118337   7.496   7.373   0.698 -0.7546 -0.0726  0.6780
   49MOL     C218338   7.388   7.262   0.692  0.3066  0.1332 -0.3394
   49MOL     C318339   7.286   7.280   0.805 -0.1794 -0.3188 -0.9370
   49MOL     C418340   7.286   7.150   0.876  0.4337 -0.1422 -0.7193
   49MOL     C518341   7.349   7.045   0.786 -0.3376  0.4246 -0.3406
   49MOL     C618342   7.450   7.123   0.707 -0.4078  0.0066 -0.0437
   49MOL     C718343   7.594   7.386   0.574 -0.1339 -0.1465  0.4566
   49MOL     H818344   7.436   7.463   0.687 -2.0539 -0.8906  1.0524
   49MOL     H918345   7.339   7.271   0.596  1.5423 -0.1567 -1.0068
   49MOL    H1018346   7.303   7.358   0.879  2.0836 -0.7295 -0.9750
   49MOL    H1118347   7.185   7.306   0.774 -0.6034 -0.6158  0.1601
   49MOL    H1218348   7.343   7.157   0.969 -2.8514 -0.5359  1.4219
   49MOL    H1318349   7.182   7.126   0.900  1.0182 -1.4075  0.6671
   49MOL    H1418350   7.410   6.969   0.834  1.6598  0.0328 -3.3619
   49MOL    H1518351   7.276   7.007   0.714 -0.6611 -0.1499  0.2858
   49MOL    H1618352   7.502   7.072   0.625 -0.5063  2.7042 -1.8263
   49MOL    H1718353   7.532   7.124   0.779  0.4578  0.8180 -1.0277
   49MOL    H1818354   7.631   7.286   0.549  0.0319 -0.7218  2.8587
   49MOL    H1918355   7.540   7.416   0.485 -3.6797 -0.2124  2.5009
   49MOL    H2018356   7.553   7.378   0.792  0.1878  2.1855  0.0236
   49MOL    C2118357   0.013   7.494   0.595  0.2780  1.0087 -0.0348
   49MOL    C2218358   7.648   7.641   0.606  0.0390  0.6015  1.0435
   49MOL    C2318359   7.553   7.678   0.485  1.1294  0.4581 -0.6680
   49MOL    C2418360   7.579   0.143   0.464  0.5803  0.2545  0.7958
   49MOL    C2518361   7.687   0.187   0.561 -0.2465 -0.1594 -0.5225
   49MOL    C2618362   0.065   0.058   0.605 -0.3269  0.8110  0.3765
   49MOL    C2718363   0.117   7.455   0.706  0.2509  0.9347  0.1981
   49MOL    H2818364   0.073   7.495   0.503 -0.1989 -3.2784 -0.4969
   49MOL    H2918365   7.592   7.653   0.698 -0.1689 -0.7257  1.1059
   49MOL    H3018366   7.446   7.661   0.500  0.4972  2.6097 -2.3864
   49MOL    H3118367   7.588   7.630   0.394  0.6545  2.0708 -1.7251
   49MOL    H3218368   7.608   0.172   0.363 -1.1325  3.7453  1.2102
   49MOL    H3318369   7.490   0.197   0.496 -1.0012 -2.7175  1.5836
   49MOL    H3418370   7.629   0.220   0.647  1.5466 -0.9939  1.0514
   49MOL    H3518371   0.053   0.274   0.526 -0.2011  0.2693  0.6138
   49MOL    H3618372   0.111   0.070   0.703  1.5670 -0.8360 -0.2790
   49MOL    H3718373   0.144   0.042   0.532 -0.0628  0.4090  0.7503
   49MOL    H3818374   0.202   7.523   0.708  2.2650 -1.5475  0.7335
   49MOL    H3918375   0.077   7.473   0.805  0.4107 -1.5766  0.7537
   49MOL    C4018376   0.179   7.307   0.715  0.5202 -0.1563  0.2401
   49MOL    C4118377   0.256   7.277   0.586  0.3160  0.6608  0.2611
   49MOL    C4218378   0.308   7.129   0.574  0.2604 -0.6094  0.2077
   49MOL    C4318379   0.382   7.133   0.437  0.2942 -0.6541 -0.2052
   49MOL    C4418380   0.442   7.274   0.431  0.4222  0.6265  0.0847
   49MOL    C4518381   0.387   7.351   0.550  0.1138  0.0434 -0.4379
   49MOL    C4618382   0.269   7.298   0.844  0.1619 -0.1230 -0.9631
   49MOL    H4718383   0.098   7.236   0.729 -1.4000  1.3756 -2.5729
   49MOL    H4818384   0.186   7.290   0.504  2.1748  0.4561 -1.4054
   49MOL    H4918385   0.222   7.062   0.572 -1.5814  1.6670  0.1528
   49MOL    H5018386   0.382   7.108   0.651  1.5264 -1.7849 -1.3039
   49MOL    H5118387   0.317   7.119   0.351 -0.6569  0.2020  0.3682
   49MOL    H5218388   0.461   7.058   0.436  1.8794  0.9858 -0.4200
   49MOL    H5318389   0.551   7.268   0.434  0.4365  0.7005 -0.2808
   49MOL    H5418390   0.411   7.331   0.343 -0.3881  2.8321  1.7405
   49MOL    H5518391   0.453   7.352   0.637  1.5646 -0.4395 -1.5103
   49MOL    H5618392   0.357   7.453   0.527 -0.3126  0.0271  0.0241
   49MOL    H5718393   0.337   7.214   0.830 -1.1471 -0.7995 -3.5265
   49MOL    H5818394   0.334   7.385   0.836  0.1871 -0.3846 -4.5392
   49MOL    C5918395   0.201   7.291   0.985  0.4289 -0.8218  0.2162
   49MOL    C6018396   0.080   7.194   0.989  0.0574  0.3517 -0.4140
   49MOL    C6118397   0.014   7.183   1.121  0.0851 -0.1997  0.2041
   49MOL    C6218398   7.628   7.044   1.125  0.7834  0.3737 -0.8357
   49MOL    C6318399   0.022   6.962   1.026 -0.0024 -0.0676 -0.7380
   49MOL    C6418400   0.130   7.053   0.964  0.1797  0.8154  0.2710
   49MOL    C6518401   0.308   7.260   1.093  0.1336  0.1841  0.4730
   49MOL    H6618402   0.159   7.392   0.995  1.2053 -0.4776  0.0679
   49MOL    H6718403   0.009   7.230   0.915  2.4855  1.9434 -2.0222
   49MOL    H6818404   7.634   7.265   1.140 -0.3797 -0.3902 -0.6184
   49MOL    H6918405   0.075   7.168   1.209 -0.2059  0.1068  0.4635
   49MOL    H7018406   7.523   7.057   1.097  0.3021  2.3995  1.6825
   49MOL    H7118407   7.607   6.997   1.221 -1.2754  1.9621 -0.4702
   49MOL    H7218408   7.650   6.917   0.948 -1.2971  0.6027 -0.1119
   49MOL    H7318409   0.060   6.870   1.071 -3.9151 -1.2459  0.3260
   49MOL    H7418410   0.223   7.020   1.011  1.1404  0.5183 -1.7814
   49MOL    H7518411   0.151   7.041   0.858  2.5106  0.8551  0.6974
   49MOL    H7618412   0.346   7.162   1.064  0.3948  0.4641 -0.1242
   49MOL    H7718413   0.255   7.259   1.189 -1.5121 -1.8592 -0.4148
   49MOL    C7818414   0.417   7.373   1.106 -0.6327 -0.2813 -0.0087
   49MOL    C7918415   0.359   7.504   1.155 -0.3180 -0.2675  0.1615
   49MOL    C8018416   0.462   7.618   1.158 -0.0618  0.0075  0.0588
   49MOL    C8118417   0.448   7.674   1.300  0.4571  0.2588  0.2128
   49MOL    C8218418   0.305   7.642   1.356 -0.9040 -0.3307 -0.1643
   49MOL    C8318419   0.285   7.501   1.291 -0.0503  0.0808  0.3086
   49MOL    C8418420   0.538   7.328   1.204  0.2450 -0.2312  0.2797
   49MOL    H8518421   0.462   7.401   1.010 -0.1422 -0.7540  0.0805
   49MOL    H8618422   0.289   7.540   1.079  1.0371  1.0301 -0.4952
   49MOL    H8718423   0.437   0.004   1.084  1.0657 -2.1400 -2.6019
   49MOL    H8818424   0.564   7.586   1.136  0.3912 -0.6933  2.9290
   49MOL    H8918425   0.473   0.090   1.310  1.4249  0.1820 -1.2212
   49MOL    H9018426   0.522   7.624   1.364 -1.0301 -1.9759  0.2296
   49MOL    H9118427   0.294   7.658   1.463  1.5888 -1.6225  0.3100
   49MOL    H9218428   0.244   0.030   1.309  0.0010  0.4922  0.0003
   49MOL    H9318429   0.340   7.427   1.349  1.3467 -1.7827 -3.2686
   49MOL    H9418430   0.188   7.460   1.263 -0.3238  1.0952 -0.2434
   49MOL    H9518431   0.489   7.281   1.290 -1.1159 -1.6776 -1.2606
   49MOL    H9618432   0.578   7.415   1.257 -0.5709  0.0027  0.5193
   49MOL    C9718433   0.658   7.240   1.147  0.4379  0.3353 -0.0211
   49MOL    C9818434   0.765   7.205   1.258 -0.4126 -0.5541 -0.2763
   49MOL    C9918435   0.828   7.310   1.352 -0.0009 -1.1708  0.4390
   49MOL   C10018436   0.898   7.241   1.467 -0.1331  0.4023  0.4060
   49MOL   C10118437   0.833   7.100   1.455 -0.2214  0.2144 -1.2284
   49MOL   C10218438   0.715   7.111   1.362  0.0138  0.0033  0.0040
   49MOL   C10318439   0.729   7.313   1.026 -0.0708 -0.1125  0.1043
   49MOL   H10418440   0.615   7.143   1.120  1.4769  0.2670 -1.4606
   49MOL   H10518441   0.843   7.154   1.201 -0.6866  1.6477 -2.7484
   49MOL   H10618442   0.894   7.384   1.306  1.6913 -1.9586  1.5366
   49MOL   H10718443   0.748   7.371   1.393  1.4539  0.5185  0.8563
   49MOL   H10818444   0.878   7.286   1.564 -0.3114 -0.1062  0.6077
   49MOL   H10918445   1.005   7.235   1.446 -0.7609 -1.1926 -2.8410
   49MOL   H11018446   0.809   7.055   1.551  0.0470  0.6212 -0.9709
   49MOL   H11118447   0.912   7.042   1.407 -0.6622 -0.5696 -1.0098
   49MOL   H11218448   0.682   7.015   1.322 -4.6410  1.0325  1.0927
   49MOL   H11318449   0.635   7.160   1.418  0.2994  0.0039  0.4084
   49MOL   H11418450   0.653   7.344   0.954 -3.6697 -2.2166  2.7673
   49MOL   H11518451   0.777   7.401   1.069  1.8535 -1.2605  0.3681
   49MOL   C11618452   0.839   7.235   0.947 -0.6853  0.5629  0.1467
   49MOL   C11718453   0.784   7.097   0.892 -0.0514 -0.5166  0.7353
   49MOL   C11818454   0.653   7.103   0.803 -0.5453  0.0406  0.5265
   49MOL   C11918455   0.649   6.977   0.709 -0.1713  0.0548  0.4315
   49MOL   C12018456   0.798   6.942   0.693 -0.1138  0.1075  0.4836
   49MOL   C12118457   0.872   6.989   0.816  0.0095  0.1707 -0.0540
   49MOL   C12218458   0.905   7.313   0.839 -0.2120  0.0901 -0.1186
   49MOL   H12318459   0.921   7.216   1.016 -1.5767  1.2847  1.4284
   49MOL   H12418460   0.748   7.061   0.988 -1.1437 -1.2104  0.0771
   49MOL   H12518461   0.561   7.117   0.859 -0.8609 -0.2157  0.0784
   49MOL   H12618462   0.653   7.191   0.739 -1.3014  0.7854  1.5376
   49MOL   H12718463   0.607   6.998   0.610 -0.0291 -0.7462  0.1910
   49MOL   H12818464   0.600   6.893   0.758 -0.6264  0.3316  0.4533
   49MOL   H12918465   0.833   6.996   0.605 -2.5778 -0.0132 -0.6113
   49MOL   H13018466   0.796   6.836   0.669  0.2795 -0.2763  2.0876
   49MOL   H13118467   0.904   6.905   0.877 -0.0181  1.6781  2.0793
   49MOL   H13218468   0.973   7.019   0.787 -0.1512  0.9596  0.2099
   49MOL   H13318469   0.827   7.334   0.765 -0.0491  1.4506  0.0848
   49MOL   H13418470   0.981   7.257   0.784 -1.4452 -0.5443 -1.2088
   49MOL   C13518471   0.974   7.450   0.872 -0.2905 -0.3506  0.0049
   49MOL   C13618472   1.053   7.464   1.006 -0.9574  0.3683 -0.3210
   49MOL   C13718473   1.134   7.594   1.024 -0.0460 -0.1565 -0.0431
   49MOL   C13818474   1.269   7.559   1.081 -0.7018 -0.3193  0.0285
   49MOL   C13918475   1.260   7.408   1.115  0.1708  0.3376 -0.4476
   49MOL   C14018476   1.162   7.358   1.008  1.1337 -0.1228  0.4054
   49MOL   C14118477   0.874   7.566   0.857 -0.0933 -0.1669 -0.2878
   49MOL   H14218478   1.056   7.462   0.802  2.1624 -2.0084  2.5034
   49MOL   H14318479   0.993   7.438   1.094 -2.4124  1.7162 -0.9002
   49MOL   H14418480   1.154   7.635   0.925  0.3009 -1.4570 -0.5204
   49MOL   H14518481   1.083   7.661   1.094 -1.1531 -0.4746 -0.5443
   49MOL   H14618482   1.302   7.630   1.157  1.9168 -0.9818 -0.4717
   49MOL   H14718483   1.330   7.573   0.992 -1.2239 -0.9319 -0.4309
   49MOL   H14818484   1.209   7.398   1.211 -0.2848  1.1673 -0.5916
   49MOL   H14918485   1.357   7.359   1.107  0.8420  1.5956 -0.2239
   49MOL   H15018486   1.212   7.352   0.911 -1.6060  1.2924 -1.1754
   49MOL   H15118487   1.127   7.256   1.023 -1.4936  1.0101  2.5172
   49MOL   H15218488   0.915   7.656   0.902  0.7897  0.1802 -1.7613
   49MOL   H15318489   0.793   7.544   0.927  2.0115 -0.8151  1.9886
   49MOL   C15418490   0.811   7.606   0.721 -0.8574 -0.0080  1.4040
   49MOL   C15518491   0.713   0.030   0.733  0.2127 -0.0158  0.1611
   49MOL   C15618492   0.595   0.025   0.828  0.2422  1.4494 -0.0402
   49MOL   C15718493   0.480   0.106   0.759 -0.4075 -0.0305 -0.2015
   49MOL   C15818494   0.543   0.174   0.639 -0.4677  0.2373 -0.6510
   49MOL   C15918495   0.646   0.073   0.600  0.4308 -0.5711  0.2018
   49MOL   C16018496   0.926   7.636   0.623  1.0784  0.2121  0.2404
   49MOL   H16118497   0.747   7.524   0.687  2.0070 -0.3088 -3.8620
   49MOL   H16218498   0.769   0.118   0.763  2.1995 -2.0649  2.6701
   49MOL   H16318499   0.569   7.611   0.847  1.6277  1.2628  0.8688
   49MOL   H16418500   0.622   0.066   0.925 -1.9128  0.0860  1.1884
   49MOL   H16518501   0.395   0.043   0.733 -1.4878  0.9682  0.8581
   49MOL   H16618502   0.442   0.177   0.832  1.6113 -0.4554  1.3212
   49MOL   H16718503   0.596   0.265   0.665  1.0556  0.0029 -2.7934
   49MOL   H16818504   0.475   0.192   0.555  0.2820 -0.8449 -1.4986
   49MOL   H16918505   0.722   0.114   0.533 -0.9354  3.5307  1.0001
   49MOL   H17018506   0.604   7.670   0.561  1.0650 -1.3861  1.4435
   49MOL   H17118507   1.025   7.603   0.656 -0.1168 -1.9037  1.7894
   49MOL   H17218508   0.940   0.053   0.607 -0.6517  0.0756 -2.5025
   49MOL   C17318509   0.921   7.565   0.482 -0.3142  0.2306 -0.2835
   49MOL   C17418510   0.934   7.409   0.484  0.1459  0.6491  0.1991
   49MOL   C17518511   1.078   7.346   0.521 -0.5711 -0.1140  0.3085
   49MOL   C17618512   1.070   7.199   0.479 -0.5956 -0.2439 -0.6803
   49MOL   C17718513   0.981   7.199   0.355 -0.4609 -0.7804 -0.4660
   49MOL   C17818514   0.895   7.331   0.353  0.2538  0.0017 -0.2789
   49MOL   C17918515   1.030   7.628   0.381  0.2630  0.0281  0.4080
   49MOL   H18018516   0.826   7.591   0.436 -1.6386 -1.2760  1.5423
   49MOL   H18118517   0.864   7.380   0.562  0.2129 -0.7546 -0.2576
   49MOL   H18218518   1.097   7.367   0.626  0.1298 -2.2980  0.6368
   49MOL   H18318519   1.161   7.394   0.470  0.2960 -3.5762 -1.6840
   49MOL   H18418520   1.169   7.159   0.458  0.0460  0.3060  1.2298
   49MOL   H18518521   1.020   7.157   0.566 -3.0581  2.8156 -0.5087
   49MOL   H18618522   0.944   7.098   0.341 -0.7308 -0.6793 -0.4829
   49MOL   H18718523   1.038   7.200   0.262 -0.7686 -0.4082 -0.6525
   49MOL   H18818524   0.896   7.396   0.265 -2.8425  1.5516  0.7542
   49MOL   H18918525   0.791   7.303   0.372 -0.5077  2.4859 -0.6341
   49MOL   H19018526   1.115   7.652   0.445  0.4482  0.9823 -0.1904
   49MOL   H19118527   1.052   7.555   0.303  0.2529 -0.6654  1.0536
   49MOL   C19218528   0.966   0.064   0.312 -0.2743 -0.0725  0.1324
   49MOL   C19318529   0.846   0.033   0.211 -0.9569 -0.6208  0.1204
   49MOL   C19418530   0.880   7.648   0.086  0.3961 -0.1329  0.1776
   49MOL   C19518531   0.798   0.027   7.672 -0.9830 -0.4029  0.1230
   49MOL   C19618532   0.784   0.177   0.025 -0.5551 -0.6423 -0.8281
   49MOL   C19718533   0.773   0.161   0.176 -0.1035 -0.2035 -0.1833
   49MOL   C19818534   1.076   0.151   0.245 -0.2320  0.1334  0.6873
   49MOL   H19918535   0.937   0.136   0.388  0.1384  1.9587 -1.5692
   49MOL   H20018536   0.767   7.666   0.262  1.8766 -2.1154  2.9970
   49MOL   H20118537   0.849   7.544   0.094  0.4528 -0.2082 -0.5744
   49MOL   H20218538   0.988   7.648   0.069 -0.0081 -1.0523 -2.5775
   49MOL   H20318539   0.848   0.028   7.576 -0.6792  0.3101  0.2830
   49MOL   H20418540   0.698   7.677   7.655 -1.5730  0.1842  2.0048
   49MOL   H20518541   0.704   0.236   7.671  1.3114  1.5926 -1.3398
   49MOL   H20618542   0.880   0.224   0.003 -0.5624  0.0998  0.6436
   49MOL   H20718543   0.667   0.161   0.201  0.2286 -0.3602  1.2832
   49MOL   H20818544   0.823   0.250   0.216  0.6786 -1.1281  0.9508
   49MOL   H20918545   1.143   0.071   0.213  0.4229  1.7121 -2.1204
   49MOL   H21018546   1.035   0.204   0.159 -2.9230 -0.4627  1.5445
   49MOL   C21118547   1.159   0.255   0.324 -0.3336  0.3923 -0.0088
   49MOL   C21218548   1.287   0.297   0.251 -0.2730 -0.0508  0.3257
   49MOL   C21318549   1.398   0.189   0.257 -0.0814  0.0415 -0.0363
   49MOL   C21418550   1.490   0.210   0.126  0.0340  0.7575 -0.1709
   49MOL   C21518551   1.427   0.330   0.060  0.0525 -0.2616  0.4780
   49MOL   C21618552   1.282   0.323   0.101  0.3646  0.5554  0.3223
   49MOL   C21718553   1.083   0.373   0.383  0.0336 -0.2746 -0.1042
   49MOL   H21818554   1.197   0.205   0.413 -1.9163  0.0845  0.4939
   49MOL   H21918555   1.335   0.384   0.296 -0.8376 -0.1461  1.1142
   49MOL   H22018556   1.452   0.211   0.349  0.3714  1.3582 -0.5993
   49MOL   H22118557   1.361   0.087   0.265 -2.0339  0.6743 -0.6104
   49MOL   H22218558   1.597   0.215   0.146  0.3422  1.1073 -1.8559
   49MOL   H22318559   1.481   0.114   0.075  2.9282  0.2064  0.2337
   49MOL   H22418560   1.457   0.329   7.645 -1.2593 -1.1545  0.1054
   49MOL   H22518561   1.472   0.423   0.093 -2.0000  1.4882 -1.5003
   49MOL   H22618562   1.233   0.419   0.081  0.0801 -0.2145 -2.9140
   49MOL   H22718563   1.243   0.237   0.047  0.4762  1.7643 -1.7195
   49MOL   H22818564   0.979   0.353   0.407 -0.0555  2.4870  2.0943
   49MOL   H22918565   1.071   0.447   0.304 -1.6272 -1.3188 -0.8617
   49MOL   C23018566   1.150   0.433   0.504  0.2000 -0.7072 -0.4088
   49MOL   C23118567   1.113   0.358   0.633  0.2332  0.2632  0.5847
   49MOL   C23218568   1.194   0.391   0.764  0.1815 -0.3504 -1.1765
   49MOL   C23318569   1.115   0.339   0.885  0.0413  0.8790 -0.0937
   49MOL   C23418570   0.986   0.287   0.823  0.0060 -0.6774 -0.2814
   49MOL   C23518571   0.971   0.359   0.689  0.0306  0.2751  0.1924
   49MOL   C23618572   1.116   0.586   0.513  0.2205 -0.0625  0.1261
   49MOL   H23718573   1.257   0.418   0.491 -0.1561 -3.5405 -0.4156
   49MOL   H23818574   1.138   0.253   0.624 -3.5131 -0.6982  0.3529
   49MOL   H23918575   1.296   0.351   0.770 -0.5717 -2.0577  0.5505
   49MOL   H24018576   1.195   0.500   0.759 -1.5913 -0.3698 -2.2728
   49MOL   H24118577   1.173   0.261   0.934 -0.0672  1.1867  0.5358
   49MOL   H24218578   1.100   0.428   0.946  2.3856  0.6879  0.8039
   49MOL   H24318579   0.895   0.292   0.883  0.4917 -2.8362  0.6762
   49MOL   H24418580   1.001   0.181   0.802  1.0837 -0.2143 -1.9712
   49MOL   H24518581   0.934   0.460   0.706 -3.6524 -1.0106  0.4045
   49MOL   H24618582   0.906   0.296   0.628  0.4666  0.5482 -0.5544
   49MOL   H24718583   1.114   0.616   0.618  0.6047  0.7544 -0.0905
   49MOL   H24818584   1.011   0.598   0.487  0.1305  2.1901  1.4226
   49MOL   C24918585   1.200   0.679   0.433 -0.5535 -0.0122 -0.7402
   49MOL   C25018586   1.332   0.723   0.506  0.3141  0.1239 -0.2596
   49MOL   C25118587   1.416   0.612   0.570 -0.6060  0.0917 -0.4646
   49MOL   C25218588   1.512   0.700   0.651  0.6551  0.8012 -0.6857
   49MOL   C25318589   1.434   0.814   0.710  0.3560 -0.0895 -0.0644
   49MOL   C25418590   1.318   0.833   0.612  0.0404  0.3884 -0.8570
   49MOL   C25518591   1.113   0.797   0.385 -0.5210 -0.1685  0.0265
   49MOL   H25618592   1.237   0.621   0.348  1.2308 -1.1414  0.7696
   49MOL   H25718593   1.397   0.766   0.430  0.4644 -1.1571 -0.8668
   49MOL   H25818594   1.460   0.535   0.507  1.0049 -1.8391  2.8523
   49MOL   H25918595   1.363   0.553   0.645 -0.2684  2.0678  1.3900
   49MOL   H26018596   1.597   0.737   0.594  1.6984 -1.5874 -0.7641
   49MOL   H26118597   1.548   0.641   0.736  1.0668  3.5284  1.0931
   49MOL   H26218598   1.496   0.903   0.708 -0.0288  0.2133  0.9804
   49MOL   H26318599   1.410   0.794   0.814 -0.6686 -1.2952 -0.5105
   49MOL   H26418600   1.316   0.931   0.565  0.2574  0.5257 -0.5767
   49MOL   H26518601   1.218   0.821   0.652  0.3039  1.2882  0.0766
   49MOL   H26618602   1.055   0.839   0.467 -2.5702 -1.2354 -0.8571
   49MOL   H26718603   1.186   0.874   0.359 -1.0230 -0.1810 -1.4704
   49MOL   C26818604   1.023   0.754   0.262 -0.6079  0.7849 -0.2463
   49MOL   C26918605   1.099   0.731   0.127 -0.4544  0.1467 -0.0142
   49MOL   C27018606   1.150   0.852   0.059  0.2503  0.3740 -0.5907
   49MOL   C27118607   1.197   0.803   7.610 -0.4745 -0.0443 -0.3799
   49MOL   C27218608   1.095   0.700   7.562 -0.3013 -0.2006 -0.0775
   49MOL   C27318609   1.031   0.647   0.009  0.1494 -0.0364 -0.5478
   49MOL   C27418610   0.898   0.847   0.239 -0.3051  0.1696 -0.2056
   49MOL   H27518611   0.978   0.658   0.287 -0.3173  0.5045 -0.8039
   49MOL   H27618612   1.199   0.694   0.149  0.0391  1.1257 -0.5708
   49MOL   H27718613   1.078   0.933   0.052 -0.4509 -0.0862  1.1985
   49MOL   H27818614   1.244   0.879   0.107 -0.4862  0.6737  0.6764
   49MOL   H27918615   1.203   0.888   7.541  0.9324  0.6885  0.6280
   49MOL   H28018616   1.294   0.763   7.638 -0.7642  1.0701  2.3717
   49MOL   H28118617   1.139   0.615   7.510 -0.1777  0.0446 -0.3797
   49MOL   H28218618   1.024   0.746   7.493 -1.8125 -1.9881  0.2610
   49MOL   H28318619   1.058   0.542   0.013 -2.4984 -0.6911  1.1074
   49MOL   H28418620   0.923   0.654   7.684  0.1369  0.0525 -0.4174
   49MOL   H28518621   0.859   0.831   0.138 -2.4153 -0.2830  0.6683
   49MOL   H28618622   0.933   0.951   0.241 -0.3924  0.1710  1.0519
   49MOL   C28718623   0.770   0.812   0.324  0.6239  1.0984  0.1629
   49MOL   C28818624   0.733   0.656   0.335 -0.1538  0.2800  0.3261
   49MOL   C28918625   0.603   0.627   0.416  0.6419 -0.0965  0.0084
   49MOL   C29018626   0.550   0.496   0.361 -0.5251 -0.1859  0.5025
   49MOL   C29118627   0.581   0.510   0.207  0.6507 -0.2741 -0.3595
   49MOL   C29218628   0.714   0.592   0.198  0.0157  0.7095 -0.5705
   49MOL   C29318629   0.778   0.881   0.461 -0.5848 -0.0407  0.0887
   49MOL   H29418630   0.690   0.862   0.269 -0.9068 -0.2934  1.0914
   49MOL   H29518631   0.808   0.606   0.396 -0.1203  0.1643  0.1901
   49MOL   H29618632   0.627   0.623   0.522  2.6847  0.0127 -0.4319
   49MOL   H29718633   0.535   0.707   0.384  1.5591  1.0577  0.9223
   49MOL   H29818634   0.606   0.413   0.405  1.1109  0.6163 -0.0217
   49MOL   H29918635   0.443   0.488   0.379 -0.3517  1.3341  2.3716
   49MOL   H30018636   0.503   0.564   0.153 -1.1515 -1.9246  0.5234
   49MOL   H30118637   0.587   0.418   0.150 -0.0313  0.0593 -0.9804
   49MOL   H30218638   0.692   0.655   0.111  0.1164  0.5192 -0.7336
   49MOL   H30318639   0.799   0.533   0.165 -0.1195 -0.4500  1.1182
   49MOL   H30418640   0.866   0.841   0.511 -0.3453  0.8404  0.3665
   49MOL   H30518641   0.700   0.851   0.531 -0.6361  1.4333  0.6725
   49MOL   C30618642   0.768   1.040   0.459 -0.9703 -0.0864  0.1452
   49MOL   C30718643   0.634   1.107   0.496  0.0173 -0.1477 -0.0125
   49MOL   C30818644   0.518   1.072   0.406  0.2628 -0.3607  0.0092
   49MOL   C30918645   0.406   1.098   0.502 -0.8825 -0.0127 -0.4136
   49MOL   C31018646   0.459   1.129   0.645  0.4296  0.0009 -0.2464
   49MOL   C31118647   0.594   1.076   0.640 -0.2033  0.4283 -0.1312
   49MOL   C31218648   0.877   1.096   0.546 -0.3216  0.6355  0.0294
   49MOL   H31318649   0.781   1.073   0.356  1.5623  0.1614  0.5155
   49MOL   H31418650   0.643   1.215   0.493  2.4695 -0.3005  0.5414
   49MOL   H31518651   0.511   0.968   0.376 -0.5678  0.3518 -2.4520
   49MOL   H31618652   0.536   1.142   0.324  1.1310  1.8837  2.0481
   49MOL   H31718653   0.338   1.177   0.470  0.7251  1.1314 -1.0677
   49MOL   H31818654   0.365   0.997   0.509  1.4935 -0.8695  1.6162
   49MOL   H31918655   0.397   1.095   0.728  0.7576 -1.4900 -0.6029
   49MOL   H32018656   0.465   1.237   0.657  0.7959  0.2382 -2.3115
   49MOL   H32118657   0.649   1.137   0.712  1.1049  1.5939 -2.0678
   49MOL   H32218658   0.595   0.970   0.667 -1.3233  0.3726 -0.2680
   49MOL   H32318659   0.968   1.036   0.546  0.2286  1.4606  0.2262
   49MOL   H32418660   0.856   1.082   0.652  0.2366  2.6665  0.4315
   49MOL   C32518661   0.925   1.246   0.521  0.1509 -0.3023 -0.5200
   49MOL   C32618662   0.994   1.261   0.385 -0.3600  0.2504  0.0139
   49MOL   C32718663   1.130   1.191   0.373 -0.0407  0.1702 -0.4916
   49MOL   C32818664   1.192   1.263   0.258  0.0600 -0.2784 -0.0309
   49MOL   C32918665   1.152   1.412   0.270 -0.5286  0.0200  0.6226
   49MOL   C33018666   1.016   1.412   0.342  0.4828 -0.7076  0.2946
   49MOL   C33118667   1.003   1.294   0.647 -0.4859 -0.7308  0.6703
   49MOL   H33218668   0.828   1.297   0.516  0.4540  0.5232  1.5935
   49MOL   H33318669   0.923   1.208   0.322  0.4291 -0.5486 -0.2036
   49MOL   H33418670   1.125   1.083   0.362 -0.9061  0.0976  0.4764
   49MOL   H33518671   1.188   1.216   0.462  0.8723  3.5253 -1.9440
   49MOL   H33618672   1.146   1.215   0.172  0.4396 -1.7362  0.5631
   49MOL   H33718673   1.301   1.255   0.264  0.0834  0.6014  0.6617
   49MOL   H33818674   1.142   1.468   0.176  0.3264  1.9819  1.6644
   49MOL   H33918675   1.224   1.464   0.333 -0.9361  0.0356  1.0814
   49MOL   H34018676   0.933   1.435   0.275  0.2840  0.1915  0.8478
   49MOL   H34118677   1.019   1.492   0.415 -0.2864  0.3022 -0.7517
   49MOL   H34218678   1.055   1.386   0.620  0.6829 -1.5175  0.2250
   49MOL   H34318679   1.079   1.217   0.659 -0.0465 -0.1601  1.5933
   49MOL   C34418680   0.917   1.307   0.786 -0.1546 -0.9228 -0.3154
   49MOL   C34518681   0.880   1.457   0.816  0.2352 -0.0187  0.2683
   49MOL   C34618682   0.782   1.480   0.935  0.0477 -0.2228  0.4147
   49MOL   C34718683   0.659   1.544   0.872  0.7300  0.3477 -0.4261
   49MOL   C34818684   0.714   1.621   0.756  0.6351 -0.1089  0.8689
   49MOL   C34918685   0.813   1.528   0.692 -0.0708 -0.4345  0.0054
   49MOL   C35018686   1.002   1.244   0.905 -0.0299 -0.1517 -0.3388
   49MOL   H35118687   0.816   1.266   0.782  0.5685 -2.8735  0.7503
   49MOL   H35218688   0.977   1.504   0.835  0.0496  0.9387 -1.1113
   49MOL   H35318689   0.822   1.549   1.009  0.6482 -0.9493  0.7735
   49MOL   H35418690   0.753   1.395   0.998 -0.5577 -1.2600 -1.2380
   49MOL   H35518691   0.597   1.462   0.834 -0.3985  2.2393 -2.7528
   49MOL   H35618692   0.592   1.597   0.939  0.5054 -1.0704  0.5050
   49MOL   H35718693   0.753   1.718   0.785  2.9007 -0.7496  0.1064
   49MOL   H35818694   0.631   1.640   0.689  1.2667 -0.1626  0.0578
   49MOL   H35918695   0.768   1.450   0.631 -0.8951  0.4654 -0.5505
   49MOL   H36018696   0.888   1.581   0.634 -0.6873 -0.2901 -0.6675
   49MOL   H36118697   0.958   1.290   0.994  1.1510  0.2774  0.0243
   49MOL   H36218698   1.105   1.277   0.908 -0.2913  0.5141  2.8005
   49MOL   C36318699   1.001   1.086   0.916 -0.0840 -0.3498 -0.0582
   49MOL   C36418700   1.115   1.046   1.016 -0.4432 -0.0992  0.3865
   49MOL   C36518701   1.152   0.897   1.022  0.0769  0.2770  0.0766
   49MOL   C36618702   1.218   0.875   1.159 -0.6548  0.0012  0.5407
   49MOL   C36718703   1.180   0.999   1.243  0.0327 -0.0601 -0.0733
   49MOL   C36818704   1.088   1.084   1.161 -0.3274 -0.3998  0.3831
   49MOL   C36918705   0.871   1.026   0.948  0.2947  0.0093 -0.7229
   49MOL   H37018706   1.020   1.055   0.814  1.3418  3.0726 -0.9302
   49MOL   H37118707   1.205   1.104   0.996  2.2664 -4.4726 -1.0464
   49MOL   H37218708   1.058   0.842   1.014 -0.1549  0.6007  0.5292
   49MOL   H37318709   1.221   0.871   0.942 -0.1485  0.6032 -0.2254
   49MOL   H37418710   1.185   0.779   1.199  1.4904 -1.3670 -0.8858
   49MOL   H37518711   1.326   0.871   1.150 -0.3204  2.8574  2.5731
   49MOL   H37618712   1.149   0.958   1.339 -0.3383 -1.3333 -0.7220
   49MOL   H37718713   1.269   1.059   1.259 -0.7500  1.4460 -1.1658
   49MOL   H37818714   1.103   1.190   1.182  0.0099 -0.4175  0.2362
   49MOL   H37918715   0.984   1.062   1.188  0.2100 -1.1162  1.8894
   49MOL   H38018716   0.877   0.918   0.957 -2.8090 -0.1628 -0.1307
   49MOL   H38118717   0.786   1.037   0.881  0.1193 -3.4183 -1.1647
   49MOL   H38218718   0.831   1.070   1.039 -1.1358 -0.6343 -1.0261
   50MOL     C118719   7.111   3.055   1.825 -0.2530 -0.4522  0.4604
   50MOL     C218720   7.075   2.959   1.713  0.4014  0.3028  0.4490
   50MOL     C318721   7.158   2.978   1.586 -0.0667  0.5662 -1.4852
   50MOL     C418722   7.088   2.903   1.473 -0.5702 -0.3059 -0.5110
   50MOL     C518723   6.937   2.897   1.525 -0.2866  0.0100  0.6280
   50MOL     C618724   6.935   2.964   1.665  0.3332  0.0993 -0.5943
   50MOL     C718725   7.037   3.045   1.952  0.8579 -0.8995 -0.2115
   50MOL     H818726   7.220   3.063   1.835 -0.2641 -0.6738  0.7840
   50MOL     H918727   7.080   2.854   1.743  0.4786  0.0301 -0.4895
   50MOL    H1018728   7.153   3.082   1.553 -1.0611  1.3533  1.0357
   50MOL    H1118729   7.263   2.956   1.607  0.1036  3.1321  0.5968
   50MOL    H1218730   7.089   2.969   1.386 -0.4494  2.9197  1.8220
   50MOL    H1318731   7.134   2.806   1.456  0.6538 -0.0585  1.2354
   50MOL    H1418732   6.875   2.957   1.458 -0.1551 -0.2230  0.3009
   50MOL    H1518733   6.889   2.799   1.525 -0.8009  0.2282 -1.3565
   50MOL    H1618734   6.857   2.922   1.728 -0.0186 -0.2507 -1.2631
   50MOL    H1718735   6.904   3.069   1.663  0.9529  0.3623  1.5303
   50MOL    H1818736   6.929   3.061   1.945  0.7362 -1.6304 -0.0698
   50MOL    H1918737   7.039   2.939   1.976  0.6183 -0.4375  2.0000
   50MOL    H2018738   7.079   3.153   1.790 -0.9166 -1.4024 -1.6170
   50MOL    C2118739   7.091   3.127   2.074  0.4231 -0.3603  0.1213
   50MOL    C2218740   6.981   3.221   2.123  0.3389 -0.3184 -0.5454
   50MOL    C2318741   6.958   3.333   2.009  0.2711  0.6042 -0.6422
   50MOL    C2418742   6.884   3.442   2.080 -0.1103 -0.3402 -0.2119
   50MOL    C2518743   6.938   3.447   2.221  0.2571  0.1349 -0.9434
   50MOL    C2618744   7.022   3.321   2.237 -0.6159  0.6262  0.8629
   50MOL    C2718745   7.128   3.030   2.192  0.0136 -0.4598  0.0691
   50MOL    H2818746   7.167   3.197   2.038 -0.0713  0.9375  1.4950
   50MOL    H2918747   6.889   3.169   2.148  0.0862 -0.5943 -1.9835
   50MOL    H3018748   6.915   3.294   1.917  3.4102 -0.8296 -1.5770
   50MOL    H3118749   7.053   3.372   1.973  0.0747  0.2963 -1.5148
   50MOL    H3218750   6.895   3.538   2.030  1.4879 -0.3455  0.0775
   50MOL    H3318751   6.778   3.419   2.081 -0.5821  1.6436 -2.0419
   50MOL    H3418752   6.850   3.448   2.285  0.9517 -0.1549  0.0216
   50MOL    H3518753   6.992   3.539   2.245  0.1744 -0.8279  3.2344
   50MOL    H3618754   7.010   3.286   2.340 -2.3806  2.5621  1.3614
   50MOL    H3718755   7.127   3.340   2.214 -0.7938 -0.4733 -0.9152
   50MOL    H3818756   7.139   3.082   2.287 -1.5752 -2.7491  1.5396
   50MOL    H3918757   7.043   2.963   2.204  0.2525 -0.9839 -1.0816
   50MOL    C4018758   7.250   2.945   2.152  0.0791  0.1419 -0.3723
   50MOL    C4118759   7.372   2.993   2.239 -0.1242 -0.8482 -0.4638
   50MOL    C4218760   7.375   2.993   2.391  0.5413 -0.8308  0.1587
   50MOL    C4318761   7.486   3.090   2.431  0.2466 -0.2646  0.4619
   50MOL    C4418762   7.523   3.171   2.304  0.0162  0.4767 -0.3868
   50MOL    C4518763   7.421   3.136   2.200  1.1607  0.4155 -0.0150
   50MOL    C4618764   7.226   2.791   2.164 -0.1029 -0.1568 -0.2245
   50MOL    H4718765   7.278   2.963   2.048  0.2185 -2.7407 -0.8795
   50MOL    H4818766   7.455   2.924   2.224  1.8496  1.5215 -0.7365
   50MOL    H4918767   7.369   2.893   2.435 -0.3187 -0.9442 -0.2094
   50MOL    H5018768   7.283   3.037   2.428  1.1875  0.3607  0.3745
   50MOL    H5118769   7.573   3.025   2.441 -0.5229 -1.2180  1.0642
   50MOL    H5218770   7.473   3.142   2.526  0.8319 -0.7127  0.7947
   50MOL    H5318771   7.539   3.278   2.318  0.3965  0.2210  1.1537
   50MOL    H5418772   7.625   3.149   2.271  0.8004  0.5617  1.9086
   50MOL    H5518773   7.340   3.209   2.207  0.4671 -0.2807 -0.7398
   50MOL    H5618774   7.470   3.143   2.103  0.9989  1.9215 -0.0011
   50MOL    H5718775   7.206   2.752   2.263  1.4526 -3.3326 -1.0973
   50MOL    H5818776   7.141   2.766   2.101  1.2406 -0.7806 -1.8272
   50MOL    C5918777   7.344   2.708   2.105 -0.0365 -0.1797 -0.1034
   50MOL    C6018778   7.340   2.559   2.151  0.1821 -0.3858  0.1194
   50MOL    C6118779   7.213   2.478   2.123  0.0520  0.2094 -0.0986
   50MOL    C6218780   7.143   2.450   2.254 -0.4843  0.3319  0.1895
   50MOL    C6318781   7.254   2.450   2.357  0.3957  0.3585 -0.1508
   50MOL    C6418782   7.360   2.550   2.305  0.0572  1.0291 -0.0134
   50MOL    C6518783   7.353   2.709   1.955  0.3161 -0.5199 -0.1670
   50MOL    H6618784   7.435   2.747   2.150 -0.2424 -0.0027  0.1638
   50MOL    H6718785   7.430   2.511   2.112 -0.8341 -1.9561 -0.3017
   50MOL    H6818786   7.249   2.383   2.083  0.2865 -0.1304  0.9146
   50MOL    H6918787   7.144   2.519   2.049 -0.0898 -0.8766 -0.5721
   50MOL    H7018788   7.091   2.354   2.256  1.3962 -0.7540 -1.3532
   50MOL    H7118789   7.071   2.529   2.277 -1.2557 -0.1394 -0.5610
   50MOL    H7218790   7.289   2.347   2.360 -0.1163  0.1623 -0.7238
   50MOL    H7318791   7.223   2.474   2.458 -0.0221  0.0933 -0.2127
   50MOL    H7418792   7.360   2.646   2.358  1.0904  1.7866 -1.3654
   50MOL    H7518793   7.458   2.507   2.325  0.1707  1.1783 -0.2562
   50MOL    H7618794   7.299   2.795   1.914  2.0231  2.0974  2.8555
   50MOL    H7718795   7.286   2.629   1.924 -0.2969  0.0728 -0.4103
   50MOL    C7818796   7.500   2.696   1.894 -0.6883  0.2985 -0.7553
   50MOL    C7918797   7.486   2.644   1.749 -0.6778 -0.1019  0.4540
   50MOL    C8018798   7.379   2.706   1.650  0.3532  0.4068 -0.7739
   50MOL    C8118799   7.382   2.605   1.534 -0.4627 -0.1692  0.2193
   50MOL    C8218800   7.420   2.473   1.590 -0.0202  0.2121 -0.5172
   50MOL    C8318801   7.456   2.493   1.738  0.3193 -0.6017  0.0979
   50MOL    C8418802   7.578   2.829   1.907  0.4924 -0.3262  0.3721
   50MOL    H8518803   7.552   2.620   1.953  0.2554  1.5229  0.0189
   50MOL    H8618804   7.583   2.645   1.701 -1.9104  1.8716 -2.1444
   50MOL    H8718805   7.407   2.805   1.613 -0.0306  0.8623  0.1178
   50MOL    H8818806   7.280   2.716   1.696 -0.0270  0.3716 -1.5804
   50MOL    H8918807   7.447   2.631   1.450 -1.9293 -0.9366 -1.1807
   50MOL    H9018808   7.278   2.604   1.500  0.0252 -2.8488 -1.3222
   50MOL    H9118809   7.334   2.410   1.565 -0.3295  1.0446 -1.6034
   50MOL    H9218810   7.506   2.438   1.532  0.0316 -0.6728  0.0874
   50MOL    H9318811   7.363   2.472   1.790 -1.0240  2.8186 -0.8078
   50MOL    H9418812   7.526   2.420   1.779 -0.4017 -1.6345 -0.4984
   50MOL    H9518813   7.567   2.869   2.008  2.6130  2.3429 -0.3701
   50MOL    H9618814   7.522   2.903   1.850 -1.2469 -0.2864  2.0831
   50MOL    C9718815   0.041   2.826   1.887 -0.2555 -0.1994 -0.1978
   50MOL    C9818816   0.126   2.780   2.010  0.2595  0.3658  0.0176
   50MOL    C9918817   0.098   2.635   2.057  0.0363 -0.0295 -0.3787
   50MOL   C10018818   0.217   2.584   2.127 -0.6149 -0.3630  0.0375
   50MOL   C10118819   0.333   2.662   2.071  0.0252 -0.1952  0.4601
   50MOL   C10218820   0.276   2.776   1.980 -0.5481 -0.5772  0.2161
   50MOL   C10318821   0.095   2.962   1.830  0.1063 -0.2412  0.5945
   50MOL   H10418822   0.069   2.746   1.819  0.6135 -0.8560  0.8973
   50MOL   H10518823   0.110   2.844   2.097  0.4371 -0.3571  0.5936
   50MOL   H10618824   0.013   2.635   2.126 -1.0137 -0.4947 -1.6493
   50MOL   H10718825   0.077   2.568   1.974  0.7479 -0.0186 -0.5724
   50MOL   H10818826   0.228   2.476   2.127  0.5007 -0.2530  1.1811
   50MOL   H10918827   0.204   2.607   2.233  2.3855  1.8860 -0.0160
   50MOL   H11018828   0.405   2.596   2.022  0.6843  1.0418 -0.2781
   50MOL   H11118829   0.381   2.710   2.155 -1.1429  2.5687 -0.3829
   50MOL   H11218830   0.333   2.868   1.992  1.5242 -1.6022 -1.5840
   50MOL   H11318831   0.299   2.741   1.879 -0.2174 -1.9701  0.7588
   50MOL   H11418832   0.086   3.032   1.913 -0.4550 -1.3913  1.5163
   50MOL   H11518833   0.203   2.960   1.814  0.1386 -1.1868  0.9017
   50MOL   C11618834   0.018   3.026   1.709 -0.6369 -0.7160 -0.5366
   50MOL   C11718835   0.074   3.166   1.674 -0.3257  0.0204 -0.0307
   50MOL   C11818836   0.008   3.245   1.559  0.1447 -0.5688  0.2757
   50MOL   C11918837   7.686   3.391   1.603 -0.7114  0.1069 -0.0994
   50MOL   C12018838   7.680   3.381   1.753  0.0489 -0.1716  0.8892
   50MOL   C12118839   0.071   3.262   1.799  0.2583  0.5680  0.8296
   50MOL   C12218840   7.689   2.941   1.583 -0.3103  0.2189 -0.4423
   50MOL   H12318841   7.611   3.051   1.752 -0.6867 -2.0662  0.1563
   50MOL   H12418842   0.180   3.166   1.647  0.2542  3.4974  1.8878
   50MOL   H12518843   0.066   3.232   1.468 -0.8335 -1.4793 -0.2303
   50MOL   H12618844   7.597   3.204   1.554 -0.3026 -0.0014  3.2793
   50MOL   H12718845   7.592   3.432   1.564 -1.3982  0.0655  1.4482
   50MOL   H12818846   0.073   3.461   1.570 -1.3684  0.5699 -0.6791
   50MOL   H12918847   7.577   3.356   1.777 -0.0614  1.0350  1.6782
   50MOL   H13018848   0.028   3.477   1.786 -0.5520 -0.2468  1.7820
   50MOL   H13118849   0.173   3.293   1.821  1.2733 -0.9118 -1.5947
   50MOL   H13218850   0.022   3.227   1.890 -2.1363  1.7026  0.0162
   50MOL   H13318851   7.611   2.993   1.526 -0.2802  1.4421  0.6086
   50MOL   H13418852   7.628   2.857   1.615  0.7294 -0.3629  0.0182
   50MOL   C13518853   0.122   2.902   1.491 -0.3406  0.7041 -0.2979
   50MOL   C13618854   0.080   2.875   1.345  0.4290 -0.3544 -0.1173
   50MOL   C13718855   0.038   3.010   1.276 -0.4368  0.4776 -0.5713
   50MOL   C13818856   7.603   2.986   1.203  0.0737 -0.3457 -0.1804
   50MOL   C13918857   7.606   2.832   1.190 -0.0483  0.1483 -0.3420
   50MOL   C14018858   7.654   2.782   1.325 -0.6345  0.4507  0.3042
   50MOL   C14118859   0.182   2.774   1.553 -1.0783 -0.2175  0.2786
   50MOL   H14218860   0.201   2.977   1.488  1.5795 -1.0536  2.8349
   50MOL   H14318861   0.167   2.836   1.292  0.6911 -0.7690  0.6123
   50MOL   H14418862   0.029   3.095   1.343 -0.1617  1.2837 -1.5451
   50MOL   H14518863   0.118   3.035   1.206 -1.7384  1.4793 -1.7012
   50MOL   H14618864   7.605   3.034   1.106 -0.6533 -1.3331 -0.6894
   50MOL   H14718865   7.520   3.027   1.261 -0.9847 -0.8792 -1.3158
   50MOL   H14818866   7.684   2.795   1.123  1.5372 -2.1118  2.6444
   50MOL   H14918867   7.515   2.786   1.153  0.2742 -0.7688  0.0006
   50MOL   H15018868   7.575   2.791   1.400 -0.0425 -1.0352  1.1232
   50MOL   H15118869   0.004   2.682   1.312  0.7962  1.2381 -1.6125
   50MOL   H15218870   0.103   2.713   1.597 -0.3141 -0.3515  1.4892
   50MOL   H15318871   0.235   2.810   1.641 -0.2196 -0.4468 -0.1464
   50MOL   C15418872   0.299   2.702   1.479  0.3775  0.7377  0.4418
   50MOL   C15518873   0.413   2.798   1.432  0.8604  0.0150 -0.2931
   50MOL   C15618874   0.526   2.721   1.358 -0.4449 -0.1570 -0.1064
   50MOL   C15718875   0.623   2.830   1.344  0.1976  0.3657  0.0161
   50MOL   C15818876   0.626   2.903   1.481  0.5887  0.2742  0.0886
   50MOL   C15918877   0.483   2.885   1.536 -0.0087 -0.2215  0.0900
   50MOL   C16018878   0.334   2.564   1.553  0.1033 -0.2371  0.6249
   50MOL   H16118879   0.263   2.663   1.384 -2.8246  2.1584  1.0017
   50MOL   H16218880   0.366   2.859   1.354  0.9691  0.2120 -0.2044
   50MOL   H16318881   0.570   2.637   1.413 -0.3618 -0.4924 -0.6815
   50MOL   H16418882   0.502   2.689   1.257  1.8271 -1.3286 -0.3041
   50MOL   H16518883   0.723   2.801   1.310 -0.6206 -0.1062 -2.0126
   50MOL   H16618884   0.590   2.897   1.265 -2.0246 -0.2337  0.4056
   50MOL   H16718885   0.648   3.009   1.468 -0.0079  0.0081 -3.6477
   50MOL   H16818886   0.698   2.849   1.541  0.8644 -0.6192 -1.0290
   50MOL   H16918887   0.426   2.978   1.547  2.3682  1.4730 -1.5269
   50MOL   H17018888   0.485   2.842   1.637 -0.4073  0.1865  0.2748
   50MOL   H17118889   0.329   2.582   1.660 -3.9710 -0.7520  0.6064
   50MOL   H17218890   0.430   2.521   1.525 -0.8723 -0.7539 -2.0573
   50MOL   C17318891   0.232   2.458   1.498  0.1039 -0.0746 -0.3558
   50MOL   C17418892   0.208   2.345   1.609  1.1389  0.1242 -0.0179
   50MOL   C17518893   0.142   2.403   1.728  0.2577  0.7358  0.0796
   50MOL   C17618894   0.227   2.354   1.850  1.0273  0.1754  0.0104
   50MOL   C17718895   0.318   2.244   1.809  0.8559  0.3545  0.6690
   50MOL   C17818896   0.328   2.264   1.657 -0.0478 -0.2057  0.0982
   50MOL   C17918897   0.280   2.388   1.357  0.3269  0.0947 -0.2154
   50MOL   H18018898   0.134   2.503   1.483  0.6844  1.4777  0.4041
   50MOL   H18118899   0.138   2.273   1.565 -1.1011  1.1343  1.7494
   50MOL   H18218900   0.045   2.356   1.742  1.1857 -0.6854  1.8706
   50MOL   H18318901   0.129   2.511   1.729  0.1166  0.7096  1.7631
   50MOL   H18418902   0.291   2.439   1.875  2.4866  0.0508 -3.0372
   50MOL   H18518903   0.170   2.336   1.941  1.8650 -0.9431  0.3242
   50MOL   H18618904   0.280   2.147   1.838 -2.2325  1.5780  0.8934
   50MOL   H18718905   0.417   2.258   1.854  1.4849 -0.2591 -0.5164
   50MOL   H18818906   0.419   2.323   1.644 -1.5893  2.0637 -0.6501
   50MOL   H18918907   0.356   2.176   1.600 -1.3489 -0.1360 -0.6536
   50MOL   H19018908   0.379   2.426   1.335  0.0509  0.3576 -1.0204
   50MOL   H19118909   0.304   2.283   1.376 -0.3223 -0.4596 -2.3404
   50MOL   C19218910   0.189   2.414   1.240  0.1715  0.2450  0.0682
   50MOL   C19318911   0.067   2.328   1.266  0.1159 -0.4250  0.3831
   50MOL   C19418912   0.085   2.169   1.285 -0.9981  0.1341  0.4476
   50MOL   C19518913   7.639   2.104   1.255 -0.1114 -0.5591  0.1518
   50MOL   C19618914   7.553   2.222   1.227  0.2658  0.6355  0.2994
   50MOL   C19718915   7.646   2.325   1.162 -0.2019  0.0707 -0.1298
   50MOL   C19818916   0.258   2.389   1.100  0.2950  0.4447 -0.3430
   50MOL   H19918917   0.169   2.521   1.238  1.2145  0.5356  3.4121
   50MOL   H20018918   0.022   2.374   1.354  1.5768  1.9198 -0.0422
   50MOL   H20118919   0.126   2.141   1.382  2.2382 -0.9447 -1.1489
   50MOL   H20218920   0.160   2.129   1.217 -1.9947  0.6837 -0.9865
   50MOL   H20318921   7.650   2.040   1.167 -0.6885 -0.2946 -0.1115
   50MOL   H20418922   7.614   2.042   1.341 -0.1623 -1.4392 -0.4942
   50MOL   H20518923   7.500   2.257   1.316  1.7863  0.8962  1.1030
   50MOL   H20618924   7.476   2.192   1.156  1.9931 -1.8357 -0.5962
   50MOL   H20718925   7.599   2.424   1.165  0.9873  0.6835 -1.1467
   50MOL   H20818926   7.680   2.301   1.062 -1.9157  0.4885 -0.8357
   50MOL   H20918927   0.322   2.305   1.128  0.7175  1.0626  0.5483
   50MOL   H21018928   0.193   2.352   1.020 -1.3760  0.6873  0.8741
   50MOL   C21118929   0.341   2.510   1.045  0.6052  0.7709  0.3561
   50MOL   C21218930   0.481   2.473   0.988  0.2237 -0.3097 -0.2508
   50MOL   C21318931   0.579   2.438   1.100 -0.1409  0.5232 -0.4518
   50MOL   C21418932   0.663   2.314   1.057 -0.2937 -0.0327  0.2305
   50MOL   C21518933   0.628   2.309   0.909  0.3762 -0.2254 -0.6944
   50MOL   C21618934   0.485   2.355   0.890 -0.4085  0.7277 -0.1784
   50MOL   C21718935   0.246   2.599   0.956 -0.0074  0.0762 -1.3233
   50MOL   H21818936   0.368   2.576   1.127  4.0488 -0.8745  0.6397
   50MOL   H21918937   0.520   2.560   0.934 -0.5933 -0.5640 -1.2659
   50MOL   H22018938   0.646   2.521   1.122 -0.1727  0.8221 -1.5003
   50MOL   H22118939   0.530   2.422   1.196 -1.1380  2.2409 -0.6621
   50MOL   H22218940   0.770   2.308   1.074 -0.4429 -0.5634  1.0206
   50MOL   H22318941   0.632   2.225   1.112 -1.2066  0.2497  0.1856
   50MOL   H22418942   0.666   2.219   0.861  0.3327  0.2692 -1.6449
   50MOL   H22518943   0.686   2.389   0.864 -0.4720  0.5053 -0.5009
   50MOL   H22618944   0.465   2.397   0.791 -0.3510  0.7180 -0.1939
   50MOL   H22718945   0.408   2.281   0.911  0.7404 -0.3278  0.3970
   50MOL   H22818946   0.151   2.621   1.004  0.0704 -0.1534 -1.0644
   50MOL   H22918947   0.218   2.520   0.885  0.0327  0.1397 -1.4097
   50MOL   C23018948   0.296   2.704   0.850  0.0306  0.2767  0.0080
   50MOL   C23118949   0.311   2.843   0.911  0.2059 -0.2128  0.3389
   50MOL   C23218950   0.419   2.858   1.022  0.4672  0.3317  0.0849
   50MOL   C23318951   0.455   3.008   1.027  0.1846  0.2395 -0.2707
   50MOL   C23418952   0.462   3.043   0.882  0.0676 -0.0050  0.0349
   50MOL   C23518953   0.345   2.965   0.818  0.4459 -0.9134  0.5846
   50MOL   C23618954   0.203   2.698   0.722  0.6576 -0.0799  0.3577
   50MOL   H23718955   0.394   2.681   0.807  0.2210  0.1915  0.4901
   50MOL   H23818956   0.214   2.850   0.960 -0.3561  0.8499 -0.8920
   50MOL   H23918957   0.379   2.826   1.118 -0.4600  0.2339 -0.3261
   50MOL   H24018958   0.507   2.799   0.995  0.5136 -0.4408  1.8905
   50MOL   H24118959   0.378   3.064   1.079 -2.4088 -2.4266 -1.1208
   50MOL   H24218960   0.552   3.022   1.075  0.3937  0.7477 -0.8400
   50MOL   H24318961   0.559   3.030   0.836 -0.7115  0.7053 -1.8544
   50MOL   H24418962   0.441   3.150   0.879  1.6962  0.3235  0.0801
   50MOL   H24518963   0.371   2.939   0.715  1.3459 -1.2937  0.9084
   50MOL   H24618964   0.261   3.033   0.805 -0.5865 -2.0418  1.1967
   50MOL   H24718965   0.174   2.799   0.693 -0.8218  0.5404  3.7782
   50MOL   H24818966   0.109   2.650   0.749  0.6971 -1.3981 -1.7137
   50MOL   C24918967   0.253   2.610   0.605 -0.1124 -0.7548 -0.0273
   50MOL   C25018968   0.386   2.672   0.538 -0.0263  0.5337  0.4790
   50MOL   C25118969   0.355   2.794   0.451  0.3108  0.2583  0.3559
   50MOL   C25218970   0.472   2.796   0.355  0.5147 -0.2514  0.1017
   50MOL   C25318971   0.542   2.660   0.355 -0.5940 -0.1554 -0.0874
   50MOL   C25418972   0.457   2.576   0.444  0.1451  0.1178 -0.9258
   50MOL   C25518973   0.134   2.574   0.507 -0.2348  0.3227  0.3036
   50MOL   H25618974   0.285   2.512   0.641  2.8151 -0.8948 -2.8222
   50MOL   H25718975   0.463   2.712   0.604  0.7748  0.0440 -0.1432
   50MOL   H25818976   0.344   2.884   0.512  0.3157  0.5627 -0.0869
   50MOL   H25918977   0.267   2.789   0.388  1.6598  0.8926 -1.6319
   50MOL   H26018978   0.538   2.880   0.376  1.4632 -1.6901  3.2670
   50MOL   H26118979   0.438   2.825   0.256 -0.5962 -1.8238  0.0026
   50MOL   H26218980   0.640   2.662   0.404  0.2884  0.7071 -1.8245
   50MOL   H26318981   0.557   2.622   0.254 -0.3119 -0.0639 -0.0820
   50MOL   H26418982   0.509   2.501   0.503 -0.1327 -1.3932 -2.5734
   50MOL   H26518983   0.392   2.520   0.378 -1.0486 -1.3092  1.3899
   50MOL   H26618984   0.065   2.658   0.501 -0.9156 -0.3639 -1.8244
   50MOL   H26718985   0.177   2.563   0.407 -0.3720 -5.0997  0.6789
   50MOL   C26818986   0.067   2.437   0.531  0.3559  0.1407 -0.5856
   50MOL   C26918987   0.169   2.329   0.496 -0.0705  0.3890  0.0990
   50MOL   C27018988   0.160   2.269   0.358 -0.2808  0.4616 -0.3469
   50MOL   C27118989   0.228   2.135   0.365 -0.0945 -0.5302  0.2832
   50MOL   C27218990   0.263   2.116   0.512  0.3720 -0.0195 -0.0072
   50MOL   C27318991   0.185   2.215   0.594  0.3365 -0.1895 -0.3519
   50MOL   C27418992   7.609   2.424   0.477  0.8610 -0.4722  0.8916
   50MOL   H27518993   0.057   2.437   0.640  0.7288 -1.2502 -0.5387
   50MOL   H27618994   0.271   2.366   0.498  0.2413 -0.4820  0.4850
   50MOL   H27718995   0.061   2.252   0.317 -0.3785 -0.2603  0.1729
   50MOL   H27818996   0.212   2.335   0.288 -0.4235 -0.9764 -1.8411
   50MOL   H27918997   0.152   2.068   0.323  0.8629 -0.9891 -0.7518
   50MOL   H28018998   0.311   2.132   0.294  0.1903  0.4186  0.5785
   50MOL   H28118999   0.372   2.125   0.520  0.4996 -1.5720  0.1952
   50MOL   H28219000   0.235   2.012   0.531  0.6347  0.2793  2.1785
   50MOL   H28319001   0.229   2.245   0.689  0.7377 -0.8140 -0.3375
   50MOL   H28419002   0.091   2.168   0.621 -0.8305  2.3083  0.0282
   50MOL   H28519003   7.584   2.322   0.449  1.3146  0.0117 -1.4058
   50MOL   H28619004   7.614   2.486   0.387  0.7544  1.0860  1.9352
   50MOL   C28719005   7.487   2.487   0.558 -0.6329  0.4706  0.0729
   50MOL   C28819006   7.429   2.398   0.671  0.3932  0.7511 -0.0563
   50MOL   C28919007   7.380   2.258   0.623  0.3070 -0.0019 -0.7956
   50MOL   C29019008   7.360   2.175   0.753  0.1980  0.4220  1.3332
   50MOL   C29119009   7.452   2.236   0.860 -0.5215 -0.3315 -0.3990
   50MOL   C29219010   7.520   2.359   0.791 -0.3227  0.4348 -0.3613
   50MOL   C29319011   7.512   2.638   0.615  0.4686  0.6519  0.3103
   50MOL   H29419012   7.408   2.498   0.484 -1.2079  1.1989  0.7799
   50MOL   H29519013   7.340   2.441   0.716 -0.0586  0.3235 -0.5325
   50MOL   H29619014   7.284   2.273   0.573 -0.7031 -0.3479  1.0057
   50MOL   H29719015   7.457   2.211   0.562  1.6018  0.9607  0.0752
   50MOL   H29819016   7.258   2.193   0.788 -0.1622 -0.7403  0.8824
   50MOL   H29919017   7.365   2.067   0.740 -0.5703  0.4131  1.0721
   50MOL   H30019018   7.525   2.168   0.906  1.9657  2.0147 -0.7379
   50MOL   H30119019   7.405   2.275   0.950  4.2300 -0.6514  2.4178
   50MOL   H30219020   7.619   2.327   0.760 -0.5910  0.2310 -1.0225
   50MOL   H30319021   7.544   2.441   0.859 -1.7723  0.4088  0.1960
   50MOL   H30419022   7.560   2.687   0.530 -0.2157  0.2400 -0.3157
   50MOL   H30519023   7.585   2.634   0.696 -1.0845  0.3705  1.7290
   50MOL   C30619024   7.390   2.726   0.651  0.0373 -0.8504  0.7403
   50MOL   C30719025   7.436   2.866   0.698 -0.2506 -0.3197 -0.1620
   50MOL   C30819026   7.512   2.860   0.833  0.9849  0.0372  0.2320
   50MOL   C30919027   7.603   2.986   0.838 -0.5793 -1.1784  0.1587
   50MOL   C31019028   7.616   3.037   0.692  0.1385 -0.0941  0.3544
   50MOL   C31119029   7.533   2.941   0.605 -0.4721 -0.7885  0.8862
   50MOL   C31219030   7.293   2.727   0.529 -0.7175 -0.0116 -0.7500
   50MOL   H31319031   7.329   2.673   0.725 -1.2948 -1.6442 -0.8973
   50MOL   H31419032   7.348   2.927   0.717  1.0090  2.0355 -1.7240
   50MOL   H31519033   7.583   2.778   0.830  0.4586 -0.4667  1.4103
   50MOL   H31619034   7.448   2.842   0.920  0.6263 -0.5934 -0.1623
   50MOL   H31719035   7.550   3.068   0.886 -0.0554 -0.3288 -0.6902
   50MOL   H31819036   0.008   2.963   0.887  1.2987 -0.1251 -2.8514
   50MOL   H31919037   0.030   3.030   0.658 -0.0129 -0.5178 -0.0227
   50MOL   H32019038   7.580   3.139   0.682 -0.1487 -0.1940  0.3708
   50MOL   H32119039   7.493   2.988   0.515 -0.8301 -2.1559  0.3076
   50MOL   H32219040   7.607   2.869   0.570 -1.9127 -2.0475  0.3419
   50MOL   H32319041   7.265   2.628   0.494 -0.6470  0.6188 -2.6767
   50MOL   H32419042   7.352   2.766   0.446  0.1952 -2.1860 -1.1537
   50MOL   C32519043   7.174   2.817   0.538  0.7632 -0.7639  0.7530
   50MOL   C32619044   7.078   2.775   0.646  0.3729  0.0630 -0.7979
   50MOL   C32719045   6.986   2.660   0.609 -0.7397  0.0422 -0.1997
   50MOL   C32819046   6.877   2.656   0.717 -0.2461 -0.1804 -0.1956
   50MOL   C32919047   6.855   2.802   0.750  0.5172 -0.2654  0.2920
   50MOL   C33019048   6.973   2.878   0.699 -0.3371 -0.1874 -0.0619
   50MOL   C33119049   7.104   2.839   0.406 -0.6088 -0.1611  0.4902
   50MOL   H33219050   7.204   2.915   0.573 -3.1330  1.5553 -2.0534
   50MOL   H33319051   7.135   2.744   0.734 -1.1858  0.9009  0.5550
   50MOL   H33419052   7.036   2.563   0.610  0.9702  0.9271  0.3593
   50MOL   H33519053   6.938   2.671   0.511 -0.8738  1.9641  0.0798
   50MOL   H33619054   6.915   2.593   0.797 -0.4088  0.4671  0.3919
   50MOL   H33719055   6.789   2.602   0.682 -0.4051 -0.0891  0.0681
   50MOL   H33819056   6.844   2.821   0.857 -3.3596 -0.9446  0.1063
   50MOL   H33919057   6.768   2.846   0.701  0.6791  2.2515  2.1894
   50MOL   H34019058   7.000   2.948   0.779 -3.9000 -0.7462  1.7625
   50MOL   H34119059   6.935   2.950   0.626 -0.4161  0.1059  0.2645
   50MOL   H34219060   7.019   2.902   0.428  0.4905  1.2665  0.7242
   50MOL   H34319061   7.062   2.742   0.380 -2.0514  0.3419  0.9122
   50MOL   C34419062   7.170   2.912   0.288 -0.2036 -1.0659  0.4141
   50MOL   C34519063   7.128   3.062   0.292 -0.4141 -0.5134  0.1927
   50MOL   C34619064   6.986   3.090   0.236  0.5327  0.0617 -0.1109
   50MOL   C34719065   6.990   3.227   0.170  0.8599 -1.0329  0.2371
   50MOL   C34819066   7.140   3.272   0.170 -0.5733  0.5009  0.2560
   50MOL   C34919067   7.217   3.145   0.191  0.3329  0.3293  0.3595
   50MOL   C35019068   7.136   2.837   0.154 -0.2766 -0.0476  0.0958
   50MOL   H35119069   7.277   2.919   0.303 -0.1824 -1.6316  0.5241
   50MOL   H35219070   7.149   3.102   0.391  1.0170 -0.0087 -0.3019
   50MOL   H35319071   6.926   3.091   0.327 -0.4674 -1.0873 -0.7385
   50MOL   H35419072   6.967   3.017   0.157  4.3304 -0.4264 -0.6641
   50MOL   H35519073   6.952   3.210   0.069 -2.3344  3.0064  0.6284
   50MOL   H35619074   6.934   3.303   0.225 -2.5885 -2.4681 -1.1622
   50MOL   H35719075   7.156   3.328   0.262  0.2215 -0.0982  0.4938
   50MOL   H35819076   7.177   3.334   0.089  0.5698  0.8653  1.0435
   50MOL   H35919077   7.229   3.095   0.095  0.8189  2.3282 -0.6469
   50MOL   H36019078   7.322   3.165   0.212  0.5444 -1.1620  0.7733
   50MOL   H36119079   7.156   2.901   0.068  0.9585  0.2807  0.6197
   50MOL   H36219080   7.029   2.813   0.156 -0.4094  0.3830 -1.6305
   50MOL   C36319081   7.219   2.719   0.126 -0.0984  0.4993 -0.4951
   50MOL   C36419082   7.161   2.635   0.013 -0.3911  0.0471  0.4592
   50MOL   C36519083   7.020   2.579   0.044 -0.0432 -0.8100 -0.0712
   50MOL   C36619084   7.010   2.466   7.630 -0.3457  0.5539  0.1277
   50MOL   C36719085   7.147   2.399   7.626 -0.4381 -0.1295 -0.1393
   50MOL   C36819086   7.245   2.516   7.660  0.4587 -0.1615 -0.2812
   50MOL   C36919087   7.367   2.760   0.101  0.9810 -0.1369  0.2313
   50MOL   H37019088   7.219   2.660   0.217 -1.8350 -1.0672 -1.4817
   50MOL   H37119089   7.146   2.695   7.613 -0.3265 -0.7284 -0.0832
   50MOL   H37219090   7.010   2.536   0.143  0.0836 -0.6900 -0.0055
   50MOL   H37319091   6.942   2.655   0.030  1.2040  0.9029  2.0113
   50MOL   H37419092   6.924   2.400   7.645 -0.0151  0.3230  1.0418
   50MOL   H37519093   6.994   2.507   7.531 -0.9558 -1.5012 -0.6670
   50MOL   H37619094   7.154   2.329   0.019  1.9416  1.4195  1.0230
   50MOL   H37719095   7.159   2.355   7.527  3.1543  0.8660 -0.1914
   50MOL   H37819096   7.308   2.546   7.576 -0.1162 -0.9033 -0.9808
   50MOL   H37919097   7.315   2.485   0.047  0.7331  0.8244 -0.1214
   50MOL   H38019098   7.400   2.795   0.198  1.1137  0.8634 -0.1648
   50MOL   H38119099   7.376   2.840   0.027 -0.7919  0.3424  0.5061
   50MOL   H38219100   7.427   2.677   0.062  2.1817  1.7825 -2.1897
   51MOL     C119101   7.659   0.884   4.364  0.3183  0.5276  0.7220
   51MOL     C219102   0.009   0.960   4.482 -0.0342 -0.2480 -0.3359
   51MOL     C319103   7.647   0.893   4.612  0.3819 -0.2381 -0.1772
   51MOL     C419104   7.633   1.002   4.717  0.3274  0.1078  0.0519
   51MOL     C519105   7.635   1.136   4.640 -0.6861  0.4481 -0.8480
   51MOL     C619106   7.642   1.100   4.491  0.3279 -0.1901 -0.1064
   51MOL     C719107   0.033   0.934   4.231 -0.1812 -0.0326  0.3441
   51MOL     H819108   0.003   0.784   4.393 -4.7578 -1.9556 -1.3444
   51MOL     H919109   0.116   0.984   4.481 -0.4067  1.5134 -0.0759
   51MOL    H1019110   7.544   0.861   4.602 -0.1668  0.6364  2.2957
   51MOL    H1119111   0.023   0.810   4.639 -0.6502 -1.4715 -1.4156
   51MOL    H1219112   7.545   0.997   4.780  0.8695 -0.8922  0.7478
   51MOL    H1319113   0.026   0.995   4.788 -1.3269 -2.3851  1.8227
   51MOL    H1419114   7.549   1.201   4.656 -0.7613  0.5295 -1.5855
   51MOL    H1519115   0.030   1.191   4.681 -1.5904  1.3965 -0.2472
   51MOL    H1619116   0.012   1.168   4.430  1.6568 -0.0711  1.3120
   51MOL    H1719117   7.540   1.097   4.451 -0.8133  2.4525  2.5021
   51MOL    H1819118   0.010   1.038   4.210  0.5006  0.1472  0.5012
   51MOL    H1919119   0.141   0.929   4.243 -0.2658  0.0430  1.2111
   51MOL    H2019120   7.552   0.876   4.346  0.4994  2.2786 -1.2193
   51MOL    C2119121   7.677   0.849   4.106  0.7494  0.3899  0.4012
   51MOL    C2219122   7.539   0.902   4.052 -0.6175 -1.0472  0.5467
   51MOL    C2319123   7.460   0.800   3.969  0.1144  0.2067  0.0188
   51MOL    C2419124   7.371   0.877   3.884  0.1658  0.0750  0.2101
   51MOL    C2519125   7.421   1.020   3.889  0.4332 -0.1379  0.2222
   51MOL    C2619126   7.544   1.033   3.982  0.6652  0.1352  0.1386
   51MOL    C2719127   0.099   0.841   4.000  0.0471  0.3098 -0.1946
   51MOL    H2819128   7.671   0.745   4.139 -1.6890  0.8973  1.6572
   51MOL    H2919129   7.483   0.929   4.141 -1.0160 -0.8784  0.2461
   51MOL    H3019130   7.405   0.727   4.028  1.2897 -1.0420 -0.3925
   51MOL    H3119131   7.520   0.738   3.902 -1.9187 -1.6028 -0.1791
   51MOL    H3219132   7.366   0.833   3.784 -1.5014 -0.1366  0.3716
   51MOL    H3319133   7.269   0.887   3.922  0.6848  2.7876  0.9433
   51MOL    H3419134   7.347   1.090   3.930  1.4446 -0.0556  1.9697
   51MOL    H3519135   7.446   1.055   3.789 -0.1354  1.9083  0.7607
   51MOL    H3619136   7.540   1.121   4.046  0.1383 -0.2037  0.5722
   51MOL    H3719137   7.633   1.040   3.918  0.5919 -2.1545 -0.2555
   51MOL    H3819138   0.054   0.787   3.916  0.8922 -0.2760 -0.2690
   51MOL    H3919139   0.116   0.938   3.953  0.2979  0.0420 -0.6548
   51MOL    C4019140   0.237   0.767   4.029 -0.5034 -0.3105  0.0455
   51MOL    C4119141   0.229   0.640   4.104 -0.2300 -0.0083 -0.2940
   51MOL    C4219142   0.363   0.608   4.167 -0.3403 -0.4658  0.5515
   51MOL    C4319143   0.366   0.453   4.175 -0.1490  1.0287  0.2695
   51MOL    C4419144   0.273   0.397   4.068  0.1371 -0.2539 -0.3208
   51MOL    C4519145   0.187   0.512   4.024  0.4470 -0.5024  0.7508
   51MOL    C4619146   0.314   0.763   3.898  0.4307 -0.2020 -0.7668
   51MOL    H4719147   0.299   0.833   4.090 -0.2125  1.0456 -1.6888
   51MOL    H4819148   0.170   0.648   4.195  1.0325 -1.5461  0.6855
   51MOL    H4919149   0.376   0.640   4.271  1.3833  1.0316 -0.1097
   51MOL    H5019150   0.445   0.635   4.100 -0.9652  0.3092  0.0971
   51MOL    H5119151   0.318   0.426   4.270 -0.0541 -1.7496 -0.4323
   51MOL    H5219152   0.471   0.423   4.173  0.0507  1.8368 -3.0268
   51MOL    H5319153   0.333   0.355   3.987 -0.5927  1.7522 -1.9419
   51MOL    H5419154   0.214   0.321   4.119  1.9902 -0.4572  1.6062
   51MOL    H5519155   0.208   0.531   3.918  1.5542 -0.3376  0.9974
   51MOL    H5619156   0.079   0.495   4.021 -0.5981  5.0156  1.4970
   51MOL    H5719157   0.400   0.696   3.909  0.1617 -0.5066 -0.5171
   51MOL    H5819158   0.250   0.724   3.819 -0.6805  2.7608 -1.3938
   51MOL    C5919159   0.370   0.894   3.842 -0.5407  0.2682 -0.0506
   51MOL    C6019160   0.492   0.958   3.924 -0.4340  0.4603 -0.3011
   51MOL    C6119161   0.543   1.097   3.875  0.2920  0.1954 -0.1246
   51MOL    C6219162   0.686   1.085   3.820  0.0769  0.6033 -0.6422
   51MOL    C6319163   0.737   0.977   3.918  0.3111  0.2427  0.7484
   51MOL    C6419164   0.622   0.874   3.935 -0.0229  0.4518 -0.5926
   51MOL    C6519165   0.407   0.883   3.685 -0.2731  0.3154  0.1221
   51MOL    H6619166   0.291   0.968   3.849 -1.8446 -1.0576 -0.6338
   51MOL    H6719167   0.460   0.967   4.027  1.9372 -1.7697  0.6989
   51MOL    H6819168   0.547   1.170   3.956 -2.1138 -0.8190  0.9273
   51MOL    H6919169   0.474   1.136   3.800  0.4166 -0.7750 -0.7645
   51MOL    H7019170   0.755   1.168   3.832  2.7986 -2.0268  2.9449
   51MOL    H7119171   0.699   1.052   3.716 -0.7026  3.2614 -1.6067
   51MOL    H7219172   0.768   1.026   4.010  0.7191 -0.4229  0.9736
   51MOL    H7319173   0.825   0.928   3.877 -0.1291  0.0882 -0.0120
   51MOL    H7419174   0.622   0.809   3.847 -1.7018  0.0792 -0.3544
   51MOL    H7519175   0.625   0.818   4.029  2.1557  1.4214 -0.0719
   51MOL    H7619176   0.483   0.805   3.680 -1.3092 -0.6501 -0.9214
   51MOL    H7719177   0.460   0.974   3.657  0.8393 -0.0881  0.9103
   51MOL    C7819178   0.302   0.832   3.584 -0.8164 -0.2049  1.2923
   51MOL    C7919179   0.177   0.921   3.595  0.3479 -0.0786 -0.5489
   51MOL    C8019180   0.041   0.851   3.572  0.2267 -0.4560  0.4565
   51MOL    C8119181   7.623   0.960   3.531  0.5360 -0.3684 -0.8009
   51MOL    C8219182   0.011   1.089   3.515 -0.3836 -0.2557 -0.0628
   51MOL    C8319183   0.162   1.065   3.529 -0.2692  0.5918 -0.3545
   51MOL    C8419184   0.364   0.836   3.435  0.0378  0.1681 -0.4345
   51MOL    H8519185   0.274   0.731   3.616 -2.2894  0.0722  0.8847
   51MOL    H8619186   0.160   0.938   3.702  0.3533  0.2488 -0.6005
   51MOL    H8719187   0.014   0.800   3.664 -1.8900 -0.2607 -0.0291
   51MOL    H8819188   0.054   0.786   3.485  0.9541  1.3733 -0.8470
   51MOL    H8919189   7.549   0.972   3.610  0.9495 -1.2524 -0.2655
   51MOL    H9019190   7.562   0.924   3.449  0.0243  0.2837 -0.7033
   51MOL    H9119191   0.011   1.127   3.413  3.6208  2.2628  0.7759
   51MOL    H9219192   7.655   1.159   3.585 -1.3966 -0.3973 -0.5711
   51MOL    H9319193   0.214   1.078   3.434  0.6165  2.4374  0.3482
   51MOL    H9419194   0.206   1.142   3.593 -0.2339 -0.3929  0.8189
   51MOL    H9519195   0.370   0.938   3.397  0.5097  1.2996  2.5808
   51MOL    H9619196   0.283   0.789   3.379  0.7500 -0.6385 -0.7951
   51MOL    C9719197   0.499   0.755   3.406  0.2175  0.3618 -0.2384
   51MOL    C9819198   0.564   0.773   3.271  0.1792  0.5148  0.9962
   51MOL    C9919199   0.472   0.747   3.148 -0.4305  0.0069 -0.4196
   51MOL   C10019200   0.525   0.854   3.052 -0.4154  1.1362 -0.2276
   51MOL   C10119201   0.577   0.972   3.137  0.2115 -0.6392 -0.0302
   51MOL   C10219202   0.638   0.907   3.262  0.3368  0.4500 -0.0220
   51MOL   C10319203   0.490   0.598   3.431 -0.1782  0.4380 -0.0390
   51MOL   H10419204   0.572   0.799   3.474  2.2350 -0.0508 -2.0584
   51MOL   H10519205   0.645   0.701   3.259 -0.8567 -0.4803 -0.2893
   51MOL   H10619206   0.480   0.646   3.107 -1.2079  0.4799 -1.7785
   51MOL   H10719207   0.368   0.756   3.179  0.0650  1.0203  0.9423
   51MOL   H10819208   0.460   0.872   2.965  0.7691 -1.6636 -1.7428
   51MOL   H10919209   0.611   0.815   2.999 -0.8350 -0.6615  0.3784
   51MOL   H11019210   0.489   1.034   3.155  0.4422 -0.2147 -0.3933
   51MOL   H11119211   0.654   1.025   3.081 -1.6199  0.7547 -1.2815
   51MOL   H11219212   0.745   0.886   3.265 -0.0300 -1.6553 -0.3993
   51MOL   H11319213   0.607   0.969   3.345 -1.9688 -0.5178 -0.1156
   51MOL   H11419214   0.421   0.564   3.509 -2.1038  0.0757 -1.8598
   51MOL   H11519215   0.457   0.549   3.339 -1.7178  1.2687  0.0461
   51MOL   C11619216   0.613   0.529   3.485  0.2249  0.7240 -0.2979
   51MOL   C11719217   0.641   0.546   3.638  0.1005  0.1401  0.7641
   51MOL   C11819218   0.548   0.472   3.724  0.1919  0.3932 -0.6211
   51MOL   C11919219   0.610   0.447   3.856 -0.5891  0.2877  0.4279
   51MOL   C12019220   0.758   0.483   3.843  0.1505 -0.3901  0.2696
   51MOL   C12119221   0.778   0.492   3.690  0.1867  0.5979  0.0745
   51MOL   C12219222   0.608   0.384   3.448  0.1602  0.3135 -0.0798
   51MOL   H12319223   0.702   0.574   3.438  0.1342  0.0780 -1.0987
   51MOL   H12419224   0.623   0.651   3.660 -0.1882  0.0123  1.1395
   51MOL   H12519225   0.456   0.528   3.741  0.2071 -0.2295  1.6562
   51MOL   H12619226   0.520   0.381   3.672 -2.5172  0.4703  0.6674
   51MOL   H12719227   0.595   0.339   3.863 -1.6572  0.1411 -3.3614
   51MOL   H12819228   0.553   0.494   3.936  0.4986  3.0014 -0.3344
   51MOL   H12919229   0.823   0.412   3.893  2.0048  1.0858  0.0312
   51MOL   H13019230   0.775   0.585   3.878 -1.3862  1.5855 -4.2775
   51MOL   H13119231   0.867   0.548   3.662  0.2362 -0.0612 -1.1014
   51MOL   H13219232   0.788   0.388   3.659 -2.6807  0.4818 -0.5786
   51MOL   H13319233   0.504   0.351   3.441  0.2640  0.2333 -1.2627
   51MOL   H13419234   0.659   0.318   3.518  0.3912  0.2758 -0.2853
   51MOL   C13519235   0.682   0.346   3.318 -0.0476  1.0945  0.2087
   51MOL   C13619236   0.654   0.197   3.269 -0.1545  0.1822  0.2786
   51MOL   C13719237   0.506   0.160   3.245 -0.2674  0.0945  0.4059
   51MOL   C13819238   0.499   0.009   3.256 -0.4478  0.3645 -0.5928
   51MOL   C13919239   0.622   7.649   3.331 -0.0501 -0.4282  0.5660
   51MOL   C14019240   0.694   0.088   3.367  0.2946 -0.4664  0.7966
   51MOL   C14119241   0.836   0.365   3.326  0.4960  0.4603  0.1525
   51MOL   H14219242   0.640   0.412   3.242  0.1200 -1.6988 -2.4227
   51MOL   H14319243   0.707   0.180   3.175 -1.5141 -2.2672 -0.0738
   51MOL   H14419244   0.438   0.212   3.312 -3.0098 -2.0746 -0.5992
   51MOL   H14519245   0.486   0.196   3.144  0.4792  0.2673  0.3212
   51MOL   H14619246   0.501   7.643   3.162  4.0700  0.9071 -0.9202
   51MOL   H14719247   0.406   7.664   3.300 -1.0323 -0.4614 -2.4208
   51MOL   H14819248   0.680   7.579   3.272  0.9955 -0.0089  1.0847
   51MOL   H14919249   0.592   7.597   3.423  0.7282 -0.9510  0.5309
   51MOL   H15019250   0.660   0.124   3.464  0.6179  1.8028  0.0942
   51MOL   H15119251   0.799   0.072   3.389  0.6806  0.1108 -0.5520
   51MOL   H15219252   0.872   0.287   3.393 -1.2392 -0.7733 -0.3459
   51MOL   H15319253   0.857   0.463   3.371  0.2920  0.1418  0.9584
   51MOL   C15419254   0.916   0.350   3.200 -0.0937  0.2640 -0.0267
   51MOL   C15519255   0.891   0.473   3.104 -0.2056 -0.7966  0.4127
   51MOL   C15619256   0.946   0.463   2.963  0.3000 -0.5671  0.4409
   51MOL   C15719257   0.959   0.609   2.917  0.0797 -0.1224  0.1280
   51MOL   C15819258   0.980   0.690   3.035  0.0296  0.1815  0.9866
   51MOL   C15919259   0.932   0.612   3.158  0.2652 -0.1327  0.2923
   51MOL   C16019260   1.066   0.338   3.229 -0.3183 -0.7841  0.2911
   51MOL   H16119261   0.885   0.262   3.144  1.7650  1.0282 -2.3414
   51MOL   H16219262   0.783   0.471   3.089 -0.2443 -0.9775  0.7013
   51MOL   H16319263   1.040   0.410   2.947  0.2188  0.2926 -3.3560
   51MOL   H16419264   0.874   0.413   2.899 -0.7318 -0.9529  1.8927
   51MOL   H16519265   1.028   0.611   2.833  0.0103  1.7677  0.1084
   51MOL   H16619266   0.869   0.646   2.869  0.1144  0.5119  0.5540
   51MOL   H16719267   0.942   0.792   3.027  1.1331  0.4801 -0.6817
   51MOL   H16819268   1.088   0.704   3.042  0.2758 -2.1145  2.3152
   51MOL   H16919269   0.851   0.654   3.218  0.3126 -0.3650  0.5229
   51MOL   H17019270   1.012   0.611   3.233 -0.9893  2.6556  1.7485
   51MOL   H17119271   1.100   0.413   3.300  1.3974 -0.6664 -0.6388
   51MOL   H17219272   1.122   0.377   3.144 -0.8995 -1.1859 -0.2852
   51MOL   C17319273   1.121   0.198   3.267 -0.3076  1.0565  0.4286
   51MOL   C17419274   1.257   0.196   3.340  0.6886 -0.0568 -0.6336
   51MOL   C17519275   1.237   0.249   3.487  0.2161  0.2858  0.1055
   51MOL   C17619276   1.367   0.326   3.515 -0.4602  0.1376 -0.0419
   51MOL   C17719277   1.414   0.382   3.383  0.0441 -0.2106  0.3547
   51MOL   C17819278   1.368   0.280   3.274 -0.8948  1.0057  0.3402
   51MOL   C17919279   1.148   0.127   3.134 -0.3711  0.5335 -0.2051
   51MOL   H18019280   1.041   0.151   3.324 -0.5600  1.5154  0.4567
   51MOL   H18119281   1.282   0.091   3.355 -2.0409 -0.3336  2.7439
   51MOL   H18219282   1.227   0.161   3.550 -0.8636 -0.6852 -1.4018
   51MOL   H18319283   1.152   0.315   3.507 -0.1627  0.1027 -0.8553
   51MOL   H18419284   1.348   0.398   3.595 -0.2570  0.3415 -0.1768
   51MOL   H18519285   1.444   0.256   3.546 -0.2513  0.9813  1.3861
   51MOL   H18619286   1.520   0.406   3.387  0.3543 -1.8035  1.7006
   51MOL   H18719287   1.363   0.478   3.374 -3.1644 -1.8118  0.6865
   51MOL   H18819288   1.333   0.334   3.186 -1.7117  0.2043  0.1668
   51MOL   H18919289   1.450   0.216   3.243 -0.5599  0.7049  1.8096
   51MOL   H19019290   1.080   0.154   3.052  1.2539 -0.7141 -1.9936
   51MOL   H19119291   1.240   0.158   3.084 -0.8191  1.2232 -0.6140
   51MOL   C19219292   1.145   7.658   3.140 -0.1799 -0.6428  0.3984
   51MOL   C19319293   1.245   7.598   3.044  0.4363  0.8733  0.5033
   51MOL   C19419294   1.392   7.622   3.075 -0.4364  0.4163  0.2528
   51MOL   C19519295   1.461   7.586   2.944 -0.3192 -0.2397 -0.0924
   51MOL   C19619296   1.382   7.662   2.839  0.5536 -0.2057  0.1124
   51MOL   C19719297   1.237   7.652   2.897  0.7560 -0.1384  0.3122
   51MOL   C19819298   0.999   7.609   3.113 -0.1213  0.1213  0.4062
   51MOL   H19919299   1.177   7.623   3.238  0.0191  2.8323  1.6391
   51MOL   H20019300   1.242   7.489   3.033  1.3082  0.7805  1.1084
   51MOL   H20119301   1.429   7.557   3.155 -1.8187 -0.5889  0.0868
   51MOL   H20219302   1.411   0.037   3.097  0.7906 -0.2016  2.2898
   51MOL   H20319303   1.558   7.636   2.945 -1.0196  1.1403  0.6475
   51MOL   H20419304   1.475   7.480   2.921 -0.7634 -0.4750  0.6735
   51MOL   H20519305   1.394   7.609   2.745 -1.5108 -0.1949 -0.1803
   51MOL   H20619306   1.425   0.071   2.820  0.6311 -0.5781 -1.7522
   51MOL   H20719307   1.177   7.588   2.832 -1.9053  1.3304  1.2229
   51MOL   H20819308   1.176   0.053   2.887 -0.7883 -0.7313  3.5208
   51MOL   H20919309   0.939   7.637   3.199 -0.8394 -0.1780  0.0087
   51MOL   H21019310   0.957   7.661   3.027  1.1456 -1.9447 -1.5147
   51MOL   C21119311   0.974   7.458   3.090 -0.8294  0.3818  0.2115
   51MOL   C21219312   1.003   7.379   3.218 -0.1920 -0.5148  0.2022
   51MOL   C21319313   0.935   7.425   3.352 -0.1038 -0.1919  0.0818
   51MOL   C21419314   0.944   7.306   3.453 -0.6434  0.1114  0.2031
   51MOL   C21519315   0.963   7.178   3.362  0.1356 -1.1380  0.0145
   51MOL   C21619316   0.980   7.228   3.215  0.4783 -0.0205  0.0744
   51MOL   C21719317   0.825   7.450   3.025 -0.3606  0.3780 -0.8193
   51MOL   H21819318   1.046   7.417   3.020 -0.0466 -0.9183  1.7359
   51MOL   H21919319   1.109   7.396   3.240 -0.6778  3.0348  0.0940
   51MOL   H22019320   0.964   7.519   3.400 -1.2955  1.0186 -1.5309
   51MOL   H22119321   0.831   7.436   3.321  0.1395 -3.4230 -2.1598
   51MOL   H22219322   1.024   7.313   3.526 -0.8670 -3.4391  0.8986
   51MOL   H22319323   0.857   7.306   3.519 -0.8728  0.6069 -0.0940
   51MOL   H22419324   0.876   7.112   3.368 -1.9880  1.5568 -0.0572
   51MOL   H22519325   1.049   7.122   3.397  0.0498 -1.9988 -1.1252
   51MOL   H22619326   1.068   7.174   3.178  0.8547  0.3347  0.4413
   51MOL   H22719327   0.895   7.202   3.153 -1.7205 -1.1235  3.4252
   51MOL   H22819328   0.759   7.514   3.084  3.0220  2.8983  0.3959
   51MOL   H22919329   0.785   7.350   3.043  0.6436  0.0440 -0.4083
   51MOL   C23019330   0.820   7.480   2.873 -0.4539  0.0698  0.3811
   51MOL   C23119331   0.696   7.567   2.842 -0.3399  0.0253 -0.5802
   51MOL   C23219332   0.708   0.025   2.892 -0.4994 -0.5818 -0.4944
   51MOL   C23319333   0.620   0.107   2.809 -0.2423 -0.2072  0.3182
   51MOL   C23419334   0.625   0.035   2.674 -0.5037  0.0625  0.0740
   51MOL   C23519335   0.687   7.589   2.692  0.5788  0.0801 -0.0017
   51MOL   C23619336   0.809   7.339   2.792 -0.0541 -0.0784  0.0403
   51MOL   H23719337   0.904   7.540   2.839  0.3416 -0.0928  1.9973
   51MOL   H23819338   0.599   7.523   2.866  0.1460  0.2567  1.9955
   51MOL   H23919339   0.690   0.035   2.999  1.2712 -0.0435 -0.2397
   51MOL   H24019340   0.813   0.051   2.883 -0.6357  0.0318 -0.2953
   51MOL   H24119341   0.516   0.121   2.838 -0.2889  0.4473 -0.1572
   51MOL   H24219342   0.666   0.206   2.809  0.1949 -0.3850 -1.2851
   51MOL   H24319343   0.690   0.095   2.611 -1.6190  0.4848 -0.6871
   51MOL   H24419344   0.526   0.022   2.632 -0.7470  2.0641 -0.0109
   51MOL   H24519345   0.786   7.586   2.647  0.4141  0.5431 -0.3990
   51MOL   H24619346   0.636   7.509   2.638 -4.3048  0.8547  3.1657
   51MOL   H24719347   0.794   7.350   2.685 -0.1030 -3.4509 -0.3641
   51MOL   H24819348   0.714   7.292   2.819 -0.5393  0.8448 -0.0372
   51MOL   C24919349   0.931   7.241   2.800  0.3735 -0.3186  0.2030
   51MOL   C25019350   1.055   7.302   2.732 -0.4888 -0.5182  0.3868
   51MOL   C25119351   1.056   7.339   2.584 -0.4384  0.0202  0.2461
   51MOL   C25219352   1.204   7.388   2.555  0.7399  0.4330  0.3225
   51MOL   C25319353   1.286   7.288   2.624  1.0680  0.4269 -0.4886
   51MOL   C25419354   1.199   7.236   2.739 -0.5890  0.3858  0.1519
   51MOL   C25519355   0.894   7.104   2.735  0.6447 -0.1721  0.3073
   51MOL   H25619356   0.966   7.217   2.901  0.2340  0.6006  0.4761
   51MOL   H25719357   1.064   7.398   2.783 -1.6836 -1.2182  1.9555
   51MOL   H25819358   0.994   7.426   2.562  1.1231  1.0500 -0.1234
   51MOL   H25919359   1.032   7.257   2.517  1.3707 -1.3786  1.2704
   51MOL   H26019360   1.203   7.490   2.594  0.3476  0.5729 -0.0530
   51MOL   H26119361   1.216   7.389   2.447  1.1623  1.3500  0.3709
   51MOL   H26219362   1.385   7.329   2.642  2.3888 -2.0212 -1.9472
   51MOL   H26319363   1.297   7.204   2.556 -2.1655  1.2618 -2.1763
   51MOL   H26419364   1.242   7.250   2.838  1.7243 -2.8325 -0.3008
   51MOL   H26519365   1.183   7.128   2.728 -0.4061  0.0968  2.4106
   51MOL   H26619366   0.827   7.122   2.651  1.3098  2.8325  0.3768
   51MOL   H26719367   0.979   7.062   2.681  0.7068 -0.0313  0.2948
   51MOL   C26819368   0.841   6.979   2.816 -0.1548 -0.1116 -0.0298
   51MOL   C26919369   0.703   6.986   2.886  0.5237  0.3060 -0.3275
   51MOL   C27019370   0.654   6.857   2.946  0.3873  0.6103  0.9179
   51MOL   C27119371   0.501   6.860   2.946 -0.1864  0.4201 -0.0712
   51MOL   C27219372   0.458   6.951   2.833 -0.2041 -0.0054  0.3946
   51MOL   C27319373   0.583   7.023   2.789  0.3326  0.7328  0.0018
   51MOL   C27419374   0.951   6.932   2.918  0.2004 -0.2097 -0.1740
   51MOL   H27519375   0.835   6.900   2.742 -3.7234 -1.9701  2.1572
   51MOL   H27619376   0.707   7.059   2.966 -1.8637 -0.4991  0.5561
   51MOL   H27719377   0.691   6.772   2.889  2.6430  0.5600  2.3840
   51MOL   H27819378   0.694   6.827   3.043 -0.0719 -2.1677  0.3062
   51MOL   H27919379   0.448   6.766   2.935  0.5009 -0.0978  0.9229
   51MOL   H28019380   0.473   6.907   3.040 -2.2047  1.1997 -1.0279
   51MOL   H28119381   0.379   7.015   2.873 -1.5789 -0.9893 -0.7018
   51MOL   H28219382   0.419   6.895   2.748 -0.5663  1.6165 -0.5461
   51MOL   H28319383   0.563   7.129   2.777 -0.9384  0.5571  0.5380
   51MOL   H28419384   0.601   6.983   2.689 -3.3206 -3.9984  1.0280
   51MOL   H28519385   0.924   6.945   3.023  0.5976  2.1067 -0.3204
   51MOL   H28619386   1.038   6.997   2.907  0.0180  0.2635  1.1756
   51MOL   C28719387   0.991   6.778   2.908 -0.7334 -0.5969 -0.2133
   51MOL   C28819388   1.054   6.744   2.770  0.0316  0.5625 -0.2870
   51MOL   C28919389   1.206   6.746   2.748 -0.7107  0.0430 -0.6828
   51MOL   C29019390   1.235   6.659   2.623 -0.1354 -0.3414 -0.0367
   51MOL   C29119391   1.112   6.565   2.615  0.1373  0.1294 -0.0785
   51MOL   C29219392   1.019   6.594   2.731  0.7650 -0.1740  0.4763
   51MOL   C29319393   1.073   6.726   3.032  0.3674 -0.7514  0.2193
   51MOL   H29419394   0.893   6.731   2.903 -0.2630 -1.4932 -1.0451
   51MOL   H29519395   1.021   6.810   2.689  2.5726  0.0640 -1.7717
   51MOL   H29619396   1.249   6.845   2.735  1.0393 -0.4400  1.1635
   51MOL   H29719397   1.261   6.708   2.834 -1.2791 -0.6073 -0.6069
   51MOL   H29819398   1.241   6.730   2.542  0.7177 -1.5231 -1.0320
   51MOL   H29919399   1.328   6.605   2.641 -0.5929 -0.8268  0.9569
   51MOL   H30019400   1.149   6.462   2.620 -0.7684 -0.1134  2.6241
   51MOL   H30119401   1.071   6.576   2.514  3.3656  0.3294 -1.4080
   51MOL   H30219402   1.043   6.534   2.819  1.5761  0.7137  0.8671
   51MOL   H30319403   0.919   6.578   2.692  0.7251 -1.0581  0.9275
   51MOL   H30419404   1.146   6.804   3.052  0.4206 -0.6112 -0.5164
   51MOL   H30519405   1.144   6.645   3.016  2.3424  1.1732 -1.0356
   51MOL   C30619406   0.997   6.701   3.164  0.2337  0.5822  0.2282
   51MOL   C30719407   0.933   6.557   3.166  0.1907 -0.2777  0.4287
   51MOL   C30819408   0.833   6.529   3.050  0.0171 -0.8106  0.6601
   51MOL   C30919409   0.797   6.383   3.082 -0.0759 -0.1100  0.1299
   51MOL   C31019410   0.933   6.324   3.108  0.6910 -1.5441 -0.9339
   51MOL   C31119411   1.019   6.434   3.178 -0.2134 -0.1359  0.3077
   51MOL   C31219412   1.086   6.729   3.283  0.5626  0.4232  0.5715
   51MOL   H31319413   0.918   6.776   3.172 -1.9949 -1.4486 -2.0554
   51MOL   H31419414   0.872   6.563   3.256  0.5062  0.9241  0.5701
   51MOL   H31519415   0.891   6.531   2.958 -3.2198 -0.6144 -1.4690
   51MOL   H31619416   0.740   6.585   3.041  1.2483  1.4732  1.6273
   51MOL   H31719417   0.735   6.378   3.172  0.2226 -1.5536  0.2786
   51MOL   H31819418   0.744   6.350   2.993 -1.1923  1.3596  0.2426
   51MOL   H31919419   0.978   6.291   3.014 -0.3858  1.4753 -2.5763
   51MOL   H32019420   0.923   6.232   3.166 -0.2261 -1.1633 -0.5001
   51MOL   H32119421   1.057   6.415   3.279  0.8724  0.6402  0.0569
   51MOL   H32219422   1.109   6.440   3.117 -1.1430 -0.4833 -1.1191
   51MOL   H32319423   1.101   6.837   3.274 -0.5422  0.4089 -1.7114
   51MOL   H32419424   1.181   6.686   3.249  0.3199  0.0832  0.3166
   51MOL   C32519425   1.050   6.681   3.424 -0.3596  0.4158 -0.1807
   51MOL   C32619426   0.949   6.779   3.491 -0.2994  0.3890  0.4736
   51MOL   C32719427   0.908   6.729   3.635  0.1182 -0.4780  1.0136
   51MOL   C32819428   0.774   6.812   3.657  0.1963  0.2328  0.5148
   51MOL   C32919429   0.718   6.834   3.520 -0.2201 -0.3875  0.4618
   51MOL   C33019430   0.823   6.807   3.411  0.3161  0.4147  0.1121
   51MOL   C33119431   1.180   6.686   3.510  0.3364  0.0123  0.4579
   51MOL   H33219432   1.012   6.579   3.422  1.8711 -0.6263  4.2742
   51MOL   H33319433   0.990   6.879   3.508 -0.3455  0.6098 -0.6936
   51MOL   H33419434   0.977   6.739   3.719  2.0582 -2.2182 -0.3364
   51MOL   H33519435   0.880   6.624   3.630  0.9935 -0.6637 -0.1503
   51MOL   H33619436   0.799   6.904   3.709  2.1172  0.1262 -0.1535
   51MOL   H33719437   0.691   6.769   3.712 -0.0473 -0.3649 -0.2987
   51MOL   H33819438   0.709   6.942   3.508  1.0965 -0.4507 -1.2299
   51MOL   H33919439   0.612   6.812   3.516 -0.6062  1.1979  1.5497
   51MOL   H34019440   0.829   6.886   3.335 -1.6366  0.5981  0.1099
   51MOL   H34119441   0.788   6.719   3.358  0.1104 -0.0357  0.9832
   51MOL   H34219442   1.155   6.695   3.616  0.9208  0.5666  0.5511
   51MOL   H34319443   1.229   6.782   3.490  1.4981 -1.1418 -2.5229
   51MOL   C34419444   1.269   6.562   3.474 -0.3343 -0.2540 -0.0374
   51MOL   C34519445   1.219   6.438   3.555 -0.0465  0.2527 -0.0695
   51MOL   C34619446   1.239   6.445   3.704 -0.3635 -0.4097  0.6778
   51MOL   C34719447   1.220   6.301   3.742  0.2299 -0.0934  0.3335
   51MOL   C34819448   1.295   6.227   3.631  0.2149  0.4259 -0.6906
   51MOL   C34919449   1.281   6.311   3.508 -0.7151 -0.2328 -0.1380
   51MOL   C35019450   1.417   6.591   3.512 -0.7193 -0.9591 -0.8215
   51MOL   H35119451   1.284   6.547   3.367 -2.1725 -0.8165 -0.2314
   51MOL   H35219452   1.112   6.427   3.540 -0.1124  0.0133  0.5418
   51MOL   H35319453   1.166   6.505   3.759  0.4155  0.8866  0.3005
   51MOL   H35419454   1.340   6.462   3.742 -0.5131  1.2275  0.3549
   51MOL   H35519455   1.254   6.278   3.843  1.1563  0.7396  0.2201
   51MOL   H35619456   1.118   6.264   3.738  0.1195  0.0767  1.5048
   51MOL   H35719457   1.257   6.126   3.612  0.0302  0.3081  0.3024
   51MOL   H35819458   1.399   6.212   3.658 -0.6267 -2.5216  1.1927
   51MOL   H35919459   1.383   6.323   3.473 -0.2603  0.6160  1.4439
   51MOL   H36019460   1.216   6.252   3.443 -0.2371  0.0115 -0.8476
   51MOL   H36119461   1.489   6.510   3.522  1.0071  0.7896  1.3486
   51MOL   H36219462   1.418   6.645   3.607  0.7131 -0.9815 -0.8015
   51MOL   C36319463   1.487   6.683   3.414 -0.1914  0.6770  0.5976
   51MOL   C36419464   1.608   6.768   3.480 -0.2371  0.6738 -0.1808
   51MOL   C36519465   1.570   6.851   3.602 -1.0005 -0.2892 -0.4004
   51MOL   C36619466   1.676   6.962   3.604 -0.2157  0.3752 -0.2517
   51MOL   C36719467   1.704   6.992   3.466  0.0502 -0.6532  0.1085
   51MOL   C36819468   1.654   6.874   3.378 -0.5067  0.2848 -0.4075
   51MOL   C36919469   1.543   6.606   3.280  0.4582 -0.4244 -0.4215
   51MOL   H37019470   1.415   6.760   3.385 -0.2626  0.4380  0.1418
   51MOL   H37119471   1.694   6.704   3.501 -1.1462 -0.2418  0.8640
   51MOL   H37219472   1.469   6.891   3.590  0.3620  3.0323 -1.5584
   51MOL   H37319473   1.564   6.795   3.695 -1.2330  0.4635  0.0387
   51MOL   H37419474   1.640   7.050   3.658  1.4522  1.1898 -0.4309
   51MOL   H37519475   1.767   6.925   3.652 -1.9615 -2.3473  1.1188
   51MOL   H37619476   1.636   7.068   3.427 -1.5413 -2.3154 -0.4578
   51MOL   H37719477   1.802   7.034   3.443 -0.0585 -0.7474 -0.5340
   51MOL   H37819478   1.742   6.831   3.331  1.0942  1.3776  1.4969
   51MOL   H37919479   1.578   6.920   3.316 -1.8662  0.1806  1.1326
   51MOL   H38019480   1.459   6.570   3.220  0.8142  1.1253 -1.8967
   51MOL   H38119481   1.608   6.528   3.319  1.2852  0.1323 -0.6596
   51MOL   H38219482   1.597   6.675   3.215  0.8864 -2.0144 -1.8007
   52MOL     C119483   0.845   1.763   4.552 -0.9099 -0.1154  0.0588
   52MOL     C219484   0.876   1.862   4.435 -0.3847  0.8191 -0.6591
   52MOL     C319485   1.025   1.886   4.427 -0.5372 -0.0478  0.7096
   52MOL     C419486   1.037   2.005   4.337 -0.0093  0.3525  0.1535
   52MOL     C519487   0.909   2.088   4.370 -0.2313  0.0929 -0.5749
   52MOL     C619488   0.799   1.997   4.429  0.2116  1.1671  1.4769
   52MOL     C719489   0.696   1.730   4.565  1.1578 -0.4398 -0.4395
   52MOL     H819490   0.888   1.663   4.539 -2.5788 -0.9657  0.8834
   52MOL     H919491   0.854   1.809   4.342  0.1198  1.6057 -1.2308
   52MOL    H1019492   1.083   1.892   4.520  0.5238 -1.3717  0.1364
   52MOL    H1119493   1.074   1.807   4.372 -1.8493 -0.6202  0.3396
   52MOL    H1219494   1.127   2.066   4.345  0.3942 -0.0841 -1.0011
   52MOL    H1319495   1.030   1.966   4.235 -0.7101  1.8370 -0.3979
   52MOL    H1419496   0.920   2.160   4.452 -0.2444 -1.0388  0.4361
   52MOL    H1519497   0.876   2.145   4.284  1.0832  2.8211  0.6491
   52MOL    H1619498   0.724   1.979   4.352  0.2580 -0.6664  1.8321
   52MOL    H1719499   0.756   2.037   4.520 -0.3335 -2.4498  2.8993
   52MOL    H1819500   0.635   1.815   4.596  1.0149 -0.3434 -0.9856
   52MOL    H1919501   0.674   1.719   4.459 -0.6714  0.4368 -0.1574
   52MOL    H2019502   0.880   1.813   4.642 -1.0108 -2.4701  1.4494
   52MOL    C2119503   0.665   1.600   4.642 -0.4703 -0.7320  0.0613
   52MOL    C2219504   0.652   1.629   4.793  0.2786  0.5188 -0.3824
   52MOL    C2319505   0.779   1.687   4.855  0.1194 -0.7565 -0.3311
   52MOL    C2419506   0.768   1.644   5.001 -0.1368  0.1345 -0.0154
   52MOL    C2519507   0.654   1.550   5.019 -0.6221 -0.9628  0.2499
   52MOL    C2619508   0.604   1.507   4.884 -0.3052 -0.1346  0.8694
   52MOL    C2719509   0.529   1.542   4.583 -0.0479 -0.3438 -1.0435
   52MOL    H2819510   0.742   1.525   4.623 -0.6885 -0.9746  0.1267
   52MOL    H2919511   0.571   1.697   4.821  0.2588 -0.1104  1.1998
   52MOL    H3019512   0.781   1.795   4.837 -1.3136 -0.2765  2.0828
   52MOL    H3119513   0.867   1.642   4.810  1.8392  2.2632 -0.1058
   52MOL    H3219514   0.847   1.589   5.052  0.2610  0.5090 -0.2215
   52MOL    H3319515   0.762   1.724   5.074  0.2839  0.7048 -0.6016
   52MOL    H3419516   0.575   1.588   5.084  0.9205 -0.2925  1.7801
   52MOL    H3519517   0.687   1.458   5.067  1.4293 -0.2632  0.2370
   52MOL    H3619518   0.495   1.501   4.884 -0.5698  3.5135  2.1513
   52MOL    H3719519   0.655   1.413   4.864  0.5710  0.6248 -0.4679
   52MOL    H3819520   0.509   1.456   4.647  0.4065 -0.1583 -0.6497
   52MOL    H3919521   0.453   1.614   4.615  0.0754 -0.7291  0.1276
   52MOL    C4019522   0.523   1.491   4.441  0.1416 -0.0170  0.1068
   52MOL    C4119523   0.632   1.372   4.424  0.0123  0.3190  0.5187
   52MOL    C4219524   0.651   1.330   4.283 -0.2500  0.5636  0.7341
   52MOL    C4319525   0.731   1.201   4.291  0.1069 -0.1468 -0.5902
   52MOL    C4419526   0.695   1.139   4.432  0.6215 -0.2509 -0.2425
   52MOL    C4519527   0.611   1.244   4.504  0.2244 -0.4140 -0.5269
   52MOL    C4619528   0.382   1.456   4.385  0.1951 -0.0310  0.4894
   52MOL    H4719529   0.559   1.573   4.379 -1.7282  0.4649 -0.3489
   52MOL    H4819530   0.728   1.413   4.456  0.4312  1.0499 -1.5970
   52MOL    H4919531   0.693   1.410   4.222  1.3609  1.1152  2.5132
   52MOL    H5019532   0.552   1.307   4.245 -0.9718  1.1532  2.2235
   52MOL    H5119533   0.836   1.228   4.278 -0.0528  1.7320  1.7062
   52MOL    H5219534   0.694   1.139   4.209  1.7511  1.0245 -2.2321
   52MOL    H5319535   0.628   1.054   4.419 -1.5843  1.5503 -0.9191
   52MOL    H5419536   0.781   1.114   4.495  0.1996  3.3649  1.8979
   52MOL    H5519537   0.506   1.212   4.502  0.6395 -1.8855  0.1276
   52MOL    H5619538   0.645   1.249   4.608 -0.4791  0.7626 -0.3486
   52MOL    H5719539   0.399   1.432   4.280  1.4837  0.2324  0.6252
   52MOL    H5819540   0.351   1.372   4.448 -0.3590 -0.7408 -0.7022
   52MOL    C5919541   0.270   1.568   4.395 -0.6756  0.0864 -0.7051
   52MOL    C6019542   0.307   1.703   4.323 -0.3282 -0.2140 -0.3954
   52MOL    C6119543   0.382   1.701   4.183  0.5231  0.2020 -0.4384
   52MOL    C6219544   0.461   1.828   4.185  0.2347 -0.4614 -0.4556
   52MOL    C6319545   0.442   1.916   4.308  0.0359 -0.5117 -0.5038
   52MOL    C6419546   0.377   1.816   4.401 -0.4104 -0.1479 -0.0704
   52MOL    C6519547   0.138   1.522   4.323 -0.0022 -0.1551  0.5231
   52MOL    H6619548   0.249   1.579   4.501 -1.1643  0.2833 -0.8220
   52MOL    H6719549   0.207   1.743   4.301 -0.0997 -0.8091 -2.6382
   52MOL    H6819550   0.310   1.688   4.102 -0.7632  1.0399  0.5485
   52MOL    H6919551   0.438   1.607   4.179 -1.1574 -0.7838 -1.8670
   52MOL    H7019552   0.441   1.885   4.094  0.5767 -0.8750 -0.7875
   52MOL    H7119553   0.563   1.809   4.154  0.0692  0.9838 -1.9297
   52MOL    H7219554   0.367   1.988   4.276  0.6794  1.1030  1.5272
   52MOL    H7319555   0.529   1.967   4.350 -0.0346  0.8973 -2.0330
   52MOL    H7419556   0.464   1.775   4.453  1.1713  1.1557 -1.6501
   52MOL    H7519557   0.307   1.858   4.473 -1.1571 -2.0885  0.3797
   52MOL    H7619558   0.134   1.413   4.326  0.9626 -0.2557 -1.1922
   52MOL    H7719559   0.152   1.539   4.216 -1.8068  1.4963  0.5180
   52MOL    C7819560   0.001   1.573   4.388  0.5976 -0.0416  0.3291
   52MOL    C7919561   7.571   1.557   4.288  0.0927 -0.7308 -0.2366
   52MOL    C8019562   7.569   1.425   4.203 -0.0775 -0.0774  0.2535
   52MOL    C8119563   7.466   1.461   4.096  0.9225 -0.4568  0.1524
   52MOL    C8219564   7.468   1.616   4.084 -0.6838 -0.0350 -0.2457
   52MOL    C8319565   7.557   1.672   4.188  0.2773 -0.6196  0.2947
   52MOL    C8419566   7.668   1.516   4.528 -0.1938  0.2037  1.2779
   52MOL    H8519567   0.014   1.680   4.402 -0.3632  0.2547 -0.9945
   52MOL    H8619568   7.480   1.571   4.346  0.9794  1.6379  0.6749
   52MOL    H8719569   7.545   1.335   4.260  3.1796 -0.6758  0.7910
   52MOL    H8819570   7.662   1.403   4.152 -0.7525  0.5921 -1.2883
   52MOL    H8919571   7.363   1.435   4.121  0.8733 -0.6891 -0.2849
   52MOL    H9019572   7.474   1.418   3.996 -1.2373 -0.5224 -0.0236
   52MOL    H9119573   7.524   1.642   3.994 -2.9569  0.5465 -1.5412
   52MOL    H9219574   7.370   1.663   4.080 -0.6190  0.1849  0.6185
   52MOL    H9319575   7.654   1.703   4.149  0.8573 -1.6610  0.8646
   52MOL    H9419576   7.507   1.757   4.234 -0.3225 -1.2330  0.7999
   52MOL    H9519577   0.046   1.435   4.555  0.8214  0.9800  1.0941
   52MOL    H9619578   7.571   1.468   4.537 -1.0866  1.5717 -0.9139
   52MOL    C9719579   7.663   1.629   4.644  0.0378 -0.1337  0.3561
   52MOL    C9819580   0.002   1.568   4.786  0.1746 -0.5776 -0.0325
   52MOL    C9919581   7.596   1.462   4.845  0.3033  0.4110 -0.2832
   52MOL   C10019582   0.001   1.372   4.931 -0.2739 -0.3450 -0.4706
   52MOL   C10119583   0.136   1.442   4.939 -0.0185  0.2366 -0.2253
   52MOL   C10219584   0.146   1.526   4.815 -0.4400 -0.4085  0.2214
   52MOL   C10319585   7.524   1.699   4.635  0.3282  0.0203  0.1026
   52MOL   H10419586   0.036   1.718   4.631 -0.3553  0.0862 -0.0761
   52MOL   H10519587   7.669   1.654   4.849 -1.5619  0.3072 -1.7842
   52MOL   H10619588   7.520   1.508   4.908  0.8434  0.9921 -0.0487
   52MOL   H10719589   7.542   1.407   4.768 -2.6533 -1.1632  2.7743
   52MOL   H10819590   0.021   1.277   4.880 -2.0000 -0.3759 -1.1109
   52MOL   H10919591   7.642   1.336   5.021  1.3056 -0.7399  0.2484
   52MOL   H11019592   0.223   1.377   4.949 -0.2206 -0.0299 -0.1935
   52MOL   H11119593   0.132   1.513   5.021 -1.7256  0.3732 -0.4232
   52MOL   H11219594   0.225   1.601   4.821 -0.7643 -0.0974  0.6100
   52MOL   H11319595   0.182   1.461   4.735  2.6741  1.2490  0.2005
   52MOL   H11419596   7.495   1.711   4.530  1.6676  0.3746 -0.2386
   52MOL   H11519597   7.450   1.625   4.662  0.2698  0.1996  0.4315
   52MOL   C11619598   7.501   1.832   4.700  0.0382  0.9516  0.9602
   52MOL   C11719599   7.513   1.952   4.604  0.0830 -1.0433 -0.2019
   52MOL   C11819600   7.647   1.969   4.521 -0.1435 -0.7569  0.8550
   52MOL   C11919601   7.604   2.028   4.384 -0.2116  0.3141 -0.1457
   52MOL   C12019602   7.450   2.047   4.393 -0.1906 -0.4943 -0.0216
   52MOL   C12119603   7.396   1.974   4.510 -0.4267  0.4566 -0.9557
   52MOL   C12219604   7.372   1.827   4.787 -0.0848 -0.2221  0.0955
   52MOL   H12319605   7.592   1.844   4.759  1.9855  0.9353 -1.9105
   52MOL   H12419606   7.527   2.036   4.672  0.7687 -1.1426 -0.2106
   52MOL   H12519607   0.033   2.026   4.575  0.2819 -1.5609  1.1302
   52MOL   H12619608   7.686   1.867   4.510  1.1625  0.0505 -2.8100
   52MOL   H12719609   7.637   1.947   4.319  0.7047  0.6870 -0.1524
   52MOL   H12819610   7.666   2.113   4.355 -0.3139 -0.2662 -2.1650
   52MOL   H12919611   7.406   2.024   4.296 -1.3680  2.8904 -0.3768
   52MOL   H13019612   7.437   2.155   4.394  0.3642 -0.4315  0.6571
   52MOL   H13119613   7.316   2.032   4.558  1.2863  3.5438 -1.7090
   52MOL   H13219614   7.344   1.882   4.481  3.1725 -1.8477 -0.3823
   52MOL   H13319615   7.391   1.735   4.843 -1.4945 -0.4376  0.2270
   52MOL   H13419616   7.291   1.815   4.715 -1.0888  1.3216  0.9224
   52MOL   C13519617   7.340   1.949   4.880 -0.2750  0.2101  0.3378
   52MOL   C13619618   7.451   1.962   4.985 -0.1460  0.4259 -0.2525
   52MOL   C13719619   7.457   1.839   5.085  0.1082 -0.6871  0.6411
   52MOL   C13819620   7.529   1.894   5.208  0.0265  0.5661  0.0113
   52MOL   C13919621   7.496   2.041   5.214  0.4335 -0.3599 -0.1431
   52MOL   C14019622   7.440   2.085   5.082  0.2247  0.4703  0.2550
   52MOL   C14119623   7.198   1.941   4.949 -0.0789  0.6442 -0.0068
   52MOL   H14219624   7.339   2.031   4.809 -1.9250  0.9773  1.2041
   52MOL   H14319625   7.550   1.958   4.939 -0.5128 -0.6772 -0.9745
   52MOL   H14419626   7.361   1.801   5.122  0.8822 -4.0776 -0.6234
   52MOL   H14519627   7.499   1.749   5.041 -0.4256 -0.0911 -1.1235
   52MOL   H14619628   7.636   1.879   5.202 -0.4433 -3.6060  0.5007
   52MOL   H14719629   7.517   1.839   5.302  2.3962  3.6615  2.2304
   52MOL   H14819630   7.579   2.102   5.250 -0.1792  0.2330  0.2789
   52MOL   H14919631   7.421   2.069   5.289  2.2956 -1.4191  2.2079
   52MOL   H15019632   7.337   2.116   5.098 -0.5299 -1.2720 -0.9715
   52MOL   H15119633   7.470   2.180   5.040 -0.1724  0.8625  0.8530
   52MOL   H15219634   7.195   1.983   5.050  1.7679 -2.1628  1.3054
   52MOL   H15319635   7.182   1.835   4.970 -1.1075  0.6738 -0.6821
   52MOL   C15419636   7.086   2.008   4.861  0.2632  0.2863 -0.2747
   52MOL   C15519637   6.944   1.944   4.870  0.5019  0.5822 -0.2182
   52MOL   C15619638   6.896   1.940   5.018 -0.0617  0.2255  1.0291
   52MOL   C15719639   6.780   1.840   5.002  0.5433 -0.4635 -0.5460
   52MOL   C15819640   6.822   1.732   4.905 -0.0852 -0.4064 -0.1777
   52MOL   C15919641   6.928   1.801   4.818 -0.2913  0.2581  0.1777
   52MOL   C16019642   7.083   2.157   4.891 -0.3556  0.6866  0.5205
   52MOL   H16119643   7.120   1.993   4.759 -1.1379  1.2619 -0.8952
   52MOL   H16219644   6.881   2.009   4.809 -1.0564  1.2844  2.0766
   52MOL   H16319645   6.968   1.879   5.075 -0.6125 -1.5737 -0.1535
   52MOL   H16419646   6.868   2.033   5.067 -3.7754 -0.3695  0.1456
   52MOL   H16519647   6.744   1.797   5.096 -1.0786  0.8915 -0.5446
   52MOL   H16619648   6.695   1.893   4.961 -1.2356 -2.4859  0.4407
   52MOL   H16719649   6.740   1.686   4.849 -1.5518  1.4493  0.3930
   52MOL   H16819650   6.876   1.651   4.954 -1.5030 -0.7263  0.8930
   52MOL   H16919651   6.886   1.806   4.717  1.2435 -1.9623 -0.5857
   52MOL   H17019652   7.022   1.749   4.806 -1.0620 -1.2460  0.6208
   52MOL   H17119653   7.183   2.198   4.878 -0.9513  2.2130  0.6618
   52MOL   H17219654   7.057   2.164   4.997 -3.5795  2.3261 -0.2979
   52MOL   C17319655   6.997   2.254   4.807 -0.3652 -0.3776  0.3838
   52MOL   C17419656   7.038   2.256   4.657 -0.2748 -0.0586  0.7295
   52MOL   C17519657   7.169   2.321   4.620 -0.4895  0.5773 -0.6193
   52MOL   C17619658   7.159   2.373   4.480  0.2619 -0.4491  0.0868
   52MOL   C17719659   7.015   2.324   4.433 -0.3546 -0.5406  0.4640
   52MOL   C17819660   6.937   2.303   4.560  0.0588 -0.3116 -0.3362
   52MOL   C17919661   6.989   2.388   4.878 -0.8155 -0.1723  0.6360
   52MOL   H18019662   6.893   2.221   4.803  0.1316 -1.8330 -1.1180
   52MOL   H18119663   7.045   2.149   4.639  0.3010  0.0015  0.5780
   52MOL   H18219664   7.254   2.253   4.617 -0.7847  0.2478 -1.7110
   52MOL   H18319665   7.195   2.403   4.687  0.7575  0.4330 -0.9049
   52MOL   H18419666   7.167   2.482   4.483  0.5026 -0.5276  3.0515
   52MOL   H18519667   7.230   2.332   4.407  1.1838  0.4700  0.4427
   52MOL   H18619668   7.022   2.229   4.380  2.0483  1.4270 -2.9627
   52MOL   H18719669   6.960   2.393   4.370 -0.0091  0.2977  1.0706
   52MOL   H18819670   6.890   2.397   4.591  0.2437 -0.7541  1.2914
   52MOL   H18919671   6.861   2.226   4.552 -0.4419  0.2249 -0.8140
   52MOL   H19019672   7.079   2.384   4.939 -1.0542  0.9151  1.0593
   52MOL   H19119673   7.003   2.479   4.820  0.1372 -0.2354  0.7561
   52MOL   C19219674   6.874   2.420   4.983 -0.0537  0.8062  0.8236
   52MOL   C19319675   6.738   2.437   4.904  0.1922  0.0855  0.7267
   52MOL   C19419676   6.728   2.566   4.825  0.4293 -0.4771  0.6373
   52MOL   C19519677   6.576   2.574   4.787 -0.8088 -0.5575  0.1635
   52MOL   C19619678   6.498   2.510   4.904  0.5870 -0.5306 -0.1076
   52MOL   C19719679   6.608   2.440   4.984  0.0596  0.3299  0.4718
   52MOL   C19819680   6.908   2.549   5.074 -1.2940  0.6572  0.4359
   52MOL   H19919681   6.865   2.334   5.050 -0.2680  0.6356  0.5753
   52MOL   H20019682   6.730   2.357   4.830 -0.3444  1.3446 -0.6092
   52MOL   H20119683   6.789   2.564   4.734 -1.7442 -1.5826 -0.8508
   52MOL   H20219684   6.751   2.651   4.888  0.8261  0.4962 -0.7852
   52MOL   H20319685   6.540   2.676   4.779  1.8322  0.2860 -1.8488
   52MOL   H20419686   6.558   2.515   4.697  2.2188 -1.3992  0.0510
   52MOL   H20519687   6.432   2.436   4.858 -0.9685  0.6148  0.2293
   52MOL   H20619688   6.435   2.579   4.960  0.6311  0.8627 -1.7258
   52MOL   H20719689   6.582   2.335   4.999 -1.1356  0.5468  0.0016
   52MOL   H20819690   6.623   2.489   5.080  1.9200 -0.5076  0.6103
   52MOL   H20919691   6.961   2.620   5.010 -0.1144 -0.4951  0.1280
   52MOL   H21019692   6.812   2.597   5.093 -0.0463  4.4288 -2.0413
   52MOL   C21119693   6.995   2.527   5.199  0.3992  0.4959  0.0117
   52MOL   C21219694   7.085   2.641   5.243  0.4777 -0.8071  0.5545
   52MOL   C21319695   7.205   2.658   5.157 -1.3467 -0.0681 -0.2914
   52MOL   C21419696   7.238   2.801   5.158  0.7347  0.8627 -0.2379
   52MOL   C21519697   7.101   2.875   5.184  0.6548 -0.0679 -0.6563
   52MOL   C21619698   7.017   2.783   5.267  0.1656 -0.2167 -0.1324
   52MOL   C21719699   6.905   2.471   5.313 -0.1792  0.0804  0.0180
   52MOL   H21819700   7.064   2.453   5.157 -0.2123 -0.3925  0.5592
   52MOL   H21919701   7.135   2.629   5.339  0.8975  0.7695  0.5586
   52MOL   H22019702   7.274   2.583   5.194 -1.2000  0.0941 -0.2390
   52MOL   H22119703   7.185   2.630   5.053 -0.8199  0.2283 -0.4735
   52MOL   H22219704   7.307   2.822   5.240  0.1739  1.1140  0.1716
   52MOL   H22319705   7.288   2.823   5.063 -1.7745 -1.7195 -2.2145
   52MOL   H22419706   7.055   2.884   5.086 -0.9740  0.1831  0.1038
   52MOL   H22519707   7.106   2.977   5.222 -0.6703 -1.1671  2.6787
   52MOL   H22619708   7.018   2.804   5.374  0.9445  0.5054 -0.2782
   52MOL   H22719709   6.912   2.778   5.240 -0.4030  0.7793  1.8149
   52MOL   H22819710   6.839   2.395   5.271  2.5108 -0.8570 -2.6146
   52MOL   H22919711   6.843   2.553   5.350 -2.0633 -0.0895 -2.6499
   52MOL   C23019712   6.980   2.407   5.428  0.2411  0.0974 -0.5194
   52MOL   C23119713   7.039   2.270   5.391  0.4635  1.3954  0.3880
   52MOL   C23219714   7.124   2.191   5.491 -0.2007  0.0065 -0.2188
   52MOL   C23319715   7.146   2.060   5.419 -0.1760  0.1347  0.1500
   52MOL   C23419716   7.024   2.034   5.332 -0.2482 -0.1596  0.6093
   52MOL   C23519717   6.948   2.167   5.321 -0.6053  0.1504  0.8310
   52MOL   C23619718   6.889   2.402   5.559 -0.1338  0.3229  0.2263
   52MOL   H23719719   7.056   2.481   5.450  0.3807 -0.1484 -0.1716
   52MOL   H23819720   7.110   2.297   5.313  0.8977 -2.0006 -0.5009
   52MOL   H23919721   7.218   2.234   5.523  1.7450 -2.9114 -1.8249
   52MOL   H24019722   7.065   2.170   5.580  1.7214  0.0984  1.1019
   52MOL   H24119723   7.232   2.071   5.353 -0.8248 -0.7112 -0.8647
   52MOL   H24219724   7.162   1.973   5.483  0.9221  0.6145  0.5336
   52MOL   H24319725   6.954   1.965   5.379  0.3084 -0.8924  0.3605
   52MOL   H24419726   7.060   1.993   5.238  1.2807  1.6175  0.3885
   52MOL   H24519727   6.847   2.159   5.362 -2.0741 -2.0780 -2.9686
   52MOL   H24619728   6.941   2.193   5.216 -2.1826  0.2573  0.9551
   52MOL   H24719729   6.877   2.301   5.597 -0.2732 -0.1625 -1.0975
   52MOL   H24819730   6.788   2.436   5.538  0.7011  3.7420  1.4108
   52MOL   C24919731   6.930   2.486   5.682  0.0214  0.2884 -0.6637
   52MOL   C25019732   6.926   2.640   5.655 -0.8534  0.0576  0.0077
   52MOL   C25119733   6.975   2.721   5.772  0.4963  0.8875  0.0450
   52MOL   C25219734   6.951   2.869   5.737 -0.1593  0.6927 -0.0481
   52MOL   C25319735   6.809   2.856   5.671  0.4850 -0.5634 -1.4282
   52MOL   C25419736   6.798   2.711   5.628  0.0559  0.8666  0.6000
   52MOL   C25519737   7.066   2.436   5.744 -0.0551  0.2632  0.5086
   52MOL   H25619738   6.858   2.466   5.762  1.2643  0.1804  0.4447
   52MOL   H25719739   6.986   2.650   5.565 -1.5245  1.4897 -0.2996
   52MOL   H25819740   7.081   2.709   5.797 -0.0740 -1.0584  1.6420
   52MOL   H25919741   6.917   2.687   5.858  1.0888  1.2143  0.5804
   52MOL   H26019742   7.013   2.913   5.660 -0.1928  2.6972  1.0423
   52MOL   H26119743   6.956   2.931   5.827  1.6755  0.3335  0.1232
   52MOL   H26219744   6.806   2.922   5.584 -2.7031 -1.5208 -2.1199
   52MOL   H26319745   6.733   2.896   5.737  0.8762 -0.0420 -1.2885
   52MOL   H26419746   6.789   2.719   5.520  1.9903  0.0340  0.3633
   52MOL   H26519747   6.707   2.668   5.671 -1.3595  3.7616  0.6572
   52MOL   H26619748   7.077   2.333   5.712 -2.3385  0.2810 -0.3917
   52MOL   H26719749   7.138   2.493   5.686 -0.6890  0.2754 -0.2720
   52MOL   C26819750   7.092   2.440   5.903 -0.1680 -0.2027 -0.1366
   52MOL   C26919751   7.243   2.416   5.928 -0.1931 -0.0811  0.3978
   52MOL   C27019752   7.345   2.512   5.872  0.5992 -0.1373 -0.3877
   52MOL   C27119753   7.480   2.442   5.872 -0.8836 -0.1381 -0.0080
   52MOL   C27219754   7.462   2.297   5.900 -0.4412  0.9059 -0.5929
   52MOL   C27319755   7.309   2.283   5.883 -0.0420  0.4415 -0.3744
   52MOL   C27419756   7.011   2.343   5.986 -0.0642  0.4253 -0.3062
   52MOL   H27519757   7.082   2.545   5.933  1.7200 -0.3466  1.0863
   52MOL   H27619758   7.254   2.424   6.036 -1.2488  1.1422  0.4246
   52MOL   H27719759   7.316   2.539   5.770  2.2508  1.5996 -0.4165
   52MOL   H27819760   7.352   2.609   5.922 -2.8320 -0.7968  1.5260
   52MOL   H27919761   7.540   2.447   5.781 -0.5726 -0.5155  0.1742
   52MOL   H28019762   7.534   2.489   5.955 -0.5848 -1.5939  0.6437
   52MOL   H28119763   7.488   2.281   6.005 -0.5080  2.2201 -0.3619
   52MOL   H28219764   7.514   2.231   5.830 -0.1523  1.8958 -1.3229
   52MOL   H28319765   7.262   2.199   5.934  1.1375  0.3656  0.6051
   52MOL   H28419766   7.285   2.252   5.781  1.3928 -2.4249  0.0856
   52MOL   H28519767   7.058   2.246   5.972 -0.0273  0.3164  0.5760
   52MOL   H28619768   6.909   2.338   5.947  0.3508  0.3619 -1.3850
   52MOL   C28719769   6.991   2.373   6.138 -0.5370  0.2472 -0.3671
   52MOL   C28819770   6.900   2.498   6.152 -0.4218 -0.3909 -0.3815
   52MOL   C28919771   6.753   2.481   6.112 -0.5498 -0.0023 -0.3518
   52MOL   C29019772   6.674   2.515   6.235  0.0229  0.3738  0.3741
   52MOL   C29119773   6.761   2.597   6.322 -0.0941  0.0519 -0.2001
   52MOL   C29219774   6.904   2.562   6.283  0.6370 -0.4402  0.0861
   52MOL   C29319775   6.929   2.251   6.218 -0.2026  0.2814  0.2645
   52MOL   H29419776   7.084   2.409   6.183  0.4576 -0.7431 -1.5739
   52MOL   H29519777   6.932   2.578   6.085  0.0710  0.0515  0.3806
   52MOL   H29619778   6.727   2.545   6.027  0.2647  0.1385 -0.5023
   52MOL   H29719779   6.713   2.385   6.078 -0.2280 -0.2954  0.0868
   52MOL   H29819780   6.573   2.555   6.226  0.0177  0.5666  1.2594
   52MOL   H29919781   6.666   2.417   6.281 -2.0396  0.5523  0.4150
   52MOL   H30019782   6.745   2.576   6.428  1.6594 -0.6849 -0.0480
   52MOL   H30119783   6.742   2.701   6.299  1.4864  0.4198  0.0623
   52MOL   H30219784   6.958   2.499   6.353 -1.8815 -2.4483  0.3275
   52MOL   H30319785   6.957   2.657   6.281  0.7192 -0.4660  0.9488
   52MOL   H30419786   6.859   2.202   6.151  0.3370 -0.9390  0.5947
   52MOL   H30519787   6.872   2.285   6.304  1.2081 -0.6035  1.5670
   52MOL   C30619788   7.030   2.139   6.258 -0.6086  0.5040  0.0044
   52MOL   C30719789   7.129   2.195   6.369 -0.4239  0.0052 -0.1349
   52MOL   C30819790   7.089   2.195   6.512  0.0636  0.2501 -0.9990
   52MOL   C30919791   7.217   2.173   6.589 -0.4385 -0.4785  1.0121
   52MOL   C31019792   7.295   2.082   6.496 -0.0654  0.7394 -0.0231
   52MOL   C31119793   7.259   2.116   6.352 -0.2916 -0.4465  0.2713
   52MOL   C31219794   6.946   2.007   6.299  0.1290  0.1156 -0.1955
   52MOL   H31319795   7.092   2.111   6.173 -0.5475 -2.0687  0.8581
   52MOL   H31419796   7.164   2.295   6.347  0.7930 -0.0709  1.3779
   52MOL   H31519797   7.020   2.113   6.536 -1.5709  2.8441  3.7460
   52MOL   H31619798   7.036   2.282   6.551  1.1516  0.2360  0.5459
   52MOL   H31719799   7.277   2.263   6.606  0.9375 -1.4254  1.2464
   52MOL   H31819800   7.209   2.130   6.689 -1.1842  0.9549  1.5839
   52MOL   H31919801   7.284   1.976   6.518  1.7850  0.3819 -0.7607
   52MOL   H32019802   7.401   2.102   6.514 -0.6159  0.6996  3.5911
   52MOL   H32119803   7.333   2.168   6.292  1.0171 -1.3488  1.0939
   52MOL   H32219804   7.253   2.024   6.294 -1.4386 -0.2030 -0.0110
   52MOL   H32319805   6.872   2.036   6.373  1.5296  1.5779  0.6529
   52MOL   H32419806   7.007   1.944   6.363  0.3803 -0.7920 -1.2960
   52MOL   C32519807   6.871   1.922   6.185  0.0367 -0.4975  0.5419
   52MOL   C32619808   6.766   1.823   6.249  0.4758 -0.5301 -0.4378
   52MOL   C32719809   6.633   1.899   6.286  0.2000 -0.2535 -0.1837
   52MOL   C32819810   6.578   1.822   6.406  0.1014  0.0350  0.5217
   52MOL   C32919811   6.669   1.702   6.427  1.1182  1.2988  0.2648
   52MOL   C33019812   6.799   1.755   6.378 -0.1230 -0.5396 -0.2603
   52MOL   C33119813   6.972   1.846   6.100  0.1483  0.2881  0.4231
   52MOL   H33219814   6.817   1.994   6.124  0.9838 -2.3385 -2.5752
   52MOL   H33319815   6.720   1.745   6.188 -0.7327 -1.8190  2.0533
   52MOL   H33419816   6.561   1.914   6.205  0.4312  0.1077 -0.3287
   52MOL   H33519817   6.651   2.004   6.310  0.6131 -0.1591 -0.8933
   52MOL   H33619818   6.476   1.789   6.387 -0.8399  1.3459  3.1044
   52MOL   H33719819   6.564   1.867   6.504  0.2499  0.3586  0.3958
   52MOL   H33819820   6.631   1.621   6.365  1.3833  2.8982 -2.0388
   52MOL   H33919821   6.667   1.658   6.527  1.1082  0.1687 -0.2310
   52MOL   H34019822   6.865   1.671   6.356 -1.1604 -0.9140 -2.0017
   52MOL   H34119823   6.839   1.821   6.456 -1.3292  1.1472 -1.0492
   52MOL   H34219824   6.939   1.743   6.085  1.7294 -0.1049 -0.4862
   52MOL   H34319825   7.055   1.838   6.170 -1.0773 -0.3508  1.8440
   52MOL   C34419826   7.015   1.926   5.976 -0.1736  0.3280  1.0895
   52MOL   C34519827   6.934   1.878   5.857 -0.4165 -0.0352  0.1593
   52MOL   C34619828   6.967   1.949   5.728 -0.3657 -0.4384 -0.4896
   52MOL   C34719829   6.852   1.917   5.630 -0.5570  0.3077 -0.1452
   52MOL   C34819830   6.732   1.885   5.720  0.0915  0.3618 -0.4661
   52MOL   C34919831   6.780   1.892   5.871  0.2879 -0.7696  0.1955
   52MOL   C35019832   7.168   1.929   5.952 -0.1207  0.3752  0.0479
   52MOL   H35119833   6.978   2.028   5.981 -0.2343  0.4219 -0.8786
   52MOL   H35219834   6.956   1.772   5.849 -0.1740  0.0855 -0.8499
   52MOL   H35319835   7.064   1.915   5.693  0.1559  2.5074 -2.0736
   52MOL   H35419836   6.968   2.057   5.743  0.0915 -0.5605  0.3888
   52MOL   H35519837   6.845   2.002   5.562  1.3284 -0.7699 -1.7443
   52MOL   H35619838   6.890   1.830   5.577 -0.3458 -1.7731  3.2944
   52MOL   H35719839   6.695   1.785   5.694 -0.8642 -0.4835  3.7085
   52MOL   H35819840   6.649   1.954   5.702 -1.0861 -0.6747  0.8175
   52MOL   H35919841   6.746   1.985   5.915 -0.6217 -0.2367 -1.5998
   52MOL   H36019842   6.737   1.811   5.930  0.3309 -0.6590  0.3770
   52MOL   H36119843   7.209   1.960   6.048 -0.4885  1.1350 -0.0364
   52MOL   H36219844   7.197   2.013   5.889  2.9150 -0.3713  0.3751
   52MOL   C36319845   7.246   1.804   5.903 -0.3931 -0.2701 -0.2166
   52MOL   C36419846   7.403   1.831   5.886  0.4797 -0.6867 -0.1140
   52MOL   C36519847   7.495   1.861   6.007  0.7357  0.3657 -0.0699
   52MOL   C36619848   7.623   1.920   5.942  0.2866 -0.1185 -0.0156
   52MOL   C36719849   7.600   1.933   5.787  0.9730 -0.1947  0.5667
   52MOL   C36819850   7.446   1.919   5.760  0.1400  0.0676 -0.2208
   52MOL   C36919851   7.238   1.679   5.989  0.5467  0.2613 -0.3592
   52MOL   H37019852   7.211   1.764   5.808  0.7097 -0.9464 -0.3464
   52MOL   H37119853   7.439   1.733   5.854 -0.4818 -0.6765 -1.2580
   52MOL   H37219854   7.439   1.938   6.061  0.0833  0.3038 -0.6496
   52MOL   H37319855   7.501   1.778   6.078 -0.1924 -0.8660 -1.3979
   52MOL   H37419856   7.654   2.012   5.992 -1.1223 -0.9788  2.5262
   52MOL   H37519857   0.015   1.848   5.939  0.3033 -0.0250 -2.4061
   52MOL   H37619858   7.649   2.027   5.763  0.2803  0.2584  0.9217
   52MOL   H37719859   7.649   1.850   5.736  0.3605 -0.8124  0.9614
   52MOL   H37819860   7.419   1.881   5.662  0.4456  0.4933 -0.4690
   52MOL   H37919861   7.395   2.014   5.773  0.7861  0.4665 -0.5715
   52MOL   H38019862   7.271   1.691   6.092  0.3775 -0.3248 -0.2390
   52MOL   H38119863   7.305   1.603   5.950  0.2474  0.4471 -1.2401
   52MOL   H38219864   7.138   1.637   5.995 -0.0996  1.4046 -2.6225
   53MOL     C119865   7.329   3.499   0.595 -0.5878  0.9535 -0.1712
   53MOL     C219866   7.286   3.361   0.652  0.0239 -0.7443 -0.4470
   53MOL     C319867   7.141   3.338   0.683 -0.3370 -0.1108 -0.2329
   53MOL     C419868   7.129   3.208   0.765 -1.2649 -0.0522  0.1945
   53MOL     C519869   7.261   3.204   0.837  0.6462 -0.5410  0.2998
   53MOL     C619870   7.346   3.318   0.786 -0.8278 -0.0046  0.1034
   53MOL     C719871   7.283   3.518   0.452  0.0963  0.3011 -0.3783
   53MOL     H819872   7.282   3.570   0.663 -0.7775  0.7807 -0.1198
   53MOL     H919873   7.321   3.277   0.593  0.4307 -1.2297  0.4808
   53MOL    H1019874   7.106   3.419   0.747 -0.7918  0.2001 -0.8601
   53MOL    H1119875   7.078   3.321   0.596  0.2166 -1.0137 -0.4659
   53MOL    H1219876   7.038   3.201   0.823 -0.1287  0.7413  2.1176
   53MOL    H1319877   7.141   3.128   0.691  0.5191  2.6231 -2.5281
   53MOL    H1419878   7.263   3.212   0.946  0.7463  0.2618  0.2353
   53MOL    H1519879   7.305   3.107   0.811  0.0273 -0.7413 -0.0302
   53MOL    H1619880   7.454   3.300   0.791 -0.8868 -0.7406 -1.2267
   53MOL    H1719881   7.324   3.405   0.849 -1.0143 -0.3038  0.4486
   53MOL    H1819882   7.320   3.438   0.387  1.1730  0.0930  0.4703
   53MOL    H1919883   7.174   3.508   0.451 -0.0800  1.6227  1.9432
   53MOL    H2019884   7.437   3.514   0.604 -0.3757 -0.5589 -0.1346
   53MOL    C2119885   7.324   3.647   0.377  0.4854 -0.2337  0.7002
   53MOL    C2219886   7.296   3.776   0.458  0.2942 -0.7954  0.3736
   53MOL    C2319887   7.153   3.796   0.494 -0.7293  0.1616 -0.3283
   53MOL    C2419888   7.147   3.936   0.551 -0.1128  0.0652  0.3291
   53MOL    C2519889   7.229   4.011   0.444 -0.5300 -0.4365 -0.2066
   53MOL    C2619890   7.334   3.911   0.389 -0.2868 -0.1649  0.3170
   53MOL    C2719891   7.472   3.651   0.351  0.3851 -0.0603  0.8583
   53MOL    H2819892   7.261   3.661   0.289  1.7683 -1.9890 -0.5263
   53MOL    H2919893   7.345   3.774   0.555 -0.6885  3.7448  1.0898
   53MOL    H3019894   7.110   3.713   0.550  0.7697  0.3461  1.1730
   53MOL    H3119895   7.092   3.787   0.405 -3.5742  1.8381  1.3656
   53MOL    H3219896   7.048   3.981   0.561  0.7787  1.9348  0.8446
   53MOL    H3319897   7.213   3.946   0.637 -0.3413  0.5177  0.4488
   53MOL    H3419898   7.278   4.098   0.486 -0.2281  0.6349 -2.6635
   53MOL    H3519899   7.162   4.045   0.364  0.1790 -0.8511 -0.9805
   53MOL    H3619900   7.439   3.934   0.409 -0.0985  1.0506 -1.9053
   53MOL    H3719901   7.331   3.912   0.280 -0.0628 -0.8839  0.3016
   53MOL    H3819902   7.501   3.754   0.334  0.0449 -0.1571 -0.4332
   53MOL    H3919903   7.535   3.616   0.432 -1.8675  0.0075  2.6812
   53MOL    C4019904   7.522   3.578   0.222 -0.0166  0.1165 -0.5826
   53MOL    C4119905   7.504   3.676   0.104 -0.0997  0.0674  0.0706
   53MOL    C4219906   7.521   3.606   7.657 -0.5671  0.0701 -0.2942
   53MOL    C4319907   7.531   3.714   7.558 -0.3523  0.3444 -0.4403
   53MOL    C4419908   7.593   3.831   7.630 -0.3991 -0.0489 -0.3170
   53MOL    C4519909   7.593   3.802   0.092  0.1147 -0.2822  0.4686
   53MOL    C4619910   7.668   3.538   0.243  0.1096  0.3413 -0.0105
   53MOL    H4719911   7.464   3.485   0.219 -0.3732  0.2028  2.2504
   53MOL    H4819912   7.399   3.706   0.114  0.3643  1.7755 -0.0791
   53MOL    H4919913   7.428   3.550   7.644 -0.8510  0.1367  1.4430
   53MOL    H5019914   7.604   3.534   7.653 -0.6705 -0.0370 -0.5427
   53MOL    H5119915   7.436   3.757   7.525 -0.5405  0.5020  0.3069
   53MOL    H5219916   7.588   3.693   7.467 -0.3829 -0.5579 -0.2502
   53MOL    H5319917   0.009   3.848   7.606 -0.7634  2.9342  0.0188
   53MOL    H5419918   7.537   3.922   7.610 -0.7715 -0.0476  0.6926
   53MOL    H5519919   0.004   3.778   0.127  1.0359 -1.7626 -2.9547
   53MOL    H5619920   7.570   3.890   0.152 -0.0402 -0.7751  1.1394
   53MOL    H5719921   0.034   3.524   0.150 -0.6398  0.4705 -0.4857
   53MOL    H5819922   0.026   3.626   0.287  2.1918 -1.5715  1.7053
   53MOL    C5919923   7.687   3.418   0.340 -0.1684 -0.9803 -0.6375
   53MOL    C6019924   7.662   3.288   0.267  0.2433  0.2354 -0.6309
   53MOL    C6119925   7.646   3.158   0.348  0.2103 -0.0812  0.9105
   53MOL    C6219926   0.000   3.033   0.266  0.7757  0.4306 -0.1258
   53MOL    C6319927   0.044   3.095   0.133 -0.0282 -0.8623 -0.3405
   53MOL    C6419928   0.073   3.248   0.161  0.2096 -0.3148 -0.3478
   53MOL    C6519929   0.138   3.426   0.407 -0.1581 -0.2915 -0.5843
   53MOL    H6619930   7.620   3.427   0.425 -2.6661 -1.3741 -2.5278
   53MOL    H6719931   7.564   3.291   0.218  0.1481 -1.8074 -0.6246
   53MOL    H6819932   7.540   3.147   0.369  0.1172  1.0891  1.0416
   53MOL    H6919933   0.005   3.161   0.446  0.4519 -1.3102  0.8489
   53MOL    H7019934   7.613   2.960   0.242 -0.8913  2.3666 -0.9218
   53MOL    H7119935   0.076   2.975   0.319  1.2306  1.0873 -0.0487
   53MOL    H7219936   7.650   3.105   0.064 -0.0552  0.4429 -0.1295
   53MOL    H7319937   0.111   3.035   0.072  0.4685 -0.3985 -0.2459
   53MOL    H7419938   0.171   3.254   0.208  0.4003 -2.9073 -0.3239
   53MOL    H7519939   0.048   3.311   0.075 -1.3473  0.4293  0.6409
   53MOL    H7619940   0.209   3.467   0.336  0.8288  0.6647  0.9405
   53MOL    H7719941   0.160   3.323   0.436 -0.3892  0.0663  0.9350
   53MOL    C7819942   0.138   3.513   0.542  0.2003 -0.4996 -0.2136
   53MOL    C7919943   0.104   3.430   0.672 -0.0951 -0.1556  0.8762
   53MOL    C8019944   0.069   3.512   0.804 -0.1005  0.2427 -0.4433
   53MOL    C8119945   0.141   3.443   0.921  0.2076 -0.3067 -0.5568
   53MOL    C8219946   0.183   3.304   0.872  0.1567 -0.0091 -0.5406
   53MOL    C8319947   0.209   3.328   0.717 -0.6047 -0.2901  0.1613
   53MOL    C8419948   0.272   3.590   0.564  0.9412  0.2259 -0.9616
   53MOL    H8519949   0.065   3.594   0.531 -0.7394 -1.1290  1.2700
   53MOL    H8619950   0.013   3.375   0.645  0.7050 -0.9590 -0.2295
   53MOL    H8719951   7.650   3.505   0.814  0.0147  0.5725  1.2308
   53MOL    H8819952   0.091   3.619   0.795 -1.1249  0.5213  0.2284
   53MOL    H8919953   0.061   3.439   0.995  0.1744 -1.7437 -0.6447
   53MOL    H9019954   0.227   3.504   0.950  0.3581 -1.2554  1.0898
   53MOL    H9119955   0.270   3.276   0.932 -0.4379  0.3302  0.4736
   53MOL    H9219956   0.102   3.233   0.882  0.3735 -0.1471  0.2201
   53MOL    H9319957   0.312   3.359   0.698 -0.8792 -0.5580 -1.8265
   53MOL    H9419958   0.185   3.240   0.657 -2.3479  0.0872  0.3031
   53MOL    H9519959   0.355   3.522   0.542  1.5963  0.2731  1.1680
   53MOL    H9619960   0.283   3.623   0.667 -1.5090 -0.3400 -0.4890
   53MOL    C9719961   0.281   3.715   0.476 -0.1221  0.1087 -0.3294
   53MOL    C9819962   0.416   3.741   0.406 -0.8432 -0.2854  0.5022
   53MOL    C9919963   0.532   3.747   0.507 -0.0493  0.3811  0.1989
   53MOL   C10019964   0.647   3.657   0.453  0.2518 -0.3474  0.0523
   53MOL   C10119965   0.600   3.646   0.306  0.1150  0.4693 -0.4901
   53MOL   C10219966   0.454   3.641   0.302 -0.4265  0.6494  0.6722
   53MOL   C10319967   0.225   3.846   0.538  0.4469 -0.2825  0.7503
   53MOL   H10419968   0.204   3.702   0.400 -0.0306  0.0351 -0.4090
   53MOL   H10519969   0.420   3.827   0.338 -0.1119 -2.0674 -1.7602
   53MOL   H10619970   0.581   3.843   0.519 -1.1419  0.6955  2.3485
   53MOL   H10719971   0.519   3.715   0.610  2.3911 -1.1646  0.0506
   53MOL   H10819972   0.660   3.562   0.506  0.1070  0.0253  0.7573
   53MOL   H10919973   0.742   3.710   0.464  0.7427 -1.3700  0.8182
   53MOL   H11019974   0.654   3.575   0.244 -0.9882  1.3174 -2.4405
   53MOL   H11119975   0.631   3.737   0.256  1.3204  1.5429  2.0786
   53MOL   H11219976   0.405   3.657   0.206  2.0482  2.3811 -0.3387
   53MOL   H11319977   0.423   3.544   0.342 -0.3094  1.4838  2.8873
   53MOL   H11419978   0.216   3.845   0.647 -0.6080 -1.9334  0.6785
   53MOL   H11519979   0.303   3.922   0.540  0.5877 -0.3885 -0.2317
   53MOL   C11619980   0.095   3.906   0.485 -0.0071  0.3824  0.4175
   53MOL   C11719981   0.017   3.998   0.590  0.3039 -0.6148 -0.2646
   53MOL   C11819982   7.634   3.927   0.703 -0.2200  0.1789 -0.1706
   53MOL   C11919983   7.586   4.047   0.789  0.3933 -0.5250 -0.1744
   53MOL   C12019984   0.015   4.139   0.795 -0.1385 -0.3301 -0.3936
   53MOL   C12119985   0.084   4.121   0.656 -0.3728 -0.1602 -0.7656
   53MOL   C12219986   0.095   3.961   0.337 -1.0611 -0.9153  0.8741
   53MOL   H12319987   0.022   3.826   0.475  0.1062  0.3114  0.1624
   53MOL   H12419988   7.623   4.040   0.535  1.4138 -0.6117 -1.9814
   53MOL   H12519989   7.550   3.870   0.662 -1.0172 -0.3287  2.0950
   53MOL   H12619990   0.003   3.858   0.763 -2.8364 -1.4108  0.6582
   53MOL   H12719991   7.563   4.029   0.894 -0.4869 -1.7722 -0.5743
   53MOL   H12819992   7.496   4.088   0.743 -0.5254 -2.0266  0.2585
   53MOL   H12919993   0.077   4.122   0.883 -1.2488 -0.6463  0.3281
   53MOL   H13019994   7.672   4.242   0.798 -0.1882 -0.3637  0.2702
   53MOL   H13119995   0.064   4.209   0.595  0.6522  0.5325 -0.1221
   53MOL   H13219996   0.193   4.113   0.653 -0.3002 -0.0666  1.0384
   53MOL   H13319997   7.677   3.963   0.320 -0.9991  0.0011  0.5493
   53MOL   H13419998   0.147   3.900   0.263  1.2265  0.4363  1.2993
   53MOL   C13519999   0.152   4.107   0.311 -0.0468  0.2428 -0.3004
   53MOL   C13620000   0.052   4.206   0.246  0.1687 -0.4136  0.4429
   53MOL   C13720001   7.616   4.241   0.326  0.3670  0.2160  0.0634
   53MOL   C13820002   7.517   4.300   0.222  0.4645 -0.6646 -0.4820
   53MOL   C13920003   7.542   4.208   0.104  0.1897  0.1201 -0.1014
   53MOL   C14020004   0.002   4.167   0.107  0.3863  0.2180 -0.4021
   53MOL   C14120005   0.280   4.095   0.222  0.6317 -0.1371 -0.0712
   53MOL   H14220006   0.179   4.150   0.407  0.3776  1.1050 -0.7940
   53MOL   H14320007   0.114   4.295   0.238  1.4101 -1.1101  1.9462
   53MOL   H14420008   7.568   4.158   0.378 -0.4755 -0.9368 -2.4525
   53MOL   H14520009   7.629   4.319   0.400 -0.0573  0.5649 -0.2247
   53MOL   H14620010   7.550   4.398   0.188  0.0949 -0.3235  0.1469
   53MOL   H14720011   7.413   4.297   0.254  0.4578 -0.2331 -0.4660
   53MOL   H14820012   7.521   4.260   0.011  1.0100  1.1930  0.2957
   53MOL   H14920013   7.478   4.120   0.106  1.0588 -0.5630 -1.7820
   53MOL   H15020014   0.025   4.066   0.074 -0.0262  0.8067 -2.5779
   53MOL   H15120015   0.045   4.222   0.024  0.3803 -1.1757 -1.3384
   53MOL   H15220016   0.247   4.051   0.128  1.0259 -2.0321  0.6523
   53MOL   H15320017   0.341   4.017   0.267 -0.5476  0.8593  3.3864
   53MOL   C15420018   0.370   4.223   0.207 -0.0413  0.0259  0.1363
   53MOL   C15520019   0.509   4.210   0.282 -0.2551  0.4734 -0.2586
   53MOL   C15620020   0.609   4.106   0.214 -0.0720  0.3556  0.4792
   53MOL   C15720021   0.704   4.068   0.329 -0.0560  0.7917 -0.1588
   53MOL   C15820022   0.654   4.125   0.464  0.8166  0.3524 -0.1848
   53MOL   C15920023   0.511   4.173   0.433 -0.3198  0.1410 -0.0317
   53MOL   C16020024   0.399   4.255   0.054  0.2146 -0.1779 -0.1742
   53MOL   H16120025   0.323   4.311   0.251  0.6676  0.3073  0.3418
   53MOL   H16220026   0.569   4.301   0.282  1.2750 -0.5177  0.5753
   53MOL   H16320027   0.556   4.021   0.169 -1.8711  2.1377 -0.8688
   53MOL   H16420028   0.669   4.153   0.137 -0.3487  0.9964  0.6502
   53MOL   H16520029   0.696   3.961   0.349  0.6223  0.6892 -0.4147
   53MOL   H16620030   0.805   4.101   0.305  0.5822  1.2867  2.9907
   53MOL   H16720031   0.714   4.213   0.483 -0.8790  1.2999  0.8687
   53MOL   H16820032   0.671   4.058   0.549 -2.1881 -0.4489 -0.1635
   53MOL   H16920033   0.476   4.255   0.495  0.9302  0.5619  0.1292
   53MOL   H17020034   0.434   4.098   0.453  0.0643 -0.8381 -2.0922
   53MOL   H17120035   0.300   4.273   0.012 -0.3195  0.2878  1.2672
   53MOL   H17220036   0.439   4.169   7.689  1.6742  0.3139  0.0991
   53MOL   C17320037   0.464   4.386   0.010  0.1887  0.5489  0.0400
   53MOL   C17420038   0.413   4.516   0.078  0.3301 -0.0252  0.7214
   53MOL   C17520039   0.279   4.556   0.028  0.2846 -0.3490 -0.8549
   53MOL   C17620040   0.298   4.695   7.654  0.9139  0.8309 -0.7148
   53MOL   C17720041   0.412   4.755   0.039 -0.1046 -0.2851  0.4181
   53MOL   C17820042   0.508   4.636   0.066  0.4667 -0.3402  0.1901
   53MOL   C17920043   0.481   4.396   7.548  0.0729  0.2584 -0.3196
   53MOL   H18020044   0.558   4.377   0.065 -1.4028  0.5167  2.9028
   53MOL   H18120045   0.411   4.489   0.184 -2.2687  1.1871  1.0040
   53MOL   H18220046   0.207   4.560   0.110 -0.0298 -0.6449 -1.1126
   53MOL   H18320047   0.236   4.474   7.660 -1.2643 -0.5062  0.4725
   53MOL   H18420048   0.319   4.691   7.547  0.8545  2.6918 -0.8127
   53MOL   H18520049   0.206   4.754   7.664 -0.4866 -1.5448  0.7949
   53MOL   H18620050   0.378   4.793   0.135  0.8201  3.0437 -0.5131
   53MOL   H18720051   0.461   4.837   7.676  2.0308 -1.8173 -0.0644
   53MOL   H18820052   0.582   4.635   7.676  0.1319  0.6927 -0.1340
   53MOL   H18920053   0.565   4.656   0.156 -1.9342  1.0793  1.4521
   53MOL   H19020054   0.420   4.319   7.501 -0.6388  1.0968 -0.7757
   53MOL   H19120055   0.432   4.488   7.516 -1.0704 -0.1038  0.3811
   53MOL   C19220056   0.622   4.379   7.488 -0.1686 -0.5967 -0.0242
   53MOL   C19320057   0.631   4.436   7.347 -0.1893 -0.4095  0.1880
   53MOL   C19420058   0.619   4.590   7.351 -0.3477 -0.0268 -0.0438
   53MOL   C19520059   0.525   4.625   7.228 -0.7278 -0.2418 -0.2469
   53MOL   C19620060   0.544   4.499   7.135  0.2236  0.3382 -1.1720
   53MOL   C19720061   0.536   4.388   7.239  0.0266 -0.1911  0.6361
   53MOL   C19820062   0.671   4.236   7.496 -0.3094 -0.1614  0.6582
   53MOL   H19920063   0.674   4.448   7.554 -2.0414  1.3767 -0.5507
   53MOL   H20020064   0.736   4.422   7.319  0.4917 -0.4104  2.6851
   53MOL   H20120065   0.719   4.632   7.356 -0.0343 -0.9059  1.4318
   53MOL   H20220066   0.580   4.638   7.441  0.4418  2.8780 -1.1974
   53MOL   H20320067   0.420   4.618   7.258  0.1402 -1.6331  2.7345
   53MOL   H20420068   0.538   4.715   7.169  0.3606 -0.8489 -0.9560
   53MOL   H20520069   0.641   4.513   7.087  1.0369 -0.1880  0.2996
   53MOL   H20620070   0.468   4.484   7.058  0.2470  1.1473 -1.3621
   53MOL   H20720071   0.573   4.300   7.187 -2.8242  0.7366 -3.2010
   53MOL   H20820072   0.432   4.368   7.268 -0.3806  2.0834  0.8278
   53MOL   H20920073   0.661   4.190   7.594 -0.8588 -0.3187  0.5264
   53MOL   H21020074   0.603   4.191   7.423 -1.0126  0.0751  1.1683
   53MOL   C21120075   0.819   4.191   7.458 -0.0322 -0.4223 -0.1354
   53MOL   C21220076   0.925   4.259   7.549  0.4033 -0.0441 -0.4516
   53MOL   C21320077   0.964   4.400   7.505 -0.3513 -0.4302 -0.4123
   53MOL   C21420078   1.022   4.467   7.626 -0.4020 -0.0586  0.0712
   53MOL   C21520079   0.951   4.421   0.063  0.0850 -0.0757  0.9295
   53MOL   C21620080   0.878   4.293   0.008  0.1854  0.1049  0.8100
   53MOL   C21720081   0.829   4.033   7.473 -0.6131 -0.3134  0.7919
   53MOL   H21820082   0.836   4.216   7.353  2.1194 -1.0780  0.0315
   53MOL   H21920083   1.020   4.207   7.543 -0.7011 -2.2801  0.5948
   53MOL   H22020084   1.029   4.386   7.419 -0.9993  1.9302 -1.3154
   53MOL   H22120085   0.879   4.457   7.468 -1.3037 -0.9169  0.9844
   53MOL   H22220086   1.129   4.446   7.633 -0.0392  1.2308 -1.5259
   53MOL   H22320087   1.020   4.575   7.617 -2.3513 -0.2356 -2.1723
   53MOL   H22420088   0.890   4.508   0.085  1.3077  0.7324  1.1620
   53MOL   H22520089   1.014   4.392   0.147  1.6448 -2.0817 -0.8828
   53MOL   H22620090   0.906   4.205   0.066 -0.4815 -0.3420  0.4521
   53MOL   H22720091   0.772   4.315   0.012 -0.0098 -0.8320  0.9403
   53MOL   H22820092   0.802   3.998   7.573  2.0214  1.4589  2.1903
   53MOL   H22920093   0.936   4.013   7.473 -0.8030 -1.5499 -2.0596
   53MOL   C23020094   0.768   3.962   7.351 -0.6055  0.0829  0.0254
   53MOL   C23120095   0.701   3.818   7.392 -0.0530 -0.2265  0.2317
   53MOL   C23220096   0.786   3.723   7.473  0.2298  0.0322 -0.5216
   53MOL   C23320097   0.693   3.610   7.513  0.3227  0.2363 -0.2313
   53MOL   C23420098   0.557   3.668   7.537  0.1320 -0.5962  0.1244
   53MOL   C23520099   0.569   3.809   7.471  0.1104 -0.4371  0.0049
   53MOL   C23620100   0.872   3.961   7.246  0.0113  0.4321  0.6376
   53MOL   H23720101   0.678   4.015   7.317 -0.6331 -0.1519 -0.2684
   53MOL   H23820102   0.686   3.768   7.296  1.0959  0.3865 -0.2845
   53MOL   H23920103   0.869   3.681   7.417 -1.7514 -3.7059 -0.8256
   53MOL   H24020104   0.804   3.771   7.568 -0.5669  2.0653 -1.3610
   53MOL   H24120105   0.692   3.534   7.435 -0.9210 -0.6534  0.6278
   53MOL   H24220106   0.726   3.561   7.605  0.9165 -0.4364 -0.7943
   53MOL   H24320107   0.539   3.670   7.645  0.0147  1.0256  0.0978
   53MOL   H24420108   0.480   3.610   7.487 -1.9472 -0.2569  2.8181
   53MOL   H24520109   0.569   3.884   7.550 -0.0670  1.0033 -1.3411
   53MOL   H24620110   0.480   3.823   7.411 -1.0370 -0.0595  1.7723
   53MOL   H24720111   0.937   3.878   7.272  0.5959  1.4199  2.3946
   53MOL   H24820112   0.924   4.055   7.232 -0.8250  0.9063  0.7037
   53MOL   C24920113   0.814   3.935   7.102  0.0245  0.2166 -1.1249
   53MOL   C25020114   0.907   3.841   7.022 -0.2912 -0.2847  0.2619
   53MOL   C25120115   0.929   3.702   7.080  0.8744 -0.0801 -0.2015
   53MOL   C25220116   1.078   3.690   7.105  0.3691  0.2275 -0.8621
   53MOL   C25320117   1.138   3.781   6.995  0.1899  1.0149 -0.2040
   53MOL   C25420118   1.042   3.895   6.990  0.1106 -0.1976 -0.5279
   53MOL   C25520119   0.791   4.069   7.024  0.1947 -0.1779  0.1026
   53MOL   H25620120   0.727   3.871   7.117  2.0757 -1.7290  3.4530
   53MOL   H25720121   0.851   3.824   6.931 -0.5427  1.2259  0.1318
   53MOL   H25820122   0.883   3.635   7.007 -2.6487 -0.4296  2.2532
   53MOL   H25920123   0.881   3.687   7.176  0.4713 -0.7360 -0.4983
   53MOL   H26020124   1.124   3.591   7.098  0.5227  0.1975  0.4328
   53MOL   H26120125   1.096   3.734   7.203  0.1156  0.3908 -0.8895
   53MOL   H26220126   1.159   3.729   6.902 -0.3958 -3.9015  2.2263
   53MOL   H26320127   1.235   3.808   7.036 -0.3343  0.4276  1.4750
   53MOL   H26420128   1.035   3.947   6.894 -1.2895 -3.0399 -2.0613
   53MOL   H26520129   1.084   3.974   7.051 -0.0541 -0.7142  0.2488
   53MOL   H26620130   0.740   4.138   7.092  1.2229 -0.6654  1.3669
   53MOL   H26720131   0.886   4.119   7.006 -0.7639  1.3683 -0.8599
   53MOL   C26820132   0.717   4.061   6.890 -0.3735  0.1163  0.1795
   53MOL   C26920133   0.697   4.190   6.809  0.7124  0.4877 -0.4966
   53MOL   C27020134   0.828   4.254   6.763  0.1618 -0.1853 -0.0506
   53MOL   C27120135   0.811   4.409   6.767  0.3013  0.2161 -0.8897
   53MOL   C27220136   0.666   4.421   6.794  0.4283  0.0937  0.2960
   53MOL   C27320137   0.629   4.303   6.876 -0.6762  0.4556  0.0610
   53MOL   C27420138   0.577   3.995   6.903 -0.4567  0.2618 -0.0717
   53MOL   H27520139   0.778   4.006   6.819 -0.3164  2.5948 -1.7649
   53MOL   H27620140   0.636   4.170   6.721  0.0694 -1.3462  0.3371
   53MOL   H27720141   0.914   4.213   6.817  0.2015 -1.2474 -0.9198
   53MOL   H27820142   0.841   4.217   6.662 -0.1790 -0.3175 -0.0462
   53MOL   H27920143   0.871   4.449   6.849 -0.2970  0.2243 -0.4526
   53MOL   H28020144   0.855   4.450   6.676  1.9850 -0.4759 -0.3945
   53MOL   H28120145   0.599   4.421   6.708  2.6891  1.5194 -1.5252
   53MOL   H28220146   0.635   4.508   6.852 -2.4308 -0.3122 -0.5617
   53MOL   H28320147   0.521   4.311   6.876 -0.6396  0.9750 -0.1806
   53MOL   H28420148   0.670   4.309   6.977 -1.2135 -2.2122  0.4800
   53MOL   H28520149   0.505   4.069   6.937 -1.7890 -0.1210 -1.9199
   53MOL   H28620150   0.572   3.923   6.984  2.3890 -0.4543 -0.4649
   53MOL   C28720151   0.519   3.919   6.776  0.3937  0.1627 -0.5300
   53MOL   C28820152   0.591   3.780   6.764 -0.0289  0.3257 -0.4930
   53MOL   C28920153   0.545   3.678   6.870  0.0721 -0.1846  0.1816
   53MOL   C29020154   0.595   3.544   6.815 -0.5215 -0.2665 -0.4167
   53MOL   C29120155   0.587   3.557   6.662 -0.0577 -0.3543  0.2243
   53MOL   C29220156   0.587   3.704   6.634 -0.0957 -0.1074  0.0737
   53MOL   C29320157   0.363   3.903   6.779  0.7827 -0.5623  1.0462
   53MOL   H29420158   0.542   3.981   6.689 -1.7506  0.0545 -1.1856
   53MOL   H29520159   0.691   3.810   6.794  0.2677 -0.5766 -0.5912
   53MOL   H29620160   0.588   3.697   6.969  2.1859 -0.2810 -0.6857
   53MOL   H29720161   0.438   3.669   6.884  0.3280 -1.3319  1.4357
   53MOL   H29820162   0.703   3.534   6.831 -0.6860 -1.8807 -0.1819
   53MOL   H29920163   0.547   3.454   6.853 -1.8788  0.0480 -1.3530
   53MOL   H30020164   0.492   3.507   6.644  0.0558 -0.5731  0.2419
   53MOL   H30120165   0.668   3.495   6.625  0.7155 -0.3803  1.8855
   53MOL   H30220166   0.497   3.721   6.574  0.2837  1.0167 -0.1927
   53MOL   H30320167   0.670   3.751   6.581  0.0905 -0.3864  0.1172
   53MOL   H30420168   0.335   3.891   6.884 -1.0113 -2.7657  0.3479
   53MOL   H30520169   0.339   3.807   6.733 -1.4996  0.8346 -0.7915
   53MOL   C30620170   0.274   4.017   6.729 -0.3653 -0.0457 -0.6946
   53MOL   C30720171   0.267   4.014   6.576 -0.1020 -0.6445 -0.0455
   53MOL   C30820172   0.169   3.924   6.494 -0.0949 -0.5145 -0.0421
   53MOL   C30920173   0.187   3.961   6.347 -0.2727  0.5294  0.3723
   53MOL   C31020174   0.216   4.114   6.352  0.1599  0.2429 -0.0220
   53MOL   C31120175   0.237   4.149   6.498  0.3704 -0.3061  0.3634
   53MOL   C31220176   0.139   4.041   6.810  0.4438  0.1140  0.0465
   53MOL   H31320177   0.329   4.107   6.756  0.1502 -0.0910 -1.5756
   53MOL   H31420178   0.367   3.985   6.543  0.2517  2.0763 -1.5099
   53MOL   H31520179   0.069   3.949   6.529 -0.9136 -2.8053 -0.6361
   53MOL   H31620180   0.174   3.816   6.505 -0.3650 -0.7263 -1.8363
   53MOL   H31720181   0.277   3.910   6.312  0.4623  0.7617  1.8897
   53MOL   H31820182   0.104   3.940   6.279 -0.9331  2.6235  0.4922
   53MOL   H31920183   0.125   4.168   6.323 -0.9417 -0.6173  1.7311
   53MOL   H32020184   0.294   4.156   6.289  0.1159  0.5247  0.1083
   53MOL   H32120185   0.325   4.210   6.521  0.7319  0.3603 -2.5975
   53MOL   H32220186   0.150   4.185   6.553  0.8641  3.2893 -1.0942
   53MOL   H32320187   0.090   3.944   6.818 -1.6567  1.0441 -1.3912
   53MOL   H32420188   0.064   4.079   6.741  1.8972  1.5550 -0.7713
   53MOL   C32520189   0.133   4.127   6.935  0.5637 -0.2336  0.4843
   53MOL   C32620190   0.190   4.274   6.923  0.1013  0.0511  0.0307
   53MOL   C32720191   0.143   4.359   7.041  0.1646 -0.1755 -0.4250
   53MOL   C32820192   0.144   4.502   6.993 -0.2102  0.1202 -0.4859
   53MOL   C32920193   0.172   4.492   6.835 -0.4038 -0.2004 -0.0148
   53MOL   C33020194   0.163   4.349   6.794  0.2840 -0.6490  0.8032
   53MOL   C33120195   0.192   4.061   7.060  0.5681 -0.0776 -0.2134
   53MOL   H33220196   0.025   4.135   6.946  0.3412  0.5721 -1.8721
   53MOL   H33320197   0.297   4.253   6.916 -0.0027 -0.6270  0.4192
   53MOL   H33420198   0.195   4.353   7.136  1.3710 -1.1324 -1.1288
   53MOL   H33520199   0.036   4.337   7.050  0.2392 -0.5608 -0.4410
   53MOL   H33620200   0.224   4.559   7.040  0.0554 -0.8166  0.2087
   53MOL   H33720201   0.043   4.544   6.994  0.6324  2.1741 -0.1426
   53MOL   H33820202   0.280   4.505   6.826 -0.0367 -2.4512  0.9064
   53MOL   H33920203   0.104   4.548   6.771  0.1049  0.1575 -0.2390
   53MOL   H34020204   0.242   4.325   6.722  0.4412  3.4611 -0.5585
   53MOL   H34120205   0.062   4.336   6.757  0.1720  3.1689 -0.4490
   53MOL   H34220206   0.221   4.135   7.134  3.2137 -1.2014 -0.0757
   53MOL   H34320207   0.290   4.015   7.049 -0.0819 -1.4746 -0.3500
   53MOL   C34420208   0.085   3.969   7.129 -0.4379  0.2048 -0.4408
   53MOL   C34520209   0.077   3.975   7.285 -0.3963  0.1380  0.6565
   53MOL   C34620210   0.053   4.125   7.334  0.9969  0.6081  0.2332
   53MOL   C34720211   0.176   4.164   7.416  0.5311  0.7440 -0.7459
   53MOL   C34820212   0.216   4.034   7.473 -0.1317 -0.3047 -0.6021
   53MOL   C34920213   0.194   3.925   7.362 -0.5963 -0.5410 -0.2620
   53MOL   C35020214   0.103   3.827   7.090 -0.2187 -0.0080 -0.1985
   53MOL   H35120215   7.678   4.012   7.106 -0.5721 -1.6687 -3.7014
   53MOL   H35220216   7.676   3.922   7.317 -0.0512 -0.3376  0.8562
   53MOL   H35320217   7.658   4.127   7.403  1.7029 -2.2540  1.2257
   53MOL   H35420218   0.028   4.200   7.259 -1.3157 -0.6906 -0.3434
   53MOL   H35520219   0.258   4.188   7.348  1.4405 -0.7322 -0.1972
   53MOL   H35620220   0.165   4.246   7.487  1.7375 -0.7151  1.1673
   53MOL   H35720221   0.160   4.013   7.565  0.3671 -0.4920 -0.3407
   53MOL   H35820222   0.319   4.042   7.507 -0.7956  2.4818  0.9647
   53MOL   H35920223   0.287   3.923   7.306 -0.4734  1.0104 -0.1318
   53MOL   H36020224   0.167   3.831   7.411  0.5608 -0.0233  1.4167
   53MOL   H36120225   0.165   3.765   7.155 -2.0383  0.1410  1.7010
   53MOL   H36220226   0.166   3.823   7.001  0.1873  0.6257  0.0595
   53MOL   C36320227   7.669   3.754   7.043 -0.1081  0.1775 -0.4396
   53MOL   C36420228   0.013   3.624   6.972 -0.1412 -0.5273 -0.2232
   53MOL   C36520229   0.096   3.634   6.846  0.1634  0.0612 -0.0099
   53MOL   C36620230   0.074   3.509   6.769  0.0754 -0.2793  0.0033
   53MOL   C36720231   7.655   3.430   6.841 -0.5290 -0.2943  0.3130
   53MOL   C36820232   7.589   3.533   6.932  0.4675  0.0668  0.0061
   53MOL   C36920233   7.563   3.736   7.155  0.2739  0.1590 -0.7591
   53MOL   H37020234   7.610   3.813   6.973  1.3366  2.4905  0.2625
   53MOL   H37120235   0.073   3.564   7.040  2.4524  0.8689 -1.2427
   53MOL   H37220236   0.065   3.723   6.792  0.2566 -0.4950 -0.9954
   53MOL   H37320237   0.203   3.644   6.863  0.0739  1.0977 -0.0219
   53MOL   H37420238   0.033   3.523   6.668 -0.3813  0.0372  0.2318
   53MOL   H37520239   0.162   3.447   6.758  0.2351  0.1936 -1.5571
   53MOL   H37620240   7.577   3.378   6.785 -2.0683  1.9301  0.3258
   53MOL   H37720241   0.013   3.345   6.890  0.2884 -1.3195 -2.1784
   53MOL   H37820242   7.539   3.481   7.014  0.1995  2.7364  1.6092
   53MOL   H37920243   7.516   3.589   6.873 -0.5108 -1.4870 -0.2997
   53MOL   H38020244   7.525   3.836   7.178 -0.2961 -0.4379  1.0064
   53MOL   H38120245   7.612   3.695   7.243  0.6845 -0.0758 -1.0994
   53MOL   H38220246   7.466   3.693   7.127  0.2929 -1.7888  1.9098
   54MOL     C120247   6.005   0.638   3.443 -0.0145 -0.1583 -0.7107
   54MOL     C220248   5.923   0.629   3.574 -0.0486  0.3279 -0.0846
   54MOL     C320249   5.792   0.714   3.563 -0.0925 -0.4565  0.4229
   54MOL     C420250   5.753   0.767   3.700  0.2531 -0.3576 -0.5231
   54MOL     C520251   5.887   0.774   3.775  0.5976 -0.5748 -0.1089
   54MOL     C620252   5.993   0.705   3.686  0.9103 -0.3589 -0.0170
   54MOL     C720253   5.933   0.589   3.312  0.0614 -0.3889 -0.6718
   54MOL     H820254   6.043   0.738   3.422 -2.3150  0.5657 -1.5475
   54MOL     H920255   5.904   0.528   3.612  0.9245  0.7441  1.5404
   54MOL    H1020256   5.805   0.795   3.490  0.8376 -3.6077 -3.0931
   54MOL    H1120257   5.712   0.659   3.514  1.1011 -0.4277 -1.6164
   54MOL    H1220258   5.702   0.863   3.693  0.3193 -0.4295 -2.4771
   54MOL    H1320259   5.687   0.706   3.761  2.7416 -0.9535  1.6481
   54MOL    H1420260   5.913   0.879   3.787 -0.4975 -0.2669 -0.3599
   54MOL    H1520261   5.883   0.729   3.874 -0.5514 -1.3491 -0.4975
   54MOL    H1620262   6.048   0.635   3.749  0.8098  0.1825  0.6824
   54MOL    H1720263   6.058   0.778   3.638  0.1844 -0.1269 -0.6682
   54MOL    H1820264   5.852   0.660   3.295  0.3432  0.2627  0.6307
   54MOL    H1920265   5.996   0.602   3.224  0.2282  1.4990 -0.2881
   54MOL    H2020266   6.098   0.586   3.470  0.0197  1.0638  1.6363
   54MOL    C2120267   5.895   0.438   3.318 -0.1380  0.2770 -0.7056
   54MOL    C2220268   5.770   0.400   3.235 -0.1788 -0.8820  0.6155
   54MOL    C2320269   5.757   0.458   3.091 -0.4342 -0.2561 -0.5057
   54MOL    C2420270   5.606   0.456   3.055  0.3504 -0.0703  0.4677
   54MOL    C2520271   5.547   0.408   3.185  0.2744 -0.0075 -0.0397
   54MOL    C2620272   5.635   0.441   3.298  0.8438 -0.1414 -0.2465
   54MOL    C2720273   6.013   0.350   3.280  0.7864  0.9180  0.6319
   54MOL    H2820274   5.877   0.420   3.424 -1.1898  2.8676 -0.4036
   54MOL    H2920275   5.767   0.292   3.229  0.3021 -0.8238 -0.8900
   54MOL    H3020276   5.816   0.407   3.015 -0.2928 -1.2980  0.2898
   54MOL    H3120277   5.787   0.562   3.093 -2.2580  0.3163 -1.4240
   54MOL    H3220278   5.564   0.555   3.039  2.6537  1.4618  3.3623
   54MOL    H3320279   5.590   0.390   2.969 -2.3828 -0.7113  1.4152
   54MOL    H3420280   5.512   0.305   3.184  0.5697 -0.1007 -0.6022
   54MOL    H3520281   5.457   0.464   3.211  1.1197  0.1810  2.7157
   54MOL    H3620282   5.624   0.381   3.389 -2.1337  1.8845  0.8032
   54MOL    H3720283   5.638   0.543   3.337 -0.7313 -0.0449 -0.3430
   54MOL    H3820284   6.017   0.335   3.172 -1.6531 -1.7470  0.8416
   54MOL    H3920285   6.103   0.401   3.315  0.4355  1.4998  0.7071
   54MOL    C4020286   6.018   0.204   3.349  0.5143  0.4882  0.8472
   54MOL    C4120287   6.115   0.107   3.275 -0.2619 -0.2083  0.2263
   54MOL    C4220288   6.098   0.122   3.122  0.4423 -0.0014 -0.0887
   54MOL    C4320289   6.139   7.679   3.053  0.5735 -0.1340 -0.1773
   54MOL    C4420290   6.168   7.579   3.167  0.3427 -1.0432  0.2375
   54MOL    C4520291   6.113   7.643   3.296 -0.1435  0.3863 -0.7884
   54MOL    C4620292   6.060   0.225   3.494 -0.2474 -0.3827  0.2154
   54MOL    H4720293   5.922   0.153   3.348  1.5044 -1.4067 -0.8993
   54MOL    H4820294   6.215   0.146   3.289  0.3636 -1.5284 -0.4492
   54MOL    H4920295   6.174   0.197   3.100  0.7590  0.1786  1.5556
   54MOL    H5020296   5.996   0.148   3.094  0.8036  0.4291 -1.0289
   54MOL    H5120297   6.206   0.004   2.968  1.7933 -2.7582  0.2652
   54MOL    H5220298   6.039   7.643   3.029  0.6562  0.3620 -1.2664
   54MOL    H5320299   6.120   7.488   3.132 -1.8557  0.1515  0.0897
   54MOL    H5420300   6.274   7.558   3.183  0.0265 -1.1255  2.3671
   54MOL    H5520301   6.007   7.626   3.318 -0.1780  0.2851 -1.0257
   54MOL    H5620302   6.175   7.619   3.382 -0.5215 -1.5152 -1.0211
   54MOL    H5720303   6.168   0.220   3.511 -0.5447 -0.2102  2.2932
   54MOL    H5820304   6.037   0.327   3.524 -0.1421  0.4424 -2.3844
   54MOL    C5920305   5.988   0.129   3.596  0.4756  0.3652  0.0830
   54MOL    C6020306   6.086   0.096   3.710  0.1213  0.2997 -0.3866
   54MOL    C6120307   6.148   0.211   3.780 -0.3892  0.0749 -0.1874
   54MOL    C6220308   6.301   0.198   3.748  0.6592 -0.2318  0.4289
   54MOL    C6320309   6.328   0.050   3.764 -0.2381 -0.1163  0.7108
   54MOL    C6420310   6.203   0.006   3.683 -0.4498  1.0908 -0.2406
   54MOL    C6520311   5.847   0.192   3.646 -0.4366 -0.1320 -0.0348
   54MOL    H6620312   5.974   0.028   3.557  1.8189  0.2582 -0.1261
   54MOL    H6720313   6.041   0.039   3.791  0.1396  1.9959  0.8549
   54MOL    H6820314   6.132   0.209   3.887  1.2409  0.8033  0.0819
   54MOL    H6920315   6.116   0.309   3.744 -0.3481  0.8308  1.7839
   54MOL    H7020316   6.362   0.248   3.824 -0.3389  0.9355  0.5001
   54MOL    H7120317   6.336   0.236   3.652  1.6238  0.7154  1.1394
   54MOL    H7220318   6.329   0.026   3.870  0.4874 -1.8917  0.3229
   54MOL    H7320319   6.424   0.014   3.727 -0.6844  0.0187 -0.5970
   54MOL    H7420320   6.219   0.004   3.576 -0.4242 -3.3489 -0.2500
   54MOL    H7520321   6.168   7.594   3.701  0.1074  0.8222 -0.6657
   54MOL    H7620322   5.796   0.244   3.565  1.4076  2.3360  0.3120
   54MOL    H7720323   5.879   0.261   3.724  1.0633 -0.5447 -0.2660
   54MOL    C7820324   5.752   0.082   3.702 -0.2498 -0.2290 -0.4177
   54MOL    C7920325   5.636   0.146   3.780  0.3481 -0.1821  0.3146
   54MOL    C8020326   5.541   0.240   3.701  0.5187  0.6506  0.4954
   54MOL    C8120327   5.576   0.381   3.749  0.0140  0.2421  0.5187
   54MOL    C8220328   5.661   0.370   3.878 -0.5630  0.1608  0.2987
   54MOL    C8320329   5.675   0.224   3.906  0.0415 -0.2072  0.6782
   54MOL    C8420330   5.700   7.673   3.596 -0.1013 -0.5141  0.2372
   54MOL    H8520331   5.811   0.032   3.779 -1.4347 -2.0085 -0.6301
   54MOL    H8620332   5.574   0.070   3.827  0.0557 -0.5527 -0.6534
   54MOL    H8720333   5.438   0.216   3.726  0.1677  0.0385 -1.4609
   54MOL    H8820334   5.554   0.224   3.594 -1.2283 -0.7342  0.4623
   54MOL    H8920335   5.485   0.434   3.774 -0.1408 -0.2945  1.1056
   54MOL    H9020336   5.616   0.437   3.665 -2.7152 -0.5524 -1.3644
   54MOL    H9120337   5.755   0.416   3.848 -1.0890 -1.1907 -3.6698
   54MOL    H9220338   5.624   0.425   3.965 -0.5364  0.3436  0.1948
   54MOL    H9320339   5.772   0.201   3.950 -0.7375  0.0851  2.6029
   54MOL    H9420340   5.610   0.186   3.985 -2.2877  0.1830 -0.9877
   54MOL    H9520341   5.786   7.617   3.559  0.0266 -0.1049 -0.0822
   54MOL    H9620342   5.661   0.033   3.507  0.6918  1.6753  1.0856
   54MOL    C9720343   5.601   7.563   3.644 -0.6157  0.6315  0.0272
   54MOL    C9820344   5.666   7.476   3.764 -0.0941 -0.2773 -0.6628
   54MOL    C9920345   5.570   7.380   3.830  0.3342 -0.4481  0.4827
   54MOL   C10020346   5.669   7.278   3.886  0.4373 -0.7458  0.0057
   54MOL   C10120347   5.782   7.265   3.783 -0.1310  0.7554  0.0568
   54MOL   C10220348   5.796   7.405   3.732 -0.2591 -0.2314  0.4684
   54MOL   C10320349   5.554   7.485   3.519  0.7143 -0.0523  0.0343
   54MOL   H10420350   5.514   7.619   3.679  1.2563  2.8728  1.2573
   54MOL   H10520351   5.692   7.530   3.855  3.1558 -1.7398 -0.6409
   54MOL   H10620352   5.507   7.434   3.901 -0.3287 -1.6399  0.8127
   54MOL   H10720353   5.499   7.340   3.758 -0.4365  2.1352 -0.2517
   54MOL   H10820354   5.629   7.180   3.911 -0.1476 -0.8695 -1.3384
   54MOL   H10920355   5.714   7.318   3.976 -0.6143  0.9432 -0.1876
   54MOL   H11020356   5.752   7.189   3.711 -2.2847  1.5152  0.1130
   54MOL   H11120357   5.876   7.223   3.820 -0.5397 -0.2227  0.0082
   54MOL   H11220358   5.873   7.470   3.776 -0.5311  1.8519 -2.0164
   54MOL   H11320359   5.823   7.395   3.627  2.7353 -2.0181  1.3706
   54MOL   H11420360   5.596   7.531   3.429  2.0509 -0.1549  0.5946
   54MOL   H11520361   5.600   7.387   3.510 -2.0321 -1.5615  2.0217
   54MOL   C11620362   5.398   7.463   3.499  0.2479  0.0940 -0.1787
   54MOL   C11720363   5.325   7.601   3.497  0.4237 -0.0050 -0.6624
   54MOL   C11820364   5.368   0.007   3.391  0.0474 -0.4915 -0.0376
   54MOL   C11920365   5.251   0.099   3.356 -0.0244 -0.0763  0.0351
   54MOL   C12020366   5.135   0.048   3.447  0.1089 -0.8154  0.6541
   54MOL   C12120367   5.174   7.596   3.479 -0.5469  0.3774 -0.3213
   54MOL   C12220368   5.379   7.370   3.374  0.5129 -0.6901  0.2344
   54MOL   H12320369   5.358   7.410   3.585  1.4412  0.8445  0.8471
   54MOL   H12420370   5.334   7.663   3.586 -1.5446 -1.6905  0.7509
   54MOL   H12520371   5.449   0.073   3.424 -1.1210  1.1476 -0.3963
   54MOL   H12620372   5.402   7.654   3.297 -1.1207  0.4608 -0.9026
   54MOL   H12720373   5.224   0.077   3.253 -1.0390  2.2521 -0.2360
   54MOL   H12820374   5.264   0.207   3.354 -1.1245  0.1344  2.1026
   54MOL   H12920375   5.043   0.050   3.389  0.6058  0.3142 -0.1206
   54MOL   H13020376   5.126   0.109   3.537 -1.1727  0.6460 -0.4309
   54MOL   H13120377   5.132   7.560   3.572  1.1298 -1.1924 -0.1307
   54MOL   H13220378   5.143   7.526   3.401 -1.5686 -0.3555  0.7432
   54MOL   H13320379   5.456   7.398   3.303 -0.3810  0.4492 -0.3083
   54MOL   H13420380   5.286   7.387   3.319  1.8353  1.2361 -1.4533
   54MOL   C13520381   5.389   7.214   3.402  0.0033 -0.3046  0.3383
   54MOL   C13620382   5.455   7.125   3.294 -0.3220 -0.7831  0.2201
   54MOL   C13720383   5.601   7.136   3.282 -0.2666 -0.4462  0.5809
   54MOL   C13820384   5.639   7.086   3.145  0.3568  0.4094  0.2203
   54MOL   C13920385   5.503   7.076   3.065  0.1159 -0.3411  0.0156
   54MOL   C14020386   5.399   7.142   3.156 -0.3234 -0.1344 -0.6339
   54MOL   C14120387   5.248   7.161   3.443 -0.4331 -0.5920  0.3871
   54MOL   H14220388   5.450   7.201   3.491 -1.2834  0.4119  1.3381
   54MOL   H14320389   5.444   7.022   3.329  0.0462 -0.8944 -0.0003
   54MOL   H14420390   5.616   7.244   3.275  0.3181 -0.5647 -0.0592
   54MOL   H14520391   5.667   7.102   3.361 -1.0032 -1.7873  0.6368
   54MOL   H14620392   5.680   6.987   3.160 -0.1187  0.1554 -0.1045
   54MOL   H14720393   5.715   7.154   3.106 -0.3803 -0.4912 -2.9939
   54MOL   H14820394   5.488   6.968   3.066  1.1474 -0.5050 -0.8224
   54MOL   H14920395   5.518   7.119   2.966 -1.2541 -1.3107 -0.6155
   54MOL   H15020396   5.375   7.245   3.133 -0.1799  0.0895  0.2237
   54MOL   H15120397   5.307   7.085   3.142 -0.6092 -0.1246  1.1756
   54MOL   H15220398   5.205   7.134   3.347  0.9260 -1.3235 -0.0288
   54MOL   H15320399   5.183   7.245   3.468  1.4021  0.3335  2.1203
   54MOL   C15420400   5.242   7.052   3.556  0.1869 -0.7817  0.6825
   54MOL   C15520401   5.266   7.125   3.694 -0.5232 -0.8781  0.0967
   54MOL   C15620402   5.298   7.036   3.820 -0.2244 -0.0312  0.0508
   54MOL   C15720403   5.217   7.089   3.944  0.1104  0.3989  0.4115
   54MOL   C15820404   5.175   7.228   3.894 -0.2485  0.5909 -0.2708
   54MOL   C15920405   5.151   7.214   3.746 -0.0459 -0.3923  0.0271
   54MOL   C16020406   5.114   6.959   3.556  0.1116  0.0806 -0.3289
   54MOL   H16120407   5.328   6.990   3.529  0.8257  0.5487 -0.3810
   54MOL   H16220408   5.344   7.194   3.662  1.1100 -2.6497  0.1948
   54MOL   H16320409   5.285   6.928   3.807  1.6390 -0.2996  0.2345
   54MOL   H16420410   5.401   7.056   3.850 -0.1027 -1.1893  0.4685
   54MOL   H16520411   5.131   7.025   3.965  0.6550  0.1859  2.0716
   54MOL   H16620412   5.269   7.099   4.039  0.3682  2.1531  0.1027
   54MOL   H16720413   5.254   7.301   3.911 -0.9971  1.8939 -2.2048
   54MOL   H16820414   5.088   7.253   3.955  1.4461 -0.1889  2.5731
   54MOL   H16920415   5.156   7.318   3.715 -0.1902 -0.6388 -0.8478
   54MOL   H17020416   5.051   7.171   3.732 -1.0609  2.1949 -0.9584
   54MOL   H17120417   5.039   7.006   3.619  1.4238 -0.1902  1.4684
   54MOL   H17220418   5.147   6.870   3.609  0.8716  0.7469  0.3340
   54MOL   C17320419   5.055   6.915   3.421  0.4600 -0.4044 -0.9510
   54MOL   C17420420   5.163   6.854   3.316 -0.8868  0.3009  0.2872
   54MOL   C17520421   5.102   6.794   3.192 -0.4851  0.3077  0.3927
   54MOL   C17620422   5.202   6.691   3.137 -0.4242 -0.4240  0.2544
   54MOL   C17720423   5.309   6.673   3.246  0.3052 -0.7270  0.1586
   54MOL   C17820424   5.253   6.743   3.371  0.3919 -0.7445 -0.4041
   54MOL   C17920425   4.958   7.016   3.355  0.5039  0.1525  0.3056
   54MOL   H18020426   4.990   6.831   3.446 -1.4349  0.9747 -1.1260
   54MOL   H18120427   5.235   6.934   3.296 -0.7049  0.4199  1.3983
   54MOL   H18220428   5.083   6.873   3.120 -1.3313  0.8799  1.2221
   54MOL   H18320429   5.004   6.751   3.214 -0.9705 -0.4978 -3.1274
   54MOL   H18420430   5.149   6.603   3.100  2.6094 -2.1237 -0.1455
   54MOL   H18520431   5.249   6.731   3.048 -0.0516 -0.0548  0.6140
   54MOL   H18620432   5.403   6.716   3.212  0.6916 -0.6502  1.2880
   54MOL   H18720433   5.329   6.570   3.274 -0.2691 -0.6057  1.0699
   54MOL   H18820434   5.194   6.668   3.424 -2.1658  0.8401 -0.8980
   54MOL   H18920435   5.324   6.784   3.443 -0.4851 -1.2272  0.7532
   54MOL   H19020436   5.015   7.108   3.341 -0.8552  1.2074  1.5839
   54MOL   H19120437   4.922   6.995   3.254  1.8514 -0.2013 -0.1179
   54MOL   C19220438   4.833   7.059   3.436  0.0916 -0.5420  0.3228
   54MOL   C19320439   4.717   6.949   3.437 -0.2502  0.3947  0.1154
   54MOL   C19420440   4.710   6.854   3.552 -0.8608 -0.3333 -0.4746
   54MOL   C19520441   4.639   6.729   3.501 -0.4059  0.2076 -0.3300
   54MOL   C19620442   4.590   6.760   3.355 -0.4227  0.2846 -0.3108
   54MOL   C19720443   4.687   6.868   3.308 -0.4443  0.8822  0.3748
   54MOL   C19820444   4.773   7.187   3.380 -0.6424  0.3729 -0.1217
   54MOL   H19920445   4.861   7.083   3.538 -2.8297  1.7033  0.6370
   54MOL   H20020446   4.623   7.004   3.449 -0.3494  0.1792  0.3472
   54MOL   H20120447   4.655   6.889   3.639  1.0613 -0.5108  0.8365
   54MOL   H20220448   4.814   6.825   3.571 -0.4970  0.3597 -1.3626
   54MOL   H20320449   4.703   6.642   3.500 -1.3576 -0.5086  0.1230
   54MOL   H20420450   4.554   6.705   3.566  0.8130 -0.4007  1.0617
   54MOL   H20520451   4.491   6.804   3.372  0.2428  1.2913  1.0454
   54MOL   H20620452   4.569   6.670   3.297 -1.3173 -0.0501  0.5126
   54MOL   H20720453   4.649   6.934   3.230  0.0211 -0.7578 -1.2788
   54MOL   H20820454   4.775   6.827   3.258 -0.8542 -0.1668  0.5047
   54MOL   H20920455   4.862   7.247   3.361  1.4727 -1.1831  4.3809
   54MOL   H21020456   4.719   7.173   3.285  0.3476 -0.8568 -0.5124
   54MOL   C21120457   4.677   7.271   3.474 -0.5291 -0.6009 -0.4385
   54MOL   C21220458   4.764   7.356   3.573  0.0262 -0.2050  0.5004
   54MOL   C21320459   4.827   7.480   3.518 -0.1964 -0.0120 -0.0905
   54MOL   C21420460   4.753   7.591   3.586  0.2915  0.2055 -0.4108
   54MOL   C21520461   4.729   7.544   3.730 -0.1799  0.5027  0.0609
   54MOL   C21620462   4.692   7.400   3.702  0.1438  0.5706  0.6755
   54MOL   C21720463   4.575   7.366   3.396 -0.0584  0.6534 -0.3189
   54MOL   H21820464   4.613   7.211   3.539  1.0331 -2.0104 -0.1665
   54MOL   H21920465   4.847   7.289   3.596 -0.0008 -0.9037 -1.3699
   54MOL   H22020466   4.929   7.493   3.552 -0.6853 -1.5029  2.1021
   54MOL   H22120467   4.831   7.491   3.410 -1.2613 -1.0476 -0.2587
   54MOL   H22220468   4.798   0.001   3.586  0.5748  0.0866  1.3002
   54MOL   H22320469   4.654   7.601   3.542  0.0533 -1.0914 -0.1865
   54MOL   H22420470   4.650   7.602   3.779  0.6298  0.6770  1.1692
   54MOL   H22520471   4.825   7.561   3.778  0.0524  0.3956 -0.3620
   54MOL   H22620472   4.729   7.349   3.791  0.8931 -1.1268 -0.5717
   54MOL   H22720473   4.585   7.384   3.704  0.2561 -0.1926  0.8847
   54MOL   H22820474   4.617   7.419   3.310  0.8135  0.7458  0.1568
   54MOL   H22920475   4.544   7.450   3.459 -0.9847 -0.0108  0.1257
   54MOL   C23020476   4.445   7.304   3.339 -0.0836 -0.2017  0.8841
   54MOL   C23120477   4.399   7.362   3.199 -0.2914  0.9289  0.0725
   54MOL   C23220478   4.502   7.341   3.081  0.0015 -0.1992 -0.1769
   54MOL   C23320479   4.423   7.313   2.959 -0.5532 -0.0247  0.6533
   54MOL   C23420480   4.275   7.325   2.994  0.0054  0.1605 -0.6610
   54MOL   C23520481   4.266   7.312   3.149 -0.2791 -0.2170  0.1456
   54MOL   C23620482   4.324   7.310   3.431 -0.1097 -0.4518  0.2157
   54MOL   H23720483   4.464   7.198   3.322 -1.1893 -0.4264  1.0015
   54MOL   H23820484   4.398   7.471   3.207 -0.8362  0.9729 -0.5412
   54MOL   H23920485   4.569   7.424   3.058 -0.9496  0.1766 -1.6126
   54MOL   H24020486   4.567   7.256   3.103 -0.3585 -0.7396 -1.1861
   54MOL   H24120487   4.452   7.364   2.868  2.0165  0.0480  1.4525
   54MOL   H24220488   4.437   7.208   2.933 -0.6063 -0.1852  1.2456
   54MOL   H24320489   4.205   7.263   2.938 -1.6117  1.4652 -0.1305
   54MOL   H24420490   4.258   7.424   2.952 -1.9331  1.1355  2.2957
   54MOL   H24520491   4.246   7.205   3.159 -1.1046 -0.0428  0.4491
   54MOL   H24620492   4.182   7.369   3.189 -1.5300 -0.8071 -1.5461
   54MOL   H24720493   4.222   7.308   3.393  0.7177  1.4628 -2.3090
   54MOL   H24820494   4.331   7.411   3.473 -0.1405 -0.6749  0.7565
   54MOL   C24920495   4.326   7.221   3.557 -0.0127  0.8813 -0.4009
   54MOL   C25020496   4.339   7.068   3.526  0.3645 -1.0187  0.3654
   54MOL   C25120497   4.220   7.021   3.445  0.3656  0.1688 -0.5467
   54MOL   C25220498   4.209   6.874   3.471 -0.0711 -0.1171 -0.3292
   54MOL   C25320499   4.242   6.857   3.627 -0.4992  0.0797  0.1942
   54MOL   C25420500   4.348   6.971   3.647  0.0879  0.2430  0.2053
   54MOL   C25520501   4.205   7.246   3.656 -0.4639 -0.4287  0.5758
   54MOL   H25620502   4.417   7.230   3.617 -0.6331  1.0714  0.5228
   54MOL   H25720503   4.427   7.044   3.466  0.4912  1.7933 -0.6453
   54MOL   H25820504   4.223   7.053   3.340  3.1246 -2.2617 -1.2725
   54MOL   H25920505   4.125   7.062   3.478  0.4032 -1.2789  1.3987
   54MOL   H26020506   4.290   6.826   3.417 -0.2309 -0.4469 -0.2784
   54MOL   H26120507   4.110   6.840   3.439 -0.4989  1.4447 -0.7152
   54MOL   H26220508   4.279   6.759   3.657 -0.2759  0.6451  1.8228
   54MOL   H26320509   4.153   6.889   3.680  0.6075  1.9031  0.9799
   54MOL   H26420510   4.444   6.919   3.649  0.0360  0.1520  0.3281
   54MOL   H26520511   4.338   7.005   3.750 -0.0934  1.4734 -0.2130
   54MOL   H26620512   4.118   7.275   3.597 -0.4255 -1.5327 -0.0519
   54MOL   H26720513   4.163   7.157   3.702  0.0539 -1.7882 -1.5062
   54MOL   C26820514   4.233   7.363   3.753  0.2019  0.1390  0.2782
   54MOL   C26920515   4.338   7.325   3.867 -0.1811  0.3661  0.2700
   54MOL   C27020516   4.286   7.216   3.963  0.5786  0.4623  0.5850
   54MOL   C27120517   4.313   7.264   4.106 -0.4241 -0.7387  0.0424
   54MOL   C27220518   4.428   7.363   4.093  0.8371 -0.0382 -0.2483
   54MOL   C27320519   4.394   7.431   3.960 -0.0015 -0.0404 -0.1108
   54MOL   C27420520   4.096   7.419   3.800  0.0991  0.2087  0.1380
   54MOL   H27520521   4.277   7.447   3.699  1.3508 -0.0450  0.9043
   54MOL   H27620522   4.430   7.281   3.829 -1.6090 -1.5306 -1.0779
   54MOL   H27720523   4.180   7.197   3.948  1.5176 -3.0231 -2.3253
   54MOL   H27820524   4.338   7.126   3.931 -2.7986 -1.3421  0.0494
   54MOL   H27920525   4.221   7.312   4.140 -1.6445 -1.1988 -2.4503
   54MOL   H28020526   4.344   7.182   4.171  1.7235  1.2001  1.5466
   54MOL   H28120527   4.529   7.320   4.098  1.1868  0.8656  0.5518
   54MOL   H28220528   4.433   7.429   4.179  2.3611 -0.0585 -0.2942
   54MOL   H28320529   4.480   7.481   3.915 -0.3215  0.3723 -0.2702
   54MOL   H28420530   4.315   7.504   3.979  1.0988  1.3052 -0.5957
   54MOL   H28520531   4.105   7.453   3.904  0.1400 -0.9020  0.5078
   54MOL   H28620532   4.030   7.332   3.800  0.7389 -0.2968  1.2922
   54MOL   C28720533   4.040   7.534   3.715  0.5565  0.1021  0.5099
   54MOL   C28820534   3.885   7.561   3.734  1.2000  0.2263 -0.6692
   54MOL   C28920535   3.790   7.454   3.677  0.6871 -0.7024  0.3463
   54MOL   C29020536   3.655   7.478   3.743  0.0348 -0.2697 -0.2691
   54MOL   C29120537   3.700   7.516   3.886 -0.0648  0.1414 -0.1829
   54MOL   C29220538   3.841   7.588   3.879  0.0315 -0.1135  1.0465
   54MOL   C29320539   4.115   7.667   3.734 -0.2609 -0.3573 -0.3129
   54MOL   H29420540   4.050   7.505   3.611 -0.7258 -2.2739  1.0234
   54MOL   H29520541   3.862   7.651   3.678 -2.1992 -0.4994 -0.5285
   54MOL   H29620542   3.776   7.461   3.569 -1.5886  2.5436  0.7398
   54MOL   H29720543   3.837   7.360   3.703  3.2467  0.7701  1.2038
   54MOL   H29820544   3.610   7.567   3.700  0.0475 -0.7292 -1.2677
   54MOL   H29920545   3.584   7.396   3.744 -1.4962  1.0373 -0.5922
   54MOL   H30020546   3.714   7.430   3.951  0.8059  1.2686  1.1598
   54MOL   H30120547   3.639   7.591   3.936 -1.2196  0.3287 -1.8233
   54MOL   H30220548   3.908   7.545   3.954 -0.7702 -0.0295  1.8188
   54MOL   H30320549   3.836   0.007   3.887 -0.4584  0.1084 -1.8886
   54MOL   H30420550   4.214   7.649   3.775 -0.7918  0.1764  1.2671
   54MOL   H30520551   4.076   0.023   3.825 -1.3088  0.9672 -1.3933
   54MOL   C30620552   4.113   0.068   3.611  0.0078  0.0289  0.0368
   54MOL   C30720553   4.130   0.219   3.646  0.8566  0.3308 -0.8550
   54MOL   C30820554   4.006   0.279   3.712  0.9157  0.5253 -0.4254
   54MOL   C30920555   4.055   0.385   3.805  1.1120 -0.1267  0.0743
   54MOL   C31020556   4.190   0.337   3.848  0.6104  0.6969 -0.2261
   54MOL   C31120557   4.247   0.249   3.734 -0.7455 -0.4283  0.0632
   54MOL   C31220558   4.229   0.019   3.522  0.2556 -0.6247 -0.3754
   54MOL   H31320559   4.012   0.058   3.570  0.3722 -1.5994 -0.4926
   54MOL   H31420560   4.141   0.279   3.556 -1.9601  2.5687  0.2121
   54MOL   H31520561   3.943   0.205   3.760 -1.3253  1.8568 -1.2080
   54MOL   H31620562   3.943   0.328   3.637 -0.9197 -0.1156  0.6849
   54MOL   H31720563   4.063   0.482   3.756  0.1131 -0.0535  0.0461
   54MOL   H31820564   3.980   0.420   3.876 -0.0312  0.6163 -1.4619
   54MOL   H31920565   4.167   0.279   3.937  1.5271  0.9324  0.1633
   54MOL   H32020566   4.263   0.412   3.876 -0.8845  1.0265  2.9067
   54MOL   H32120567   4.318   0.310   3.677  0.5258 -1.1995  0.7997
   54MOL   H32220568   4.291   0.161   3.780  0.5566  0.5024  0.6561
   54MOL   H32320569   4.212   7.603   3.506 -1.6385 -0.5368  0.8831
   54MOL   H32420570   4.319   0.027   3.583 -1.3036  1.5333  1.7462
   54MOL   C32520571   4.240   0.079   3.380 -0.8168  0.4494 -0.1762
   54MOL   C32620572   4.162   0.003   3.274 -0.6862 -0.3436  0.3852
   54MOL   C32720573   4.172   0.074   3.127 -0.3580 -0.3522  0.3224
   54MOL   C32820574   4.055   7.686   3.055  0.4737 -0.2671 -0.4877
   54MOL   C32920575   3.945   7.653   3.159  0.3367 -0.0899 -0.6942
   54MOL   C33020576   4.012   7.662   3.299  0.0011 -0.8776 -0.4666
   54MOL   C33120577   4.391   0.090   3.339  0.6439  0.0862  0.2001
   54MOL   H33220578   4.198   0.179   3.378  0.5492  1.0394 -0.4439
   54MOL   H33320579   4.217   7.599   3.265  1.1613  0.8402 -1.1695
   54MOL   H33420580   4.269   0.052   3.083 -0.0904  0.0808  0.6883
   54MOL   H33520581   4.158   0.182   3.129 -2.2401 -0.5434 -1.3077
   54MOL   H33620582   4.090   7.595   3.005 -1.1767 -1.2376  0.1092
   54MOL   H33720583   4.016   0.070   2.985 -0.8457  1.9417  2.4725
   54MOL   H33820584   3.911   7.552   3.136 -2.2390  1.1907 -2.7851
   54MOL   H33920585   3.854   0.022   3.149  0.1330 -0.2727  0.0323
   54MOL   H34020586   4.001   7.572   3.358  0.9952 -0.2061  0.7605
   54MOL   H34120587   3.962   0.057   3.346 -1.6056 -0.4359 -2.8438
   54MOL   H34220588   4.419   7.688   3.288  1.2164 -0.3116  1.2036
   54MOL   H34320589   4.453   0.083   3.429 -2.0314 -2.8292  1.8973
   54MOL   C34420590   4.443   0.214   3.252  0.4793  0.2287 -0.7105
   54MOL   C34520591   4.589   0.201   3.199  0.3259 -0.1751 -0.0712
   54MOL   C34620592   4.618   0.085   3.098  0.2223 -0.4271  0.5213
   54MOL   C34720593   4.766   0.094   3.082 -0.0140  0.3766  0.6092
   54MOL   C34820594   4.815   0.128   3.222  0.0493 -0.1916  0.1667
   54MOL   C34920595   4.701   0.187   3.303 -0.1710 -0.2425  0.0058
   54MOL   C35020596   4.425   0.346   3.331  0.4279  0.7910  0.0409
   54MOL   H35120597   4.373   0.221   3.169 -1.0969  0.5860  0.6053
   54MOL   H35220598   4.600   0.289   3.136 -1.0299  0.1824  0.1935
   54MOL   H35320599   4.564   0.084   3.004 -0.3329 -1.5510  0.8429
   54MOL   H35420600   4.586   7.685   3.151  0.8414 -1.1368 -0.3127
   54MOL   H35520601   4.802   0.003   3.034  0.0116 -0.3058  1.9269
   54MOL   H35620602   4.793   0.176   3.014 -1.6803  1.8769  1.7070
   54MOL   H35720603   4.898   0.198   3.226 -0.0802 -0.0320  0.0299
   54MOL   H35820604   4.843   0.032   3.265  1.2198  0.4637  0.9194
   54MOL   H35920605   4.670   0.117   3.380 -1.7382 -0.4938 -0.8182
   54MOL   H36020606   4.726   0.281   3.351 -1.2636  0.3888 -0.6458
   54MOL   H36120607   4.523   0.379   3.365  0.8445  1.4307 -1.7405
   54MOL   H36220608   4.379   0.318   3.426  1.0860 -0.2141  0.0770
   54MOL   C36320609   4.355   0.463   3.257  0.2907 -0.6537 -0.2292
   54MOL   C36420610   4.323   0.584   3.346 -0.0305  0.1149 -0.1594
   54MOL   C36520611   4.237   0.557   3.476  0.2003 -0.5194  0.6280
   54MOL   C36620612   4.178   0.695   3.513  0.4349  0.1472  0.5838
   54MOL   C36720613   4.164   0.774   3.384 -0.2607 -0.1944 -0.7944
   54MOL   C36820614   4.243   0.693   3.275 -0.6452 -0.9976  0.4193
   54MOL   C36920615   4.430   0.515   3.134  0.4444 -0.2548  0.7221
   54MOL   H37020616   4.267   0.412   3.218 -0.8185 -1.5473  3.3122
   54MOL   H37120617   4.424   0.616   3.374  0.0120  0.2982 -0.5327
   54MOL   H37220618   4.151   0.496   3.448 -1.0238  1.1712  0.5807
   54MOL   H37320619   4.295   0.505   3.552  0.2887 -0.5640  0.5294
   54MOL   H37420620   4.081   0.687   3.564  1.0182  2.2980  2.0886
   54MOL   H37520621   4.247   0.759   3.568 -0.7545  1.6667  0.3415
   54MOL   H37620622   4.059   0.777   3.354 -1.0774  0.0072  1.9931
   54MOL   H37720623   4.211   0.872   3.388  0.7439 -0.6832 -0.3696
   54MOL   H37820624   4.312   0.755   3.218  0.0197 -1.3099  0.8771
   54MOL   H37920625   4.165   0.659   3.207 -0.9703  1.6014 -0.5759
   54MOL   H38020626   4.467   0.429   3.077 -1.4799 -1.5034  1.3250
   54MOL   H38120627   4.519   0.570   3.166 -0.9816  1.7611  1.2874
   54MOL   H38220628   4.371   0.585   3.076  0.4274  0.2631  1.3529
   55MOL     C120629   6.042   6.643   3.566 -0.1064 -0.5802  0.1257
   55MOL     C220630   6.117   6.520   3.510  0.4089 -0.3034  0.1780
   55MOL     C320631   6.231   6.487   3.602  0.4567 -0.2909  0.2735
   55MOL     C420632   6.357   6.504   3.523 -0.1222 -1.1365  0.0462
   55MOL     C520633   6.313   6.478   3.378 -0.2621  0.3132 -0.6218
   55MOL     C620634   6.172   6.538   3.367 -0.5279  0.7665 -0.3623
   55MOL     C720635   5.960   6.625   3.696  0.2521  0.3612  0.5141
   55MOL     H820636   6.120   6.719   3.569  2.9238 -3.4149 -1.8920
   55MOL     H920637   6.054   6.432   3.504 -0.8641  0.5336  0.8711
   55MOL    H1020638   6.224   6.534   3.701  1.7734  0.0007  0.2397
   55MOL    H1120639   6.224   6.379   3.607  0.1553 -0.2430  0.9813
   55MOL    H1220640   6.397   6.605   3.527 -1.1386 -0.7474  0.4278
   55MOL    H1320641   6.434   6.434   3.554  0.5755 -0.2402  0.3491
   55MOL    H1420642   6.382   6.519   3.305  0.7895 -0.0418  0.1639
   55MOL    H1520643   6.321   6.370   3.367 -2.5126  0.0876 -0.2579
   55MOL    H1620644   6.114   6.497   3.284 -1.1278  1.1299 -0.1227
   55MOL    H1720645   6.182   6.646   3.357  0.0409  0.8421  0.9430
   55MOL    H1820646   5.878   6.554   3.687 -1.2938  2.2544 -0.9188
   55MOL    H1920647   6.022   6.581   3.774  0.2360 -1.2406 -0.3684
   55MOL    H2020648   5.966   6.672   3.494  0.7128  0.6575 -0.2528
   55MOL    C2120649   5.899   6.759   3.746 -0.0817 -0.2539  0.4120
   55MOL    C2220650   5.751   6.762   3.706  0.0528  0.4585 -0.3745
   55MOL    C2320651   5.721   6.770   3.552 -0.6366 -0.4466  0.1897
   55MOL    C2420652   5.582   6.800   3.537  0.0692 -0.2146  0.7987
   55MOL    C2520653   5.563   6.900   3.646 -0.2861 -0.2519  0.3683
   55MOL    C2620654   5.677   6.888   3.753  0.5181 -0.0898  0.6525
   55MOL    C2720655   5.922   6.783   3.897 -0.3297 -0.1879 -0.2662
   55MOL    H2820656   5.940   6.850   3.701 -0.9897 -0.7045 -1.3739
   55MOL    H2920657   5.700   6.676   3.750  0.0611  0.4377 -0.4057
   55MOL    H3020658   5.748   6.676   3.503  0.3034 -0.1734  0.1781
   55MOL    H3120659   5.778   6.848   3.503 -0.5557 -0.6510 -0.0385
   55MOL    H3220660   5.554   6.853   3.446  1.3554 -1.1409 -0.1718
   55MOL    H3320661   5.509   6.721   3.556 -0.8349  0.4489  0.1405
   55MOL    H3420662   5.465   6.878   3.689 -0.9525  0.5251 -0.7389
   55MOL    H3520663   5.561   6.997   3.597  1.1582 -0.4398 -0.0808
   55MOL    H3620664   5.634   6.887   3.853 -1.7403 -0.4429 -0.2826
   55MOL    H3720665   5.752   6.967   3.751  0.4960 -0.0186  2.1907
   55MOL    H3820666   5.876   6.881   3.909  1.2576  0.3883  1.2859
   55MOL    H3920667   5.863   6.714   3.957  0.7313 -1.8638 -1.0991
   55MOL    C4020668   6.070   6.804   3.934  0.0571 -0.0209  0.0116
   55MOL    C4120669   6.131   6.944   3.894  0.3899 -0.1761 -0.8345
   55MOL    C4220670   6.287   6.939   3.897 -0.5504  0.0925  0.1011
   55MOL    C4320671   6.322   7.089   3.900  0.7810 -0.0599 -0.3911
   55MOL    C4420672   6.208   7.162   3.971  0.3711  0.0930  0.0657
   55MOL    C4520673   6.101   7.056   3.987  0.3144 -0.6964 -0.0025
   55MOL    C4620674   6.082   6.770   4.080 -0.1133 -0.4323 -0.1856
   55MOL    H4720675   6.126   6.736   3.870  2.8510  1.7565  0.4713
   55MOL    H4820676   6.110   6.978   3.793 -0.8238  0.6304 -0.3096
   55MOL    H4920677   6.339   6.894   3.812 -0.0370 -3.2995  2.1440
   55MOL    H5020678   6.322   6.902   3.993 -0.4601 -2.8885 -1.0380
   55MOL    H5120679   6.325   7.145   3.807  1.1918 -0.3659 -0.5589
   55MOL    H5220680   6.414   7.123   3.947  0.0882 -0.0749  1.0080
   55MOL    H5320681   6.254   7.189   4.066  0.3858  1.5365 -0.3410
   55MOL    H5420682   6.172   7.247   3.913 -1.2599  0.2344  1.2652
   55MOL    H5520683   6.104   7.024   4.091 -2.3194  0.3796  0.4580
   55MOL    H5620684   6.000   7.094   3.969 -0.5867 -2.4367  1.2393
   55MOL    H5720685   6.178   6.798   4.123 -0.1309 -0.2079 -0.2896
   55MOL    H5820686   6.013   6.836   4.133 -0.4906 -0.1466 -1.0336
   55MOL    C5920687   6.058   6.621   4.126 -0.0642  0.2848 -0.3641
   55MOL    C6020688   6.181   6.540   4.084  1.0373  0.0189 -0.3158
   55MOL    C6120689   6.158   6.379   4.085  0.4126 -0.9629 -0.1218
   55MOL    C6220690   6.294   6.325   4.073 -0.2889  0.3531 -0.6449
   55MOL    C6320691   6.383   6.427   4.145  0.3097  0.3267  0.0345
   55MOL    C6420692   6.311   6.564   4.157 -0.2967  0.1532  0.2467
   55MOL    C6520693   6.019   6.605   4.277  0.2503 -0.1412  0.2443
   55MOL    H6620694   5.970   6.580   4.077  0.0706 -0.9246  0.3880
   55MOL    H6720695   6.196   6.563   3.978  0.5535  0.6070 -0.2602
   55MOL    H6820696   6.088   6.344   4.009 -1.5542 -0.7275  1.5456
   55MOL    H6920697   6.117   6.355   4.183 -2.3838 -1.7383 -1.4257
   55MOL    H7020698   6.328   6.302   3.972  0.5296 -1.6432  0.0574
   55MOL    H7120699   6.303   6.233   4.130  1.0775  0.1713 -1.1389
   55MOL    H7220700   6.473   6.447   4.087  0.4551  0.1082  0.1820
   55MOL    H7320701   6.420   6.389   4.240  1.2738  4.1175  1.3034
   55MOL    H7420702   6.303   6.609   4.256  1.9472  1.0219  0.0547
   55MOL    H7520703   6.364   6.631   4.090 -1.2011  1.5982  0.9468
   55MOL    H7620704   6.095   6.649   4.341  1.6807 -2.4340  0.1747
   55MOL    H7720705   6.030   6.501   4.308  0.7448  0.5339  2.3559
   55MOL    C7820706   5.879   6.661   4.326 -0.5337 -0.1075 -0.1131
   55MOL    C7920707   5.768   6.571   4.259 -0.4918 -0.9370 -0.3586
   55MOL    C8020708   5.623   6.618   4.269 -0.5867 -0.0170  0.1491
   55MOL    C8120709   5.538   6.497   4.298 -0.3300  0.4389 -0.3667
   55MOL    C8220710   5.622   6.377   4.251  0.2297 -0.2445  0.4145
   55MOL    C8320711   5.756   6.423   4.301 -0.0802  0.4693  0.1923
   55MOL    C8420712   5.865   6.671   4.485  0.0252 -0.0997 -0.0905
   55MOL    H8520713   5.875   6.761   4.283 -1.0890 -0.1600 -0.1804
   55MOL    H8620714   5.784   6.576   4.151 -0.3445 -0.7329 -0.3273
   55MOL    H8720715   5.591   6.682   4.187  1.3029 -1.4571 -1.7720
   55MOL    H8820716   5.610   6.669   4.364  1.9945  0.9524  0.0296
   55MOL    H8920717   5.440   6.512   4.253 -0.7942  0.0784  0.5014
   55MOL    H9020718   5.519   6.487   4.405 -1.2605 -0.9687 -0.6470
   55MOL    H9120719   5.588   6.285   4.299 -0.3569 -0.5430 -0.5609
   55MOL    H9220720   5.614   6.367   4.143  0.4770  0.6062  0.3148
   55MOL    H9320721   5.768   6.414   4.409  1.1266  0.8839  0.0983
   55MOL    H9420722   5.820   6.362   4.237  0.1033  2.0790 -1.1932
   55MOL    H9520723   5.900   6.578   4.531 -0.5111 -0.0751  0.3620
   55MOL    H9620724   5.759   6.682   4.508 -0.5915 -2.1158 -1.8551
   55MOL    C9720725   5.944   6.793   4.535  0.2862 -0.4346 -0.2809
   55MOL    C9820726   5.994   6.782   4.680  0.1751  0.0111 -0.1943
   55MOL    C9920727   5.880   6.764   4.787 -0.4718 -0.7978 -0.0108
   55MOL   C10020728   5.942   6.721   4.913 -0.3945 -0.5135 -0.1814
   55MOL   C10120729   6.061   6.641   4.873 -0.0939  0.1216 -0.4426
   55MOL   C10220730   6.078   6.660   4.716 -0.1198 -0.0615  0.0879
   55MOL   C10320731   5.870   6.930   4.506 -0.1914  0.2168 -0.0728
   55MOL   H10420732   6.038   6.795   4.478  0.7808 -0.7875  0.5183
   55MOL   H10520733   6.050   6.872   4.705 -0.8114  0.6452 -0.2263
   55MOL   H10620734   5.824   6.857   4.795  1.6306  0.4353  0.5479
   55MOL   H10720735   5.812   6.682   4.763 -0.6137 -1.5907  2.8740
   55MOL   H10820736   5.873   6.658   4.969 -2.0791 -0.0746 -1.7212
   55MOL   H10920737   5.997   6.800   4.964  1.1280 -0.3899 -1.9841
   55MOL   H11020738   6.043   6.536   4.897 -0.4957 -0.0285 -1.3600
   55MOL   H11120739   6.151   6.678   4.921 -0.3116  0.4338 -0.2779
   55MOL   H11220740   6.181   6.686   4.692 -0.7551  0.6055 -1.9864
   55MOL   H11320741   6.048   6.566   4.671 -2.5336 -0.1896  1.8851
   55MOL   H11420742   5.775   6.910   4.456 -0.5872 -0.0421  0.7687
   55MOL   H11520743   5.863   6.971   4.607 -1.1117 -0.8956  0.3238
   55MOL   C11620744   5.968   7.031   4.428 -0.2090  0.4826 -0.1927
   55MOL   C11720745   5.888   7.152   4.378 -0.1373  0.1223 -0.0694
   55MOL   C11820746   5.785   7.119   4.266  0.0733  0.4136  0.4722
   55MOL   C11920747   5.667   7.212   4.280  0.0141  0.3214 -0.2829
   55MOL   C12020748   5.700   7.305   4.394 -0.1506  0.1477  0.5947
   55MOL   C12120749   5.800   7.226   4.480  0.1456 -0.3535 -0.9790
   55MOL   C12220750   6.093   7.081   4.513  0.8751 -0.0305  0.1874
   55MOL   H12320751   5.992   6.969   4.342  0.6358  0.7579 -0.1568
   55MOL   H12420752   5.968   7.216   4.341  1.4122 -1.1837  0.9495
   55MOL   H12520753   5.842   7.124   4.173  1.4785 -2.0489  1.1517
   55MOL   H12620754   5.750   7.016   4.263 -3.7518  1.6561  0.1274
   55MOL   H12720755   5.587   7.148   4.317 -0.5247  1.4827  0.5974
   55MOL   H12820756   5.632   7.260   4.189  0.1353 -2.0528 -1.6117
   55MOL   H12920757   5.608   7.331   4.445  0.2693  1.6338  0.5952
   55MOL   H13020758   5.742   7.394   4.347 -0.8371  1.6360  2.7848
   55MOL   H13120759   5.848   7.302   4.541 -1.0248  0.1201 -0.6324
   55MOL   H13220760   5.739   7.174   4.554  2.4230 -0.8765  0.5587
   55MOL   H13320761   6.129   6.997   4.572  0.0087  0.0769  0.8726
   55MOL   H13420762   6.062   7.156   4.586  0.9312 -1.0466  1.2683
   55MOL   C13520763   6.224   7.128   4.440 -0.6696  0.7401 -0.1683
   55MOL   C13620764   6.292   6.999   4.370 -0.1260  0.2847 -0.2832
   55MOL   C13720765   6.351   6.899   4.470 -0.3257  0.1869 -0.3900
   55MOL   C13820766   6.496   6.879   4.434  0.6447 -0.6204 -0.6538
   55MOL   C13920767   6.508   6.926   4.288  0.5988 -0.4205 -0.7769
   55MOL   C14020768   6.410   7.035   4.284 -0.2494 -0.0552 -0.7666
   55MOL   C14120769   6.316   7.216   4.525  0.5359 -0.2589  0.0832
   55MOL   H14220770   6.181   7.188   4.359 -1.2395  1.2134  0.4804
   55MOL   H14320771   6.226   6.945   4.303 -0.3129  0.6722 -0.4160
   55MOL   H14420772   6.341   6.933   4.573  0.1285  0.6618 -0.5047
   55MOL   H14520773   6.294   6.806   4.472 -1.5163  0.9228  1.2368
   55MOL   H14620774   6.535   6.780   4.454  0.8165 -0.3687  0.3225
   55MOL   H14720775   6.555   6.956   4.485 -0.6138  0.9804 -1.5348
   55MOL   H14820776   6.480   6.845   4.221 -2.5114 -0.8174  0.8679
   55MOL   H14920777   6.610   6.955   4.263  1.0048 -2.4382 -1.5237
   55MOL   H15020778   6.454   7.132   4.311 -1.8972  0.9236 -1.5642
   55MOL   H15120779   6.378   7.051   4.182  0.7205  0.2094 -1.0401
   55MOL   H15220780   6.421   7.190   4.510 -0.1272 -1.6386 -2.4146
   55MOL   H15320781   6.292   7.193   4.629 -0.0186 -0.7452 -0.1455
   55MOL   C15420782   6.278   7.368   4.503 -0.3511  0.0750  0.4150
   55MOL   C15520783   6.321   7.464   4.626  0.0940 -0.2350  0.6760
   55MOL   C15620784   6.465   7.454   4.679  0.7161 -0.1110 -0.2972
   55MOL   C15720785   6.450   7.495   4.831  0.0958  0.6659 -0.2626
   55MOL   C15820786   6.316   7.432   4.869  0.2148  0.3945 -0.2993
   55MOL   C15920787   6.224   7.456   4.749 -0.0909  0.1358 -0.3760
   55MOL   C16020788   6.340   7.425   4.370 -0.0307  0.8907  0.3356
   55MOL   H16120789   6.169   7.369   4.496 -0.1909  0.5660 -2.6068
   55MOL   H16220790   6.313   7.563   4.581  1.0927  0.4364  1.9341
   55MOL   H16320791   6.496   7.351   4.663  0.6355 -0.0696 -0.7338
   55MOL   H16420792   6.524   7.526   4.623  1.2682 -0.9401 -0.7985
   55MOL   H16520793   6.530   7.458   4.895 -0.6907 -0.9544 -0.1926
   55MOL   H16620794   6.451   7.603   4.841 -0.1703  0.6575 -0.1499
   55MOL   H16720795   6.283   7.490   4.955 -0.3158 -0.9157  0.3941
   55MOL   H16820796   6.312   7.327   4.900 -2.5577  1.0901  1.9097
   55MOL   H16920797   6.169   7.550   4.753 -0.8418 -0.2890 -0.6738
   55MOL   H17020798   6.147   7.380   4.737 -0.5889  0.6491 -0.4101
   55MOL   H17120799   6.342   7.337   4.305  1.3260 -0.6134  2.3410
   55MOL   H17220800   6.446   7.439   4.389  0.3439 -1.5739  0.2718
   55MOL   C17320801   6.277   7.547   4.297 -0.4987  0.5308 -0.0461
   55MOL   C17420802   6.126   7.545   4.263  0.0335  0.3199 -0.1004
   55MOL   C17520803   6.086   7.445   4.151 -0.2491  0.4420  0.2425
   55MOL   C17620804   5.941   7.493   4.121 -0.1185  0.5022  0.2916
   55MOL   C17720805   5.941   7.646   4.134  0.6129  0.0526  0.2719
   55MOL   C17820806   6.060   7.683   4.224 -0.1423 -0.0632 -0.2799
   55MOL   C17920807   6.365   7.604   4.187  0.8355 -0.2239  0.8279
   55MOL   H18020808   6.271   7.622   4.377 -0.7819 -0.5733  0.9730
   55MOL   H18120809   6.065   7.501   4.342 -0.9673  1.8373 -0.0052
   55MOL   H18220810   6.083   7.341   4.182 -3.1471  0.0671 -1.1943
   55MOL   H18320811   6.154   7.452   4.066 -1.2285  1.1518 -0.4864
   55MOL   H18420812   5.899   7.444   4.033 -1.0656  0.4665  0.7582
   55MOL   H18520813   5.882   7.454   4.204 -0.2038 -1.7071 -0.7645
   55MOL   H18620814   5.849   0.003   4.170  1.0975  0.8514  0.5037
   55MOL   H18720815   5.954   0.005   4.038  0.0358  0.8787  0.6067
   55MOL   H18820816   6.142   0.041   4.170 -1.2357  0.4871 -1.4819
   55MOL   H18920817   6.037   0.060   4.307 -0.7932  1.0779 -1.3749
   55MOL   H19020818   6.407   7.514   4.142 -1.7586 -1.2722  0.3599
   55MOL   H19120819   6.310   7.644   4.101  0.1148 -0.7590  1.0288
   55MOL   C19220820   6.473   0.006   4.228 -0.0141  0.1629  0.0695
   55MOL   C19320821   6.432   0.150   4.245  0.4259  0.3430  0.9987
   55MOL   C19420822   6.387   0.230   4.117 -0.0473 -0.7541 -0.0430
   55MOL   C19520823   6.374   0.370   4.169 -1.0408 -0.4078 -0.6301
   55MOL   C19620824   6.479   0.387   4.282  0.2145  0.2667 -0.6064
   55MOL   C19720825   6.532   0.241   4.314 -0.0269  0.0022 -0.1589
   55MOL   C19820826   6.582   7.682   4.131  0.5961  0.8702 -0.1867
   55MOL   H19920827   6.497   7.654   4.326 -2.2018  0.8674  0.9295
   55MOL   H20020828   6.350   0.155   4.317 -0.5448  0.0627 -0.0661
   55MOL   H20120829   6.296   0.198   4.066  0.3067 -2.1225  0.1689
   55MOL   H20220830   6.466   0.227   4.042  1.0340  1.3610  0.9710
   55MOL   H20320831   6.405   0.436   4.089 -1.3481 -0.8526 -1.1224
   55MOL   H20420832   6.273   0.394   4.204 -1.4371 -0.4032 -1.7630
   55MOL   H20520833   6.434   0.425   4.373 -0.2468  1.7176 -1.4262
   55MOL   H20620834   6.565   0.445   4.246 -0.0211  1.4108  0.6481
   55MOL   H20720835   6.524   0.236   4.422 -0.1453  1.5267 -0.0812
   55MOL   H20820836   6.636   0.232   4.280  0.7483  1.4016  1.7244
   55MOL   H20920837   6.539   7.677   4.031  1.1701 -0.9319 -0.3722
   55MOL   H21020838   6.644   0.082   4.126  1.4475  0.3490  0.8224
   55MOL   C21120839   6.683   7.563   4.164  0.4728  0.0715 -0.1285
   55MOL   C21220840   6.744   7.499   4.042  0.3435  0.2094 -0.4840
   55MOL   C21320841   6.647   7.417   3.954  0.3056 -0.6287  0.3736
   55MOL   C21420842   6.700   7.428   3.811  0.1680 -0.3727  0.2795
   55MOL   C21520843   6.765   7.572   3.808 -0.1382  0.1020 -0.1281
   55MOL   C21620844   6.822   7.594   3.946 -0.6537  1.0628  0.2840
   55MOL   C21720845   6.781   7.629   4.267  0.5766 -0.5206  0.0706
   55MOL   H21820846   6.623   7.492   4.220  0.3941 -3.0929 -4.0080
   55MOL   H21920847   6.822   7.425   4.064  1.3234  0.8047 -1.8737
   55MOL   H22020848   6.617   7.318   3.987 -1.6043 -0.1823  0.0315
   55MOL   H22120849   6.555   7.476   3.950 -0.5666 -1.9339  0.9001
   55MOL   H22220850   6.784   7.361   3.795 -0.7166 -1.9062  1.7999
   55MOL   H22320851   6.614   7.410   3.745  0.5513 -2.4991  0.3044
   55MOL   H22420852   6.679   7.635   3.789 -1.9388 -1.7644  1.5661
   55MOL   H22520853   6.831   7.587   3.723 -0.9937  3.4209 -0.2497
   55MOL   H22620854   6.927   7.564   3.948 -0.3749  2.0431  0.8184
   55MOL   H22720855   6.818   0.007   3.982 -0.6624  0.7337  1.2434
   55MOL   H22820856   6.717   7.657   4.351 -1.0700 -0.5931 -1.1441
   55MOL   H22920857   6.823   0.030   4.223  0.0980 -1.0122 -1.4014
   55MOL   C23020858   6.903   7.538   4.307  0.5472  0.2059 -0.5020
   55MOL   C23120859   6.847   7.402   4.364  0.0945 -0.3052 -0.1990
   55MOL   C23220860   6.945   7.273   4.373 -0.2778 -0.2875 -0.8512
   55MOL   C23320861   6.855   7.174   4.446 -0.0426  0.3759  0.1517
   55MOL   C23420862   6.809   7.257   4.568 -0.4770 -0.2027  0.2209
   55MOL   C23520863   6.776   7.398   4.505 -0.0952 -0.2283  0.2115
   55MOL   C23620864   7.012   7.602   4.388  0.5694 -0.2319  0.2078
   55MOL   H23720865   6.955   7.508   4.217 -0.6992 -1.1703 -0.7832
   55MOL   H23820866   6.774   7.369   4.290  0.6795 -0.3984 -0.7337
   55MOL   H23920867   6.979   7.226   4.281  0.5095  1.3463 -1.4158
   55MOL   H24020868   7.033   7.305   4.429 -0.5984 -0.9878  0.0591
   55MOL   H24120869   6.763   7.143   4.398 -1.5021 -0.0840  3.1805
   55MOL   H24220870   6.897   7.083   4.487  0.8213  0.7483  0.1206
   55MOL   H24320871   6.891   7.273   4.637 -0.5963  1.5961 -0.0289
   55MOL   H24420872   6.734   7.205   4.627 -0.7569 -0.0735 -0.0163
   55MOL   H24520873   6.811   7.481   4.567 -0.1655  0.1239 -0.2180
   55MOL   H24620874   6.668   7.403   4.486 -0.1883 -0.7950  0.5536
   55MOL   H24720875   7.083   7.522   4.410  0.6327 -0.1325  0.3695
   55MOL   H24820876   6.958   7.626   4.479 -0.8877 -0.7254 -0.5149
   55MOL   C24920877   7.097   0.029   4.334  0.7069 -0.5136  0.2577
   55MOL   C25020878   7.025   0.167   4.335 -0.4884  0.1512  0.1918
   55MOL   C25120879   7.131   0.281   4.320 -0.0253 -0.9695 -0.3747
   55MOL   C25220880   7.120   0.372   4.450 -0.6212  0.5679  0.7345
   55MOL   C25320881   6.974   0.350   4.489 -0.4024  0.7476  0.3657
   55MOL   C25420882   6.954   0.198   4.465 -0.1356 -0.8216  0.3129
   55MOL   C25520883   7.157   7.679   4.195  0.8796 -0.4723 -0.5073
   55MOL   H25620884   7.170   0.044   4.413 -0.2205 -0.5380  1.1404
   55MOL   H25720885   6.960   0.167   4.248 -2.5986 -0.1863  1.7327
   55MOL   H25820886   7.103   0.350   4.240  0.7311  0.8876  0.9280
   55MOL   H25920887   7.235   0.255   4.306 -0.3435 -1.7389 -1.3507
   55MOL   H26020888   7.136   0.476   4.422 -1.2285  0.2226 -0.9091
   55MOL   H26120889   7.194   0.335   4.521  0.5947 -0.6497 -1.1477
   55MOL   H26220890   6.911   0.406   4.420  1.8443  1.2458 -1.3508
   55MOL   H26320891   6.970   0.385   4.592  2.8309  1.5526  0.2778
   55MOL   H26420892   6.846   0.179   4.462  0.5017 -5.1294  1.9364
   55MOL   H26520893   7.001   0.145   4.547  0.3503  0.0850  0.6193
   55MOL   H26620894   7.076   7.669   4.124 -1.2950 -2.8694  2.1761
   55MOL   H26720895   7.209   0.072   4.147 -0.6650  0.8257  0.0533
   55MOL   C26820896   7.261   7.563   4.203 -0.2340 -0.0655 -0.7307
   55MOL   C26920897   7.359   7.559   4.327  0.2868 -0.3076  0.1361
   55MOL   C27020898   7.457   7.680   4.335 -0.8416 -0.2791  0.0750
   55MOL   C27120899   7.557   7.634   4.437 -0.1460  0.1354  0.4583
   55MOL   C27220900   7.562   7.482   4.426 -0.2378 -0.5422  0.4701
   55MOL   C27320901   7.459   7.440   4.327  0.1687  0.1449 -0.2568
   55MOL   C27420902   7.332   7.540   4.058  0.4849 -0.1128 -0.5764
   55MOL   H27520903   7.214   7.468   4.225 -1.2788  1.2323  3.0294
   55MOL   H27620904   7.311   7.543   4.424  0.8252 -1.7721  0.1751
   55MOL   H27720905   7.503   0.015   4.239  2.6221  1.0296  1.9966
   55MOL   H27820906   7.400   0.077   4.368  0.3784  0.4420  0.3212
   55MOL   H27920907   7.649   0.001   4.422  0.0963  0.3007  2.4152
   55MOL   H28020908   7.537   7.663   4.540 -0.4604  0.2742  0.3585
   55MOL   H28120909   7.538   7.438   4.523 -2.5977  1.4414  0.8319
   55MOL   H28220910   7.651   7.436   4.383 -0.2631 -1.8574  1.7634
   55MOL   H28320911   7.417   7.347   4.364  2.6652 -1.6600 -1.8241
   55MOL   H28420912   7.512   7.417   4.235  0.0490 -0.5599 -0.1491
   55MOL   H28520913   7.413   7.469   4.069  0.2881 -0.3161 -0.4426
   55MOL   H28620914   7.390   7.630   4.034  0.5136  0.3529  1.1769
   55MOL   C28720915   7.257   7.488   3.939  0.0922  0.4655  0.8448
   55MOL   C28820916   7.156   7.373   3.981 -0.0700  0.6720 -0.2953
   55MOL   C28920917   7.072   7.318   3.864 -0.4349 -0.2054 -0.6336
   55MOL   C29020918   7.000   7.192   3.918 -0.9167 -0.2216  0.5908
   55MOL   C29120919   7.114   7.132   4.000  0.7420 -0.2605  0.3318
   55MOL   C29220920   7.222   7.239   4.021 -0.0042  0.5874  0.3150
   55MOL   C29320921   7.200   7.602   3.848  0.4746  0.3320 -0.8278
   55MOL   H29420922   7.337   7.448   3.877  0.4893  0.9514  1.0473
   55MOL   H29520923   7.095   7.405   4.065 -1.0047  0.0516 -0.7338
   55MOL   H29620924   7.007   7.393   3.820 -0.4449 -1.6694 -3.2261
   55MOL   H29720925   7.136   7.282   3.783 -0.6392 -2.1011  0.0007
   55MOL   H29820926   6.919   7.228   3.981  0.6874  1.9686  1.4897
   55MOL   H29920927   6.960   7.123   3.844 -0.8433  1.2179 -0.8190
   55MOL   H30020928   7.165   7.054   3.944 -0.3938  0.3259 -1.6032
   55MOL   H30120929   7.083   7.101   4.099 -1.8290 -0.3757 -0.4721
   55MOL   H30220930   7.308   7.221   3.956  1.6389  0.5877  2.4281
   55MOL   H30320931   7.250   7.238   4.127 -1.1521  1.2013  0.6256
   55MOL   H30420932   7.149   7.664   3.921  0.9505  0.0556 -0.2468
   55MOL   H30520933   7.113   7.577   3.788 -0.6012  1.1286  0.3897
   55MOL   C30620934   7.311   7.683   3.775  0.2336  0.0726  0.2717
   55MOL   C30720935   7.311   7.659   3.621  0.0615  0.2437  0.2063
   55MOL   C30820936   7.321   7.517   3.578 -0.1053  0.0898 -0.6355
   55MOL   C30920937   7.221   7.483   3.467  0.0384  0.2189 -0.1490
   55MOL   C31020938   7.156   7.616   3.432 -0.0369  0.7267  0.2972
   55MOL   C31120939   7.190   0.030   3.542 -0.4943  0.2694  0.3042
   55MOL   C31220940   7.306   0.149   3.813  0.8024  0.0625 -0.0921
   55MOL   H31320941   7.406   7.649   3.815  0.6517 -1.1601 -1.6975
   55MOL   H31420942   7.397   0.027   3.586  0.9422 -0.7537  0.7071
   55MOL   H31520943   7.309   7.452   3.664 -1.3504 -0.6043 -1.3280
   55MOL   H31620944   7.427   7.498   3.558  0.1349 -0.2264  0.8873
   55MOL   H31720945   7.272   7.451   3.376  0.0148 -0.3398  0.0310
   55MOL   H31820946   7.151   7.415   3.517 -0.5516  1.1478  0.2941
   55MOL   H31920947   7.049   7.595   3.422 -0.2989  1.1807  1.9496
   55MOL   H32020948   7.180   7.646   3.330 -1.4886 -2.0033 -0.9015
   55MOL   H32120949   7.208   0.130   3.501  2.0157 -0.3222 -0.1057
   55MOL   H32220950   7.104   0.035   3.609 -0.8099  1.7568 -0.1904
   55MOL   H32320951   7.292   0.145   3.921  1.0431 -1.6344 -0.1112
   55MOL   H32420952   7.217   0.196   3.771  0.7277  0.9240  0.9737
   55MOL   C32520953   7.433   0.231   3.779  0.0131  0.0299  0.3363
   55MOL   C32620954   7.468   0.328   3.901 -1.0518  1.0169 -0.0113
   55MOL   C32720955   7.529   0.251   4.022  0.1055 -0.3975  0.2545
   55MOL   C32820956   7.508   0.355   4.135  0.6302 -0.8903  0.2443
   55MOL   C32920957   7.382   0.438   4.099  0.8163 -1.3335  0.0564
   55MOL   C33020958   7.357   0.419   3.953  0.4792  0.2920  0.3634
   55MOL   C33120959   7.417   0.307   3.646 -0.3028 -0.0786  0.1627
   55MOL   H33220960   7.515   0.160   3.774  1.6182  1.7876  0.8390
   55MOL   H33320961   7.544   0.400   3.871  0.7347 -0.9984 -0.5192
   55MOL   H33420962   7.634   0.241   3.996  0.3793  1.2102  0.7325
   55MOL   H33520963   7.479   0.155   4.037  0.1821 -0.5388 -0.3629
   55MOL   H33620964   7.598   0.416   4.146  0.6633 -0.6567 -1.2026
   55MOL   H33720965   7.499   0.298   4.227  1.4076 -4.4942 -1.8051
   55MOL   H33820966   7.391   0.540   4.138 -1.8066 -0.9108 -0.3361
   55MOL   H33920967   7.290   0.409   4.150  0.5094  0.5442  0.6298
   55MOL   H34020968   7.348   0.501   3.881  5.8826 -0.4604 -1.3995
   55MOL   H34120969   7.261   0.367   3.957  0.4120  0.5416  2.7857
   55MOL   H34220970   7.331   0.374   3.656 -0.7986 -0.7390  0.3664
   55MOL   H34320971   7.389   0.234   3.571 -0.6227  0.6703 -0.4539
   55MOL   C34420972   7.530   0.391   3.581 -0.3249 -0.1575 -0.5796
   55MOL   C34520973   7.475   0.457   3.460 -0.4289  0.1305  0.7081
   55MOL   C34620974   7.577   0.515   3.359  1.2678  0.5454  0.0797
   55MOL   C34720975   7.495   0.609   3.278  0.4228 -0.2755  0.5043
   55MOL   C34820976   7.387   0.666   3.367 -0.0913 -0.0541  0.4438
   55MOL   C34920977   7.388   0.578   3.488  0.3627 -0.5011  0.0460
   55MOL   C35020978   7.655   0.296   3.553 -0.3627 -0.6675 -0.3215
   55MOL   H35120979   7.560   0.468   3.652  0.3859 -1.5296  0.6247
   55MOL   H35220980   7.412   0.391   3.400  0.3160  1.6503 -1.8348
   55MOL   H35320981   7.628   0.442   3.297  0.2065 -1.0904  1.0922
   55MOL   H35420982   7.653   0.569   3.416 -1.5387  2.3102  2.3233
   55MOL   H35520983   7.557   0.682   3.227 -2.0979  0.5592 -1.4771
   55MOL   H35620984   7.444   0.552   3.200 -0.6996  1.1536  0.1664
   55MOL   H35720985   7.291   0.643   3.320 -1.0599  0.2971  2.2116
   55MOL   H35820986   7.404   0.773   3.383  0.1980 -0.1469  0.7559
   55MOL   H35920987   7.427   0.632   3.574 -1.1918 -0.3261  0.6689
   55MOL   H36020988   7.287   0.550   3.519 -0.1261  0.0515 -1.0316
   55MOL   H36120989   0.023   0.309   3.461 -0.8481 -0.8665 -0.6560
   55MOL   H36220990   7.611   0.197   3.540 -1.2155 -0.5504  1.5131
   55MOL   C36320991   0.076   0.291   3.656 -0.6911  0.3043  0.4751
   55MOL   C36420992   0.180   0.175   3.624  0.5686 -0.1456 -0.0401
   55MOL   C36520993   0.111   0.035   3.591  0.1581 -0.0674  0.0735
   55MOL   C36620994   0.222   7.620   3.617  0.2768 -0.1709 -0.1195
   55MOL   C36720995   0.331   0.000   3.697  0.0274 -0.3528 -0.3033
   55MOL   C36820996   0.275   0.142   3.730 -0.0623 -0.0770  0.7646
   55MOL   C36920997   0.153   0.422   3.664  0.5784  0.4300  0.2219
   55MOL   H37020998   0.043   0.259   3.755 -0.0913  1.6468  1.1153
   55MOL   H37120999   0.231   0.208   3.533 -0.5200  0.3860 -0.4686
   55MOL   H37221000   0.034   0.017   3.666 -1.5637  1.8846 -1.1749
   55MOL   H37321001   0.069   0.027   3.491 -1.7297  0.5885  0.8073
   55MOL   H37421002   0.171   7.537   3.666 -1.7998  2.1172  1.7104
   55MOL   H37521003   0.253   7.583   3.519 -0.0797  0.1194 -0.3448
   55MOL   H37621004   0.377   7.641   3.782  1.6221  1.3940 -0.1233
   55MOL   H37721005   0.418   0.017   3.633  0.8715  0.2817  1.0068
   55MOL   H37821006   0.362   0.206   3.746  0.9889 -1.8144  2.2020
   55MOL   H37921007   0.219   0.135   3.823 -1.8583 -0.8428 -0.3571
   55MOL   H38021008   0.237   0.417   3.734  1.6248  0.0749 -1.0276
   55MOL   H38121009   0.094   0.510   3.688 -1.6038 -0.7402 -0.7466
   55MOL   H38221010   0.192   0.430   3.563  1.2093 -1.0973  0.3294
   56MOL     C121011   7.360   5.457   4.493 -0.6114  0.3569  0.3629
   56MOL     C221012   7.493   5.479   4.428  0.2032 -0.8024 -0.1756
   56MOL     C321013   7.559   5.350   4.375  0.2227 -0.0089  0.4524
   56MOL     C421014   0.024   5.357   4.411 -0.0368 -0.2099  0.3560
   56MOL     C521015   0.051   5.508   4.450 -0.2495 -0.7649 -0.1499
   56MOL     C621016   7.605   5.550   4.509 -0.6608  0.4467 -0.2044
   56MOL     C721017   7.372   5.366   4.610 -1.1575 -0.3878 -0.9652
   56MOL     H821018   7.328   5.559   4.517  0.1705  1.3032 -2.4755
   56MOL     H921019   7.476   5.545   4.343  3.4001  2.3285  1.4461
   56MOL    H1021020   7.510   5.255   4.397  2.3076 -1.2196  0.0588
   56MOL    H1121021   7.558   5.353   4.266  0.0964  1.9076  0.4959
   56MOL    H1221022   0.054   5.292   4.493  1.7170 -2.5550 -2.0457
   56MOL    H1321023   0.093   5.309   4.342 -2.9796 -2.2871 -1.2228
   56MOL    H1421024   0.128   5.531   4.524  1.2475  0.6419 -2.0826
   56MOL    H1521025   0.082   5.573   4.368 -0.4441  0.4663  0.7285
   56MOL    H1621026   7.585   5.655   4.530  0.8429  0.1164  3.2901
   56MOL    H1721027   7.598   5.508   4.610 -2.3086  0.8576 -0.1200
   56MOL    H1821028   7.448   5.292   4.583  0.1742  0.4766  0.3706
   56MOL    H1921029   7.410   5.420   4.697 -1.7452 -1.4033 -0.0621
   56MOL    H2021030   7.298   5.425   4.409  1.3407  0.7262 -1.2528
   56MOL    C2121031   7.248   5.297   4.668 -0.1588  0.3820  0.5694
   56MOL    C2221032   7.260   5.141   4.652  0.8691  0.2045 -0.1392
   56MOL    C2321033   7.378   5.065   4.717 -0.1581 -0.2892 -0.0315
   56MOL    C2421034   7.450   4.993   4.604  0.0080 -0.3091 -0.0250
   56MOL    C2521035   7.349   4.972   4.497 -0.5646  0.3521  0.3178
   56MOL    C2621036   7.251   5.093   4.508 -0.2405  0.0606 -0.1974
   56MOL    C2721037   7.226   5.330   4.821  0.2146 -0.7092  0.0946
   56MOL    H2821038   7.157   5.324   4.615  0.1525 -0.5224 -0.4565
   56MOL    H2921039   7.168   5.105   4.699 -1.1771  2.0150 -2.6192
   56MOL    H3021040   7.334   4.997   4.789  0.8026 -1.1374 -0.2270
   56MOL    H3121041   7.441   5.125   4.782  0.6172 -0.4677 -0.5960
   56MOL    H3221042   7.533   5.054   4.569 -0.3746 -1.5431 -3.2615
   56MOL    H3321043   7.498   4.904   4.644  2.3986  0.3212 -1.3993
   56MOL    H3421044   7.301   4.875   4.512 -1.7135  0.4148 -2.7387
   56MOL    H3521045   7.395   4.949   4.401  0.6404 -2.7402  1.5767
   56MOL    H3621046   7.146   5.079   4.484 -0.7972  2.2555  0.8868
   56MOL    H3721047   7.280   5.176   4.443  0.3560  1.7732  2.1850
   56MOL    H3821048   7.150   5.261   4.858 -0.8611  0.0180 -0.7461
   56MOL    H3921049   7.315   5.307   4.879 -0.3933  2.3916  2.4377
   56MOL    C4021050   7.174   5.471   4.862  0.6169  0.8294 -1.0751
   56MOL    C4121051   7.020   5.469   4.886 -0.1785  0.3452  0.3405
   56MOL    C4221052   6.940   5.391   4.779 -0.0238 -0.6634 -0.3233
   56MOL    C4321053   6.801   5.458   4.801 -0.3461  0.5940 -0.3842
   56MOL    C4421054   6.831   5.595   4.854 -0.0951 -0.2262  0.2852
   56MOL    C4521055   6.973   5.612   4.883 -0.5249 -0.2361  0.1219
   56MOL    C4621056   7.244   5.522   4.991  0.2833 -0.0274 -0.3904
   56MOL    H4721057   7.199   5.538   4.779  0.5666  0.8166 -1.1006
   56MOL    H4821058   7.004   5.434   4.988  2.0356 -2.1220 -0.1077
   56MOL    H4921059   6.942   5.285   4.803 -0.8471 -0.7414 -0.5744
   56MOL    H5021060   6.981   5.420   4.682 -0.8005  2.4794  0.2431
   56MOL    H5121061   6.746   5.399   4.874 -1.3742  0.9103 -0.8913
   56MOL    H5221062   6.727   5.460   4.720 -1.1806  0.7740  0.3730
   56MOL    H5321063   6.788   5.673   4.790  0.4819 -0.2923 -0.1880
   56MOL    H5421064   6.783   5.609   4.951  0.2292  0.3800  0.3632
   56MOL    H5521065   7.024   5.664   4.802 -0.6793 -1.1377 -0.5517
   56MOL    H5621066   6.992   5.675   4.971  2.1121  0.6838 -1.0401
   56MOL    H5721067   7.190   5.606   5.034 -2.0109 -0.9028 -1.5014
   56MOL    H5821068   7.231   5.447   5.069  1.0294  0.4899  0.2451
   56MOL    C5921069   7.396   5.562   4.985 -0.0172 -0.0100  0.2531
   56MOL    C6021070   7.434   5.713   4.954 -0.0183  0.4841 -0.4592
   56MOL    C6121071   7.376   5.758   4.818  0.4266 -0.4070 -0.0778
   56MOL    C6221072   7.457   5.878   4.782  0.4407  0.1576  0.3647
   56MOL    C6321073   7.593   5.845   4.836  0.2711  0.2255  0.3774
   56MOL    C6421074   7.584   5.720   4.922 -0.2730 -0.1048  0.4951
   56MOL    C6521075   7.470   5.515   5.111  0.4234  0.5361  0.1673
   56MOL    H6621076   7.441   5.518   4.896  0.7916  0.7766  0.2649
   56MOL    H6721077   7.411   5.783   5.035 -1.6644  1.2752 -1.5610
   56MOL    H6821078   7.271   5.787   4.831  0.1626 -1.1228 -0.5803
   56MOL    H6921079   7.389   5.691   4.733  1.4936  0.0706 -0.2932
   56MOL    H7021080   7.417   5.967   4.830  1.5065  1.0283 -0.3333
   56MOL    H7121081   7.461   5.913   4.679  0.1721  0.7759  0.5620
   56MOL    H7221082   7.644   5.930   4.881 -0.1590  0.7928 -0.1836
   56MOL    H7321083   7.663   5.820   4.756  0.3585  1.7858 -0.0500
   56MOL    H7421084   7.618   5.633   4.866  0.5515  0.4340  0.1438
   56MOL    H7521085   7.643   5.724   5.014  0.1887 -2.5332  0.3467
   56MOL    H7621086   7.410   5.549   5.195  0.6545 -2.4066  1.5628
   56MOL    H7721087   7.565   5.565   5.127  1.1550 -0.4448 -0.9817
   56MOL    C7821088   7.491   5.368   5.143 -0.1235 -0.2154  0.2861
   56MOL    C7921089   7.575   5.317   5.025  0.1641 -0.1645 -0.0673
   56MOL    C8021090   7.599   5.164   5.019  0.8943 -0.7718  0.0517
   56MOL    C8121091   0.013   5.138   4.911 -0.0081  0.7842  0.1954
   56MOL    C8221092   0.101   5.267   4.919 -0.4257  0.3002  0.4716
   56MOL    C8321093   0.029   5.367   5.010  0.5057  0.0553 -0.8621
   56MOL    C8421094   7.554   5.342   5.285  0.1722  0.4857  0.0152
   56MOL    H8521095   7.395   5.315   5.135  0.1288 -0.6900  0.3513
   56MOL    H8621096   7.520   5.345   4.935 -2.4875 -2.0362  0.9114
   56MOL    H8721097   7.520   5.093   4.993  0.0641  0.4906 -0.9383
   56MOL    H8821098   7.645   5.124   5.110  1.5993 -0.6314 -0.2352
   56MOL    H8921099   7.672   5.119   4.809  0.0790  0.4871  0.2263
   56MOL    H9021100   0.056   5.046   4.950 -2.1304 -0.0226  0.7194
   56MOL    H9121101   0.203   5.254   4.955 -0.6093  1.2560  1.3388
   56MOL    H9221102   0.093   5.310   4.819  1.3226 -1.2787 -0.3760
   56MOL    H9321103   0.078   5.373   5.107 -0.4491 -1.2179 -0.2905
   56MOL    H9421104   0.019   5.470   4.975 -2.2265  0.0425 -0.2267
   56MOL    H9521105   7.640   5.408   5.298  2.1668 -1.8910 -0.8008
   56MOL    H9621106   7.589   5.239   5.279 -0.8962 -0.1288  3.0263
   56MOL    C9721107   7.458   5.338   5.413  0.4480  0.3202  0.1342
   56MOL    C9821108   7.558   5.344   5.537  0.6419 -0.6973  0.1938
   56MOL    C9921109   7.635   5.468   5.550 -0.2188 -0.0766  0.3739
   56MOL   C10021110   7.680   5.477   5.696  0.1403  0.7584 -0.3069
   56MOL   C10121111   7.592   5.378   5.772 -0.4046 -0.1504 -0.1115
   56MOL   C10221112   7.486   5.336   5.669  0.1690  0.6643  0.4352
   56MOL   C10321113   7.354   5.217   5.419  0.0402  0.7407  0.4756
   56MOL   H10421114   7.408   5.434   5.421 -0.6181 -0.3637  2.1531
   56MOL   H10521115   7.620   5.255   5.524 -0.2414 -1.5282  1.5874
   56MOL   H10621116   0.040   5.464   5.497  0.9089 -1.8236  2.4439
   56MOL   H10721117   7.577   5.553   5.513  0.2569 -0.2945 -0.9112
   56MOL   H10821118   7.660   5.579   5.729 -0.7900  0.7776 -0.9476
   56MOL   H10921119   0.097   5.459   5.711  0.0622  1.4858  1.2631
   56MOL   H11021120   7.555   5.440   5.854 -0.5196 -1.6475  0.9894
   56MOL   H11121121   7.658   5.295   5.798 -0.2394 -0.4028 -1.2818
   56MOL   H11221122   7.451   5.235   5.692  0.2707  0.0014 -2.2359
   56MOL   H11321123   7.402   5.405   5.681 -2.0970 -1.8638 -0.2155
   56MOL   H11421124   7.385   5.148   5.340  0.3075 -0.3279  1.5060
   56MOL   H11521125   7.355   5.177   5.520 -3.2866  2.1904  1.1700
   56MOL   C11621126   7.206   5.252   5.374  0.0186  0.2224 -0.3996
   56MOL   C11721127   7.119   5.131   5.344 -0.4944  0.3253 -0.2490
   56MOL   C11821128   6.983   5.156   5.277  0.4245 -0.1580  0.8385
   56MOL   C11921129   6.946   5.022   5.202 -0.9305  0.2440  0.2915
   56MOL   C12021130   7.060   4.921   5.229  0.4162 -0.0662  0.7287
   56MOL   C12121131   7.183   5.013   5.259 -0.4146 -0.2707  0.9573
   56MOL   C12221132   7.137   5.349   5.479 -0.6184  0.1101  0.1126
   56MOL   H12321133   7.217   5.300   5.276  1.8783 -0.8378 -0.7313
   56MOL   H12421134   7.096   5.086   5.440 -1.2066 -1.7034 -1.3383
   56MOL   H12521135   6.905   5.180   5.349  1.5338 -0.0590  2.0156
   56MOL   H12621136   6.982   5.225   5.192  1.0254  0.4502  1.3189
   56MOL   H12721137   6.912   5.026   5.098 -0.3736 -2.4038 -0.0241
   56MOL   H12821138   6.867   4.985   5.266 -1.2136 -0.1826 -0.2951
   56MOL   H12921139   7.077   4.856   5.143 -2.4959 -1.6702  1.2872
   56MOL   H13021140   7.027   4.869   5.320 -0.3735 -1.1193 -0.1367
   56MOL   H13121141   7.268   4.963   5.306  0.4418  0.1579 -0.1192
   56MOL   H13221142   7.220   5.060   5.168 -0.0774 -0.2911  1.0843
   56MOL   H13321143   7.212   5.407   5.532 -0.2507  0.0123 -0.2956
   56MOL   H13421144   7.096   5.282   5.554 -0.2988 -0.3224 -0.0950
   56MOL   C13521145   7.020   5.445   5.434  0.1017 -0.0750  0.1828
   56MOL   C13621146   7.076   5.564   5.352  0.3935  0.9152 -0.2690
   56MOL   C13721147   7.176   5.655   5.425 -0.2488 -0.4379 -0.3787
   56MOL   C13821148   7.180   5.787   5.347 -0.6119  0.9727  0.7961
   56MOL   C13921149   7.061   5.791   5.255  0.6133 -0.3748  0.2048
   56MOL   C14021150   6.975   5.670   5.302  0.4610 -0.4562 -0.1192
   56MOL   C14121151   6.938   5.481   5.560  0.3953  0.7607 -0.0054
   56MOL   H14221152   6.948   5.386   5.377  4.0970 -0.8360 -4.4136
   56MOL   H14321153   7.125   5.529   5.261 -1.7614  1.0505 -1.5181
   56MOL   H14421154   7.152   5.679   5.528 -1.5171  0.5286 -0.8919
   56MOL   H14521155   7.271   5.601   5.420 -0.7292 -1.5272  1.8183
   56MOL   H14621156   7.275   5.797   5.294 -0.2918  1.0860  1.3831
   56MOL   H14721157   7.171   5.869   5.417  0.5228  1.6815  0.1277
   56MOL   H14821158   7.112   5.785   5.159  1.1499  0.9433  0.4056
   56MOL   H14921159   7.000   5.881   5.261  0.5636 -0.4579  0.9692
   56MOL   H15021160   6.909   5.703   5.381  2.3242 -1.2890  1.8438
   56MOL   H15121161   6.919   5.638   5.214 -1.4490 -0.1500  0.9682
   56MOL   H15221162   6.908   5.585   5.563  0.4593  0.7689  0.4495
   56MOL   H15321163   7.012   5.469   5.639  0.8136 -0.1472 -0.5235
   56MOL   C15421164   6.805   5.395   5.581  0.3290  0.7500 -0.6683
   56MOL   C15521165   6.745   5.404   5.727  0.5911  0.7537  0.3125
   56MOL   C15621166   6.699   5.539   5.767  0.4171 -0.9940 -0.0876
   56MOL   C15721167   6.710   5.535   5.921  0.0544 -0.1759  0.4253
   56MOL   C15821168   6.835   5.454   5.951  0.3131 -0.3878 -0.1964
   56MOL   C15921169   6.843   5.352   5.834 -0.2620  0.3987 -0.2261
   56MOL   C16021170   6.702   5.442   5.471  0.0762  0.3900  0.2866
   56MOL   H16121171   6.831   5.291   5.561  1.2359  0.6527  0.9796
   56MOL   H16221172   6.659   5.336   5.728  1.0543  0.1360 -0.5503
   56MOL   H16321173   6.768   5.609   5.719  0.9203 -3.1473 -2.6590
   56MOL   H16421174   6.598   5.562   5.733  0.8552  1.5623  0.2111
   56MOL   H16521175   6.704   5.629   5.977 -4.2236  0.6710 -1.2976
   56MOL   H16621176   6.627   5.471   5.951  0.2386 -1.3270 -1.4742
   56MOL   H16721177   6.816   5.408   6.048  2.2872 -0.6508  0.0834
   56MOL   H16821178   6.919   5.523   5.962  0.2363 -0.4135  0.5388
   56MOL   H16921179   6.802   5.261   5.878 -0.6656 -0.7156 -2.8616
   56MOL   H17021180   6.944   5.327   5.803 -0.1839 -1.8666  1.7336
   56MOL   H17121181   6.766   5.500   5.405 -0.1534 -1.7127 -1.8407
   56MOL   H17221182   6.632   5.508   5.522  1.6567  3.3451 -1.2607
   56MOL   C17321183   6.614   5.341   5.390 -0.5590 -0.7988  0.5869
   56MOL   C17421184   6.522   5.409   5.282  0.3101  0.5909 -0.0413
   56MOL   C17521185   6.591   5.512   5.194 -0.3275 -0.0114  0.7143
   56MOL   C17621186   6.477   5.562   5.107 -0.3165  0.5934 -0.1096
   56MOL   C17721187   6.361   5.574   5.208 -0.7360 -0.2493  0.3644
   56MOL   C17821188   6.389   5.475   5.321  0.0389  0.1242 -0.1200
   56MOL   C17921189   6.529   5.248   5.483  0.4161 -0.2604 -0.2909
   56MOL   H18021190   6.687   5.276   5.340 -2.1121 -1.6601 -0.5907
   56MOL   H18121191   6.495   5.332   5.209  1.4315  1.7314 -1.6720
   56MOL   H18221192   6.671   5.484   5.126 -2.4421  2.8071 -3.0946
   56MOL   H18321193   6.635   5.593   5.252  0.9923  0.6420 -1.1500
   56MOL   H18421194   6.471   5.637   5.028 -0.5599  0.9569  0.2460
   56MOL   H18521195   6.458   5.472   5.049 -0.2941  1.2033 -1.0711
   56MOL   H18621196   6.266   5.552   5.160 -0.1634  0.5996 -1.1965
   56MOL   H18721197   6.355   5.672   5.256  0.6680  0.8517 -1.6157
   56MOL   H18821198   6.387   5.532   5.414 -1.7075 -0.3168  0.1217
   56MOL   H18921199   6.306   5.404   5.320 -0.4145  0.6546 -0.6902
   56MOL   H19021200   6.583   5.218   5.572 -0.4342 -1.4552 -0.1700
   56MOL   H19121201   6.458   5.318   5.527  0.3700 -1.7809  2.1270
   56MOL   C19221202   6.455   5.123   5.424  0.0934 -0.2842 -0.8235
   56MOL   C19321203   6.356   5.074   5.538  0.3537 -0.2613  0.0203
   56MOL   C19421204   6.264   4.955   5.505  0.2386  0.8539 -0.7895
   56MOL   C19521205   6.160   4.942   5.618  0.4938  0.0838  0.0502
   56MOL   C19621206   6.150   5.084   5.673 -0.6671 -0.1278  0.2219
   56MOL   C19721207   6.256   5.173   5.599  0.2053  0.6578  0.3218
   56MOL   C19821208   6.553   5.008   5.385  0.0620 -0.3325  0.0419
   56MOL   H19921209   6.382   5.148   5.347 -1.5731  1.1783  1.1737
   56MOL   H20021210   6.411   5.038   5.625  1.9208  0.2693 -0.7224
   56MOL   H20121211   6.326   4.866   5.494 -1.3837 -0.4755  0.5410
   56MOL   H20221212   6.202   4.981   5.419 -2.1914  1.8830  1.2077
   56MOL   H20321213   6.062   4.913   5.577 -0.0141  1.8634 -0.0290
   56MOL   H20421214   6.206   4.871   5.686  1.5353  0.4218 -0.3013
   56MOL   H20521215   6.175   5.081   5.779  2.0730 -0.5090 -0.3935
   56MOL   H20621216   6.053   5.134   5.663 -0.0776  1.5677  2.6591
   56MOL   H20721217   6.303   5.254   5.656  1.0975  1.0273 -0.9178
   56MOL   H20821218   6.209   5.218   5.512 -0.7543  2.0810  1.5634
   56MOL   H20921219   6.646   5.056   5.353  1.4724 -3.8597 -1.2990
   56MOL   H21021220   6.579   4.956   5.477  0.2474  0.1394  0.2596
   56MOL   C21121221   6.505   4.920   5.264 -0.2419 -0.6339  0.1096
   56MOL   C21221222   6.477   5.008   5.133 -0.2015  0.5619  0.0286
   56MOL   C21321223   6.600   5.063   5.058  0.2837  0.1034 -0.0404
   56MOL   C21421224   6.545   5.108   4.921  0.4148 -0.6877  1.3835
   56MOL   C21521225   6.451   4.986   4.888 -0.1238  0.5674 -0.0980
   56MOL   C21621226   6.407   4.932   5.020 -0.4473 -0.3924 -0.0197
   56MOL   C21721227   6.596   4.803   5.240  0.2481  0.7246 -0.4976
   56MOL   H21821228   6.407   4.878   5.286 -0.2907 -0.3398  0.4474
   56MOL   H21921229   6.414   5.092   5.165 -0.8115 -0.3026  1.1498
   56MOL   H22021230   6.650   5.133   5.126 -0.8653 -0.5601  1.5152
   56MOL   H22121231   6.662   4.973   5.053 -1.3502 -1.2399  2.5657
   56MOL   H22221232   6.479   5.194   4.926  0.7251 -0.0679 -3.1609
   56MOL   H22321233   6.614   5.120   4.837 -0.6329  0.5132  0.6823
   56MOL   H22421234   6.504   4.902   4.843  0.1359 -0.1046  1.4417
   56MOL   H22521235   6.374   5.023   4.821 -1.0771  2.9041  2.2364
   56MOL   H22621236   6.300   4.950   5.030 -0.5745  0.3687 -2.3771
   56MOL   H22721237   6.418   4.824   5.016 -3.0089 -0.7410  1.6754
   56MOL   H22821238   6.698   4.840   5.228 -0.9485  3.3182 -3.3320
   56MOL   H22921239   6.585   4.760   5.140 -1.2931  2.0614 -0.9234
   56MOL   C23021240   6.599   4.684   5.347  1.0210  0.7239 -0.3719
   56MOL   C23121241   6.722   4.586   5.329 -0.7304 -0.1109  0.0734
   56MOL   C23221242   6.741   4.522   5.190 -0.2959 -0.6748 -0.1807
   56MOL   C23321243   6.889   4.486   5.180 -0.2695  0.1122 -0.3237
   56MOL   C23421244   6.964   4.586   5.272 -0.5744 -0.1699  0.7757
   56MOL   C23521245   6.858   4.634   5.379  0.4292  0.5747 -0.1814
   56MOL   C23621246   6.465   4.600   5.327 -0.5599  0.4917  0.5750
   56MOL   H23721247   6.594   4.721   5.450 -0.7023  2.0259 -0.8992
   56MOL   H23821248   6.703   4.498   5.390  2.3564 -0.4857  0.5381
   56MOL   H23921249   6.673   4.437   5.182 -0.7163 -0.4220  0.5877
   56MOL   H24021250   6.730   4.590   5.106 -0.2176  1.1948  1.2878
   56MOL   H24121251   6.903   4.383   5.211 -1.6583  0.1149  0.3252
   56MOL   H24221252   6.930   4.494   5.079 -1.9094 -1.8487 -1.1511
   56MOL   H24321253   7.002   4.671   5.215 -2.6111  1.5977  1.9832
   56MOL   H24421254   7.050   4.542   5.322  0.3511 -0.2257 -0.8165
   56MOL   H24521255   6.843   4.741   5.385  2.6791  0.7644  3.0376
   56MOL   H24621256   6.883   4.593   5.477 -2.8315  2.1226  1.3504
   56MOL   H24721257   6.462   4.561   5.225 -1.7400 -0.2878  0.9029
   56MOL   H24821258   6.374   4.660   5.330 -0.1162  1.3162 -1.3601
   56MOL   C24921259   6.427   4.494   5.429  0.8563 -0.3158  0.1933
   56MOL   C25021260   6.305   4.396   5.395 -0.1349  0.6537  0.6857
   56MOL   C25121261   6.329   4.311   5.279 -0.0236  1.3227 -0.4970
   56MOL   C25221262   6.196   4.250   5.250 -0.6170  0.2509  0.3525
   56MOL   C25321263   6.087   4.349   5.295 -0.4098  0.0321  0.2130
   56MOL   C25421264   6.169   4.459   5.367  0.3455 -0.0957 -0.0519
   56MOL   C25521265   6.396   4.551   5.570 -0.6847 -0.0336  0.1499
   56MOL   H25621266   6.507   4.420   5.429 -0.3383 -1.6384  0.2619
   56MOL   H25721267   6.280   4.328   5.477 -1.7728  0.7180  0.2438
   56MOL   H25821268   6.402   4.233   5.301  0.0170  0.5526 -3.0943
   56MOL   H25921269   6.361   4.377   5.198 -3.0983 -0.9115 -3.6683
   56MOL   H26021270   6.189   4.160   5.310  1.8366 -0.1632  0.0576
   56MOL   H26121271   6.196   4.230   5.143  2.2521 -0.2454  0.4090
   56MOL   H26221272   6.006   4.291   5.337  0.1170 -1.3097 -0.6033
   56MOL   H26321273   6.051   4.403   5.207 -0.0301  1.0225  0.6583
   56MOL   H26421274   6.121   4.498   5.457 -0.6073  3.7088 -2.0827
   56MOL   H26521275   6.184   4.545   5.302  0.7291 -0.0745  0.0653
   56MOL   H26621276   6.362   4.652   5.547 -0.7097  0.3916  2.0047
   56MOL   H26721277   6.309   4.509   5.620 -1.9539  1.5563 -0.6652
   56MOL   C26821278   6.522   4.564   5.665  0.0493  0.5436 -0.4020
   56MOL   C26921279   6.544   4.439   5.754 -0.9008 -0.0389 -0.1606
   56MOL   C27021280   6.689   4.393   5.759  0.2162  0.5358 -0.2052
   56MOL   C27121281   6.680   4.254   5.821  0.2064  0.5821 -0.1586
   56MOL   C27221282   6.551   4.187   5.771 -0.2345 -0.2976  0.2590
   56MOL   C27321283   6.475   4.305   5.708  0.1619 -0.0685 -0.8090
   56MOL   C27421284   6.526   4.697   5.740  0.1631  0.7308 -0.7083
   56MOL   H27521285   6.611   4.576   5.603 -0.2147 -0.1535 -0.9203
   56MOL   H27621286   6.498   4.455   5.852 -1.7728  1.7018 -0.8299
   56MOL   H27721287   6.720   4.388   5.655 -0.5918 -2.9677 -0.3392
   56MOL   H27821288   6.757   4.458   5.815 -0.0435  0.8885 -0.3010
   56MOL   H27921289   6.767   4.189   5.813  0.0029  0.3712 -0.6909
   56MOL   H28021290   6.664   4.275   5.926 -2.6155 -0.5150 -0.3472
   56MOL   H28121291   6.498   4.137   5.852  1.0343 -0.4429  1.0263
   56MOL   H28221292   6.568   4.120   5.686  0.2798  0.0152  0.1140
   56MOL   H28321293   6.369   4.296   5.729  0.2686  1.5558  0.5993
   56MOL   H28421294   6.494   4.294   5.602 -1.5758  2.0349 -1.3629
   56MOL   H28521295   6.437   4.706   5.803  0.3719 -0.5518 -0.2057
   56MOL   H28621296   6.518   4.777   5.667  1.8958  0.6305 -1.0161
   56MOL   C28721297   6.655   4.731   5.819 -0.2969 -0.0513 -0.0888
   56MOL   C28821298   6.766   4.798   5.736  0.3235 -0.0423  0.2391
   56MOL   C28921299   6.758   4.942   5.713  0.4580  0.1495 -0.3183
   56MOL   C29021300   6.907   4.987   5.689 -0.2621  0.0253  0.4220
   56MOL   C29121301   6.997   4.864   5.711  0.3702 -0.3979 -0.8648
   56MOL   C29221302   6.910   4.772   5.795 -0.3267  0.8696 -0.3194
   56MOL   C29321303   6.625   4.814   5.949  0.2106 -0.0445 -0.5118
   56MOL   H29421304   6.698   4.642   5.864 -0.6802 -0.9932 -1.5630
   56MOL   H29521305   6.768   4.752   5.637 -2.3904 -0.2288  0.2294
   56MOL   H29621306   6.694   4.978   5.632  1.1998 -0.1447 -1.0445
   56MOL   H29721307   6.717   4.991   5.801  2.5591 -1.8602  1.8313
   56MOL   H29821308   6.920   5.015   5.584 -1.0489 -0.5106  0.1712
   56MOL   H29921309   6.924   5.072   5.754  1.1472 -0.2640  0.4440
   56MOL   H30021310   7.090   4.894   5.759  1.4650 -3.2538 -1.1203
   56MOL   H30121311   7.031   4.815   5.620  1.2381  0.9316 -1.2756
   56MOL   H30221312   6.914   4.809   5.897  1.5088  0.3601 -0.1784
   56MOL   H30321313   6.943   4.668   5.792 -1.0983  0.6186 -0.1829
   56MOL   H30421314   6.555   4.894   5.928  0.3125  0.6984  1.8135
   56MOL   H30521315   6.719   4.862   5.979  0.2306  0.4796 -1.4288
   56MOL   C30621316   6.574   4.729   6.066  0.0556  0.8409 -0.6745
   56MOL   C30721317   6.680   4.648   6.148  0.4158 -0.3119  0.3617
   56MOL   C30821318   6.778   4.731   6.225 -0.0095  0.5390  0.4408
   56MOL   C30921319   6.815   4.658   6.353 -0.3635 -0.0189 -0.1483
   56MOL   C31021320   6.692   4.586   6.384 -0.3283  0.0848 -0.3721
   56MOL   C31121321   6.626   4.543   6.251 -0.7072 -0.4167  0.3474
   56MOL   C31221322   6.482   4.814   6.164 -0.0274  0.6971  0.0389
   56MOL   H31321323   6.519   4.649   6.016  0.1748  0.1135  0.3259
   56MOL   H31421324   6.739   4.592   6.076 -1.9150 -0.3835 -1.5627
   56MOL   H31521325   6.742   4.827   6.261 -2.5586 -0.7444  1.3714
   56MOL   H31621326   6.867   4.758   6.167 -0.6064 -0.9788 -1.2360
   56MOL   H31721327   6.895   4.586   6.336 -0.1760  0.2255 -0.3105
   56MOL   H31821328   6.835   4.724   6.437 -0.3057 -1.4271  0.9511
   56MOL   H31921329   6.624   4.654   6.433 -2.8484 -2.2306 -0.5525
   56MOL   H32021330   6.705   4.505   6.456 -0.4635 -0.8701 -1.3990
   56MOL   H32121331   6.660   4.446   6.214  1.4989  0.1870  0.7009
   56MOL   H32221332   6.518   4.555   6.247 -0.9164 -2.1710  0.3024
   56MOL   H32321333   6.534   4.910   6.171 -1.5991  1.4622  1.6100
   56MOL   H32421334   6.475   4.770   6.264 -4.3878  1.4457  0.1607
   56MOL   C32521335   6.339   4.837   6.108  0.6071 -0.3012 -0.2016
   56MOL   C32621336   6.295   4.977   6.145  0.6421 -0.1860 -0.6072
   56MOL   C32721337   6.308   5.021   6.290  0.2312  0.2770 -0.3193
   56MOL   C32821338   6.218   5.142   6.298  0.4444 -0.1693 -0.7134
   56MOL   C32921339   6.100   5.115   6.198  0.2371  0.6751  0.2682
   56MOL   C33021340   6.153   5.014   6.095 -0.1167 -0.1080  0.0024
   56MOL   C33121341   6.239   4.717   6.152  0.4468 -0.5886 -0.5675
   56MOL   H33221342   6.346   4.843   5.999 -0.5522 -1.0020 -0.3249
   56MOL   H33321343   6.370   5.044   6.103  0.7769  0.2308  0.2839
   56MOL   H33421344   6.407   5.047   6.328  0.7518 -1.4620 -0.4063
   56MOL   H33521345   6.279   4.942   6.360 -1.1352 -0.2988 -1.5006
   56MOL   H33621346   6.271   5.227   6.256  0.8401 -0.1501 -0.1806
   56MOL   H33721347   6.180   5.173   6.396 -1.5162 -1.1107 -1.1409
   56MOL   H33821348   6.070   5.203   6.141  1.3149 -0.0151 -1.4170
   56MOL   H33921349   6.017   5.079   6.259 -0.3932 -1.6995 -1.8956
   56MOL   H34021350   6.146   5.058   5.996  1.0452 -1.8946 -0.8936
   56MOL   H34121351   6.080   4.933   6.089  0.3278 -0.6357  1.4054
   56MOL   H34221352   6.147   4.763   6.187 -0.2246 -1.6806 -0.8701
   56MOL   H34321353   6.271   4.657   6.238 -1.8226 -0.9107  0.0952
   56MOL   C34421354   6.207   4.608   6.037  0.2693  0.3225 -0.3012
   56MOL   C34521355   6.100   4.666   5.934  0.2027 -0.1919  0.1396
   56MOL   C34621356   5.949   4.654   5.975 -0.4047 -0.5003 -0.0020
   56MOL   C34721357   5.892   4.535   5.886  0.2010  0.2244 -0.3811
   56MOL   C34821358   5.975   4.540   5.762  0.6452  0.3357  0.9924
   56MOL   C34921359   6.110   4.587   5.803 -0.6175  0.1467 -0.0085
   56MOL   C35021360   6.172   4.467   6.094  0.7729 -1.6443 -0.2369
   56MOL   H35121361   6.299   4.583   5.986  0.9311 -0.1902  1.1094
   56MOL   H35221362   6.119   4.770   5.908  0.4658 -0.3232 -0.1894
   56MOL   H35321363   5.897   4.745   5.946  0.3936  0.4202  1.3834
   56MOL   H35421364   5.940   4.643   6.083 -1.9529 -1.4128 -0.2091
   56MOL   H35521365   5.917   4.448   5.947 -1.0317  0.3651  0.3415
   56MOL   H35621366   5.783   4.544   5.879  0.3545  0.3004 -3.0820
   56MOL   H35721367   5.919   4.605   5.694 -0.9459 -1.5460  0.4301
   56MOL   H35821368   5.986   4.449   5.701 -0.9204  0.6562  0.2138
   56MOL   H35921369   6.180   4.505   5.816 -0.6595  0.0896 -0.1377
   56MOL   H36021370   6.159   4.650   5.729 -0.9043  0.5924  0.1833
   56MOL   H36121371   6.141   4.401   6.013 -0.2577  1.2904 -2.3085
   56MOL   H36221372   6.085   4.470   6.159  0.8372 -3.6046 -0.0323
   56MOL   C36321373   6.274   4.395   6.192  0.3178  0.4194  0.0672
   56MOL   C36421374   6.200   4.266   6.253 -0.0693 -0.7968 -0.6960
   56MOL   C36521375   6.099   4.304   6.365 -0.1462  0.1586  0.5860
   56MOL   C36621376   6.076   4.176   6.447  0.2081 -0.1746 -0.5821
   56MOL   C36721377   6.196   4.082   6.434 -0.8961  0.2626 -0.0013
   56MOL   C36821378   6.284   4.158   6.326 -0.1150 -0.5174 -0.0467
   56MOL   C36921379   6.395   4.345   6.113 -0.1992 -0.5125  0.0885
   56MOL   H37021380   6.304   4.447   6.282 -2.4614 -0.3860  1.5414
   56MOL   H37121381   6.148   4.207   6.177 -0.1112  0.0971 -1.3787
   56MOL   H37221382   6.150   4.375   6.429  2.2240  0.0046 -1.0461
   56MOL   H37321383   5.999   4.336   6.337  0.5687  1.0370 -1.0692
   56MOL   H37421384   6.058   4.208   6.550  0.3012 -0.0771 -0.5963
   56MOL   H37521385   5.988   4.118   6.419  0.0926 -0.9321  1.2473
   56MOL   H37621386   6.247   4.052   6.525 -0.2144  0.9234 -0.1543
   56MOL   H37721387   6.163   3.987   6.392 -1.2394  0.4685 -0.1976
   56MOL   H37821388   6.343   4.091   6.264  2.1288 -0.8798  2.4001
   56MOL   H37921389   6.360   4.211   6.383  1.8448 -1.1725 -2.0054
   56MOL   H38021390   6.359   4.271   6.042 -2.0986  0.9722 -0.5340
   56MOL   H38121391   6.465   4.295   6.181  0.2566  1.1498  0.8612
   56MOL   H38221392   6.447   4.427   6.064  3.0081 -2.9329 -0.7336
   57MOL     C121393   0.711   4.031   2.584 -1.0865  0.4653 -0.0464
   57MOL     C221394   0.580   3.985   2.647  0.1797 -0.2355  0.4996
   57MOL     C321395   0.601   3.865   2.746 -0.2175 -0.2688  0.2021
   57MOL     C421396   0.481   3.777   2.717  0.5938  0.4256 -0.3281
   57MOL     C521397   0.455   3.795   2.562 -0.3101  0.0803 -0.6876
   57MOL     C621398   0.480   3.945   2.531 -0.2518  0.1527  0.3126
   57MOL     C721399   0.806   4.097   2.695  0.1645  0.4828 -0.0321
   57MOL     H821400   0.754   3.941   2.542 -1.1377 -0.1286  1.1476
   57MOL     H921401   0.544   4.077   2.695  0.5984  1.0654 -1.5880
   57MOL    H1021402   0.683   3.800   2.717  0.0533 -0.5406  1.5466
   57MOL    H1121403   0.620   3.892   2.850 -1.3286 -1.5541  0.7555
   57MOL    H1221404   0.490   3.672   2.744  2.5849  0.2801 -1.4356
   57MOL    H1321405   0.403   3.823   2.778  0.8796  1.4075 -0.6964
   57MOL    H1421406   0.531   3.745   2.502 -2.2607 -1.6186 -1.7974
   57MOL    H1521407   0.354   3.767   2.532 -0.9413 -0.6793  1.9928
   57MOL    H1621408   0.391   4.007   2.521  0.2180  0.8548  0.4936
   57MOL    H1721409   0.527   3.948   2.432 -1.2165 -0.9261 -0.1946
   57MOL    H1821410   0.752   4.176   2.747  1.4009 -0.3381  2.5830
   57MOL    H1921411   0.825   4.018   2.768 -0.8254 -1.1389 -1.4769
   57MOL    H2021412   0.691   4.094   2.497  0.4769  0.4623 -0.4267
   57MOL    C2121413   0.943   4.149   2.640  0.3673 -0.5426 -0.1120
   57MOL    C2221414   1.021   4.041   2.566  0.0152 -0.6528  0.7068
   57MOL    C2321415   1.059   3.914   2.653  0.3811  0.1990  0.0704
   57MOL    C2421416   1.209   3.930   2.676  0.2810 -0.0744  0.2695
   57MOL    C2521417   1.258   3.984   2.544 -0.0888 -0.4140  0.1869
   57MOL    C2621418   1.158   4.091   2.508 -0.4167 -0.5431  0.4981
   57MOL    C2721419   0.930   4.286   2.563  0.0526 -0.2099 -0.0447
   57MOL    H2821420   1.008   4.185   2.720  0.3365  1.1669 -0.8224
   57MOL    H2921421   0.960   4.004   2.483  1.1359  1.4791 -1.1384
   57MOL    H3021422   1.037   3.813   2.618  0.9805 -0.0759  0.4827
   57MOL    H3121423   1.009   3.905   2.749  1.8160 -0.0658  0.8079
   57MOL    H3221424   1.232   3.995   2.759 -2.5189 -1.1380  1.9514
   57MOL    H3321425   1.256   3.834   2.699  1.2948 -0.4167 -2.9376
   57MOL    H3421426   1.245   3.898   2.478 -1.0627  0.9812 -1.4685
   57MOL    H3521427   1.363   4.015   2.544 -0.2341  0.1361  2.0296
   57MOL    H3621428   1.151   4.120   2.403  1.8532  0.7033  0.6617
   57MOL    H3721429   1.192   4.175   2.569  1.4801 -0.3772 -0.7535
   57MOL    H3821430   1.028   4.321   2.530 -0.1764  1.0376  0.5599
   57MOL    H3921431   0.879   4.260   2.471 -1.0168  0.1020  0.4590
   57MOL    C4021432   0.863   4.399   2.641  0.3957  0.1034 -0.3163
   57MOL    C4121433   0.924   4.429   2.780 -0.2892  0.6294  0.4232
   57MOL    C4221434   0.855   4.541   2.853 -0.1896  0.2571  0.4356
   57MOL    C4321435   0.965   4.645   2.885  0.7046  0.0321 -0.0279
   57MOL    C4421436   1.098   4.568   2.875  0.0844  0.5947 -0.6510
   57MOL    C4521437   1.071   4.464   2.761  0.4358 -0.2834  0.5825
   57MOL    C4621438   0.857   4.523   2.549  0.5083 -0.2994 -0.1933
   57MOL    H4721439   0.761   4.366   2.658  0.1365  1.1598  0.2655
   57MOL    H4821440   0.908   4.335   2.833 -1.2360  0.0041 -0.9051
   57MOL    H4921441   0.801   4.501   2.939  0.4361 -0.0291  0.6980
   57MOL    H5021442   0.770   4.587   2.804 -2.0336 -2.5456  0.8881
   57MOL    H5121443   0.945   4.683   2.986 -1.4526 -2.9177  0.7129
   57MOL    H5221444   0.946   4.733   2.823 -0.7114  0.6408  1.2282
   57MOL    H5321445   1.175   4.643   2.862  0.2056  0.8460  1.3875
   57MOL    H5421446   1.117   4.517   2.969  0.0380  2.0938  0.1738
   57MOL    H5521447   1.091   4.517   2.668 -1.8137 -3.6603 -1.9323
   57MOL    H5621448   1.135   4.376   2.773 -1.9623 -2.2017 -0.3104
   57MOL    H5721449   0.859   4.611   2.614  0.5803 -0.1138 -0.4448
   57MOL    H5821450   0.946   4.549   2.492 -0.1324  0.9566 -0.6309
   57MOL    C5921451   0.731   4.531   2.458  0.0553  0.3835  0.6907
   57MOL    C6021452   0.619   4.614   2.533  0.3384 -0.1006  0.3802
   57MOL    C6121453   0.478   4.615   2.473  0.5629  0.1328  0.5858
   57MOL    C6221454   0.408   4.725   2.552  0.2198 -0.3296 -0.3306
   57MOL    C6321455   0.513   4.830   2.588  0.2702  0.2119 -0.3690
   57MOL    C6421456   0.649   4.760   2.569  0.0727 -0.3426 -0.2941
   57MOL    C6521457   0.777   4.595   2.322  0.3325  0.1710  0.2852
   57MOL    H6621458   0.683   4.436   2.434 -1.7147  1.4255  0.0034
   57MOL    H6721459   0.608   4.562   2.627  0.8704  2.4968  1.9433
   57MOL    H6821460   0.432   4.518   2.488 -1.7391  0.5842 -2.8813
   57MOL    H6921461   0.484   4.636   2.366 -0.3304 -0.8378  0.3430
   57MOL    H7021462   0.368   4.675   2.640  0.3690  0.8605  0.4280
   57MOL    H7121463   0.322   4.776   2.509  1.0126  0.4337 -1.0399
   57MOL    H7221464   0.505   4.875   2.687 -2.1755  0.0569 -0.4684
   57MOL    H7321465   0.499   4.911   2.516  0.4488  0.6351  0.0654
   57MOL    H7421466   0.682   4.814   2.480  1.4949  0.2225  0.5460
   57MOL    H7521467   0.725   4.784   2.643 -1.1490  0.1205  0.8167
   57MOL    H7621468   0.843   4.679   2.342 -0.3289  1.6371 -3.1924
   57MOL    H7721469   0.694   4.648   2.275 -1.4041 -1.1706  1.7736
   57MOL    C7821470   0.849   4.514   2.216 -0.2032  0.8923  0.1030
   57MOL    C7921471   0.744   4.415   2.148  0.1783  0.2379 -0.2375
   57MOL    C8021472   0.816   4.307   2.068 -0.3624  0.2950  0.5631
   57MOL    C8121473   0.700   4.244   1.990  0.8268 -0.5426  0.0032
   57MOL    C8221474   0.594   4.355   1.966 -0.2765 -0.0761  0.1574
   57MOL    C8321475   0.630   4.468   2.065  0.1895  0.2067  0.5779
   57MOL    C8421476   0.914   4.606   2.111 -0.2307 -0.0722  0.4930
   57MOL    H8521477   0.918   4.447   2.268 -1.3034 -0.7773 -0.5527
   57MOL    H8621478   0.703   4.345   2.222  0.7521 -1.2010 -1.2561
   57MOL    H8721479   0.866   4.239   2.137 -0.3921  0.2923  0.5822
   57MOL    H8821480   0.886   4.337   1.989 -1.6123  0.5304 -0.4781
   57MOL    H8921481   0.658   4.176   2.064 -1.0849  0.5072 -0.0967
   57MOL    H9021482   0.726   4.177   1.908 -1.0672 -0.6013 -0.5657
   57MOL    H9121483   0.610   4.388   1.864 -1.0328 -1.0387 -0.2886
   57MOL    H9221484   0.489   4.324   1.968  0.0373 -1.2602 -0.9432
   57MOL    H9321485   0.656   4.565   2.022  0.1694  0.6681  1.5902
   57MOL    H9421486   0.539   4.482   2.124 -0.2429  0.7030 -0.2025
   57MOL    H9521487   0.848   4.689   2.087 -0.0810 -0.0611  0.1115
   57MOL    H9621488   0.918   4.551   2.017  0.1004  0.3711  0.2454
   57MOL    C9721489   1.055   4.668   2.142 -0.8335  0.5509  0.1274
   57MOL    C9821490   1.110   4.770   2.033 -0.2049  0.2890 -0.1388
   57MOL    C9921491   1.105   4.725   1.888 -0.2948  0.0103  0.7481
   57MOL   C10021492   0.983   4.793   1.826  0.4779  0.4146 -0.5774
   57MOL   C10121493   0.984   4.925   1.895 -0.4596  0.1358 -0.2552
   57MOL   C10221494   1.031   4.905   2.036 -0.2607  0.6493 -0.4983
   57MOL   C10321495   1.160   4.545   2.160  0.0018 -0.0719 -0.2373
   57MOL   H10421496   1.047   4.723   2.236  0.9955 -0.8502  1.1507
   57MOL   H10521497   1.211   4.810   2.047  0.3872 -1.8484  2.0710
   57MOL   H10621498   1.195   4.744   1.830 -1.1768 -0.7244 -0.9018
   57MOL   H10721499   1.107   4.616   1.888  0.1688  0.0153 -0.1811
   57MOL   H10821500   0.894   4.739   1.858  0.7625  0.8026  0.9156
   57MOL   H10921501   0.982   4.802   1.718 -0.8874 -0.3389 -0.6328
   57MOL   H11021502   0.883   4.965   1.888 -0.9018 -1.1041 -1.1769
   57MOL   H11121503   1.047   4.999   1.846 -1.3896  0.6669 -0.6604
   57MOL   H11221504   1.090   4.992   2.066  1.1010  0.0748 -1.4378
   57MOL   H11321505   0.949   4.900   2.108 -0.0987 -0.3935 -0.3680
   57MOL   H11421506   1.108   4.490   2.239 -0.9716  1.7430  0.4038
   57MOL   H11521507   1.152   4.491   2.066 -0.0960  0.1911 -0.3781
   57MOL   C11621508   1.303   4.580   2.198  0.5974 -0.1997 -0.3683
   57MOL   C11721509   1.308   4.665   2.323  0.1861 -0.3672  0.0339
   57MOL   C11821510   1.259   4.613   2.460 -0.9859  0.5558 -0.5311
   57MOL   C11921511   1.336   4.694   2.566 -0.0326  0.3737 -0.0414
   57MOL   C12021512   1.427   4.792   2.496 -0.4268  0.4196  0.6657
   57MOL   C12121513   1.451   4.722   2.353 -0.0051  0.0692 -0.1243
   57MOL   C12221514   1.393   4.453   2.198 -0.2396  0.3688  0.3483
   57MOL   H12321515   1.342   4.639   2.114  0.3001 -2.0802 -1.8425
   57MOL   H12421516   1.246   4.754   2.311  0.9882  0.3359  1.0445
   57MOL   H12521517   1.153   4.619   2.482 -0.9251 -0.1395 -0.0228
   57MOL   H12621518   1.286   4.508   2.471  0.7861  1.1429  1.1021
   57MOL   H12721519   1.398   4.622   2.619  1.3753  1.0699 -0.7183
   57MOL   H12821520   1.262   4.744   2.628 -0.5768  1.3826 -1.4663
   57MOL   H12921521   1.527   4.798   2.538 -0.4072 -0.6107  0.7719
   57MOL   H13021522   1.383   4.888   2.469 -1.6280 -0.4488 -0.5321
   57MOL   H13121523   1.491   4.774   2.266 -0.1037  0.1644 -0.1122
   57MOL   H13221524   1.520   4.640   2.375 -0.4005 -0.4506 -0.8112
   57MOL   H13321525   1.339   4.375   2.251  0.6163 -0.3792  0.1233
   57MOL   H13421526   1.481   4.467   2.261  0.0453  0.0827  0.0114
   57MOL   C13521527   1.445   4.400   2.058  0.9624 -0.3056  0.0735
   57MOL   C13621528   1.518   4.258   2.064 -0.3082 -0.4389 -0.3061
   57MOL   C13721529   1.425   4.140   2.104 -0.1950  0.6820 -0.4651
   57MOL   C13821530   1.512   4.028   2.151 -0.1352  0.3850  0.1319
   57MOL   C13921531   1.642   4.090   2.179 -1.0239 -0.1795  0.1974
   57MOL   C14021532   1.631   4.241   2.164 -0.3053  0.6047  0.1198
   57MOL   C14121533   1.546   4.500   1.995  0.4617  0.0164 -0.2269
   57MOL   H14221534   1.361   4.383   1.991  0.8877 -1.6813  0.4955
   57MOL   H14321535   1.570   4.241   1.970  0.4997  0.9040 -0.1213
   57MOL   H14421536   1.370   4.174   2.192  1.2008 -1.7192  1.4102
   57MOL   H14521537   1.361   4.103   2.024  0.0097 -0.6844 -0.0078
   57MOL   H14621538   1.522   3.954   2.071  1.3917  0.5695  0.1311
   57MOL   H14721539   1.470   3.984   2.242  0.7807  0.8988  0.8105
   57MOL   H14821540   1.720   4.044   2.117 -1.5871 -0.2627 -0.4597
   57MOL   H14921541   1.678   4.067   2.279  3.1976 -0.3992 -1.2484
   57MOL   H15021542   1.622   4.295   2.258  1.1286  0.5805  0.2781
   57MOL   H15121543   1.721   4.279   2.117  0.8584 -0.1206  1.7498
   57MOL   H15221544   1.637   4.451   1.961  0.9044  1.1503 -0.7300
   57MOL   H15321545   1.585   4.567   2.072  0.9609  2.9858 -2.9455
   57MOL   C15421546   1.485   4.577   1.870 -0.1247  0.6484 -0.4487
   57MOL   C15521547   1.555   4.708   1.846 -0.0649 -0.0684 -0.1202
   57MOL   C15621548   1.714   4.700   1.839 -1.7595 -0.5303 -0.1217
   57MOL   C15721549   1.755   4.836   1.884  0.1661  0.1922 -0.2492
   57MOL   C15821550   1.624   4.925   1.904  0.4847 -0.2282 -0.5489
   57MOL   C15921551   1.525   4.814   1.950  0.0946  0.3416 -0.2838
   57MOL   C16021552   1.486   4.477   1.750  0.0857 -0.0052  0.3792
   57MOL   H16121553   1.382   4.608   1.890  0.6921  2.1338  1.7430
   57MOL   H16221554   1.519   4.748   1.752  1.0030  0.7874 -0.1725
   57MOL   H16321555   1.761   4.631   1.909 -0.4904 -0.6259 -1.0584
   57MOL   H16421556   1.746   4.670   1.740 -1.9376 -0.0527 -0.3228
   57MOL   H16521557   1.812   4.834   1.976  0.8257  0.5838 -0.6391
   57MOL   H16621558   1.811   4.887   1.805  0.8911 -0.5773 -0.2313
   57MOL   H16721559   1.597   4.970   1.808  0.3609  2.6749  0.7774
   57MOL   H16821560   1.656   5.005   1.971  1.6718 -3.8932  3.4038
   57MOL   H16921561   1.421   4.845   1.961  0.5113  1.3345  0.9309
   57MOL   H17021562   1.545   4.777   2.051  1.6238  1.6194 -0.0980
   57MOL   H17121563   1.496   4.375   1.785 -3.2127 -0.4913  0.0214
   57MOL   H17221564   1.583   4.490   1.703 -1.1654  2.6560 -1.6025
   57MOL   C17321565   1.364   4.482   1.650 -0.0345 -0.3352 -0.0106
   57MOL   C17421566   1.247   4.395   1.703 -0.4801  0.4324 -0.1429
   57MOL   C17521567   1.269   4.249   1.713 -0.1708 -0.2710 -0.4248
   57MOL   C17621568   1.120   4.201   1.732  0.0060 -0.0110 -0.0423
   57MOL   C17721569   1.020   4.304   1.685  0.0365 -0.6857 -0.0632
   57MOL   C17821570   1.116   4.407   1.623 -0.3096  0.1668  0.0498
   57MOL   C17921571   1.412   4.438   1.506 -0.2323  0.0432 -0.2806
   57MOL   H18021572   1.332   4.586   1.645 -1.4267 -0.7594 -0.1716
   57MOL   H18121573   1.217   4.446   1.795 -1.2295 -2.5222  1.3118
   57MOL   H18221574   1.341   4.213   1.786 -0.3954  1.3401  0.6077
   57MOL   H18321575   1.296   4.216   1.612  0.6748  0.6475 -0.5140
   57MOL   H18421576   1.092   4.103   1.694  2.3442 -1.0844  0.8621
   57MOL   H18521577   1.100   4.198   1.839 -0.5122  1.6925 -0.0888
   57MOL   H18621578   0.971   4.341   1.775  1.5120  1.1616 -0.0018
   57MOL   H18721579   0.951   4.275   1.606 -1.2343  0.6874  0.5127
   57MOL   H18821580   1.127   4.375   1.519 -0.0829  2.4824 -0.6860
   57MOL   H18921581   1.068   4.505   1.624 -1.5930 -0.4355 -0.8048
   57MOL   H19021582   1.456   4.340   1.526  0.5881  0.6526  0.9328
   57MOL   H19121583   1.321   4.417   1.449  0.2700  1.3396 -1.5857
   57MOL   C19221584   1.507   4.530   1.425  0.3237 -0.0447  0.0316
   57MOL   C19321585   1.449   4.677   1.421 -1.1702  0.0430 -0.1114
   57MOL   C19421586   1.316   4.684   1.350 -0.0818  0.3147 -0.5651
   57MOL   C19521587   1.295   4.827   1.301 -0.1973  0.1482  0.4369
   57MOL   C19621588   1.434   4.897   1.310 -0.5197 -0.2128  0.8107
   57MOL   C19721589   1.531   4.783   1.346  0.1944  0.1203 -0.2453
   57MOL   C19821590   1.541   4.459   1.286  0.2492 -0.4394 -0.7391
   57MOL   H19921591   1.593   4.542   1.490 -1.6719  0.3285  2.6921
   57MOL   H20021592   1.433   4.712   1.523 -3.1058  3.3635 -1.4577
   57MOL   H20121593   1.227   4.655   1.405 -1.1635 -0.8905 -2.8616
   57MOL   H20221594   1.309   4.616   1.265 -1.8900  1.2059 -1.1643
   57MOL   H20321595   1.255   4.826   1.200  1.1342 -0.2151 -0.0820
   57MOL   H20421596   1.217   4.880   1.356 -0.9639  1.9791 -2.3240
   57MOL   H20521597   1.433   4.970   1.391  2.1094  1.0944 -0.3035
   57MOL   H20621598   1.460   4.953   1.220 -2.0966 -2.5460 -1.1751
   57MOL   H20721599   1.622   4.815   1.397 -1.2369  2.7110  0.8172
   57MOL   H20821600   1.568   4.739   1.254 -1.2883  0.0911 -0.8342
   57MOL   H20921601   1.444   4.431   1.244  0.4128 -0.7822 -0.8889
   57MOL   H21021602   1.573   4.539   1.220 -1.5304 -0.2346 -1.3753
   57MOL   C21121603   1.640   4.335   1.291  0.5590  0.0539 -0.0588
   57MOL   C21221604   1.602   4.227   1.182  0.0441  0.5360 -0.7863
   57MOL   C21321605   1.467   4.156   1.212 -0.0511 -0.2247 -0.2162
   57MOL   C21421606   1.364   4.174   1.104 -0.6892  0.0978  0.0401
   57MOL   C21521607   1.428   4.267   1.006 -0.0457  0.2829  0.4950
   57MOL   C21621608   1.582   4.268   1.035  0.3970 -0.7951 -0.1702
   57MOL   C21721609   1.786   4.386   1.301  0.6817  0.0946 -0.5955
   57MOL   H21821610   1.611   4.284   1.382 -3.1578  0.0175 -1.1635
   57MOL   H21921611   1.673   4.144   1.179 -1.3290 -0.7533  1.1907
   57MOL   H22021612   1.486   4.052   1.238  0.7464  0.7557  3.5360
   57MOL   H22121613   1.419   4.199   1.300  1.7064 -0.0542  0.6809
   57MOL   H22221614   1.360   4.081   1.047  0.4161  0.6623 -0.9868
   57MOL   H22321615   1.262   4.207   1.124 -1.6465 -0.9742 -2.9507
   57MOL   H22421616   1.390   4.369   1.014  1.2530  1.0021 -1.8198
   57MOL   H22521617   1.427   4.236   0.902 -5.1907 -0.4668  0.6812
   57MOL   H22621618   1.626   4.195   0.967  1.0364 -0.5847  0.0118
   57MOL   H22721619   1.618   4.368   1.008 -3.1771  0.4715 -0.5302
   57MOL   H22821620   1.780   4.473   1.366 -0.8267 -0.5747  0.1860
   57MOL   H22921621   1.823   4.428   1.207 -0.1754  2.9267  0.2863
   57MOL   C23021622   1.881   4.286   1.372  0.7913 -0.6371  0.2867
   57MOL   C23121623   1.914   4.325   1.516 -0.3401 -0.1334 -0.2841
   57MOL   C23221624   1.790   4.335   1.607 -0.2978  0.1888  0.2588
   57MOL   C23321625   1.838   4.310   1.754 -0.7679  0.0379  0.3392
   57MOL   C23421626   1.989   4.277   1.737 -0.1122  0.0193  0.7187
   57MOL   C23521627   2.001   4.230   1.597  0.1159 -0.5440  1.2551
   57MOL   C23621628   2.007   4.257   1.285 -0.1365  1.0301 -0.2756
   57MOL   H23721629   1.830   4.191   1.389  2.8933 -1.7304  0.6041
   57MOL   H23821630   1.972   4.417   1.522 -0.4912 -0.0003 -0.7890
   57MOL   H23921631   1.751   4.435   1.594 -1.5068  0.0909  2.8543
   57MOL   H24021632   1.707   4.272   1.576  0.4673 -1.1125  0.7660
   57MOL   H24121633   1.830   4.392   1.826 -2.5266  1.2731 -1.2070
   57MOL   H24221634   1.792   4.227   1.807  0.5822 -0.7656  0.2571
   57MOL   H24321635   2.022   4.206   1.813 -0.0276  0.6583  1.2792
   57MOL   H24421636   2.047   4.368   1.746  1.1605 -0.6457 -0.5514
   57MOL   H24521637   1.958   4.133   1.574 -0.4892 -0.2291  1.0477
   57MOL   H24621638   2.105   4.234   1.565 -0.5213  2.5127 -0.6355
   57MOL   H24721639   2.072   4.195   1.347 -1.3510 -0.1770 -0.1727
   57MOL   H24821640   2.065   4.348   1.273  0.7637  0.7224  1.5365
   57MOL   C24921641   1.980   4.191   1.147 -0.5750  0.0001 -0.3697
   57MOL   C25021642   1.976   4.035   1.170  0.3401 -0.2394 -0.0872
   57MOL   C25121643   2.108   3.963   1.174  0.2484 -0.1468 -0.2393
   57MOL   C25221644   2.073   3.815   1.168  0.1961 -0.2051  0.0779
   57MOL   C25321645   1.959   3.811   1.076 -0.5129  0.6466  0.6209
   57MOL   C25421646   1.902   3.949   1.065 -0.3641  0.4240  0.5709
   57MOL   C25521647   2.072   4.225   1.032  0.0520  0.0098 -0.1593
   57MOL   H25621648   1.885   4.233   1.112  0.0052  2.1777  0.6493
   57MOL   H25721649   1.934   4.014   1.269  2.6575 -0.8714  0.7935
   57MOL   H25821650   2.174   3.980   1.258  0.9545 -1.2849 -0.5440
   57MOL   H25921651   2.153   3.986   1.077 -0.7397 -1.1910 -0.9750
   57MOL   H26021652   2.039   3.795   1.270  0.6620  2.5434  0.8021
   57MOL   H26121653   2.156   3.749   1.142  0.4214  1.1353 -2.7817
   57MOL   H26221654   1.890   3.744   1.127 -0.2104  0.7015  1.1057
   57MOL   H26321655   1.987   3.756   0.985  0.5838  3.6158 -0.9057
   57MOL   H26421656   1.799   3.956   1.100 -0.5875  0.8307 -0.1567
   57MOL   H26521657   1.909   3.987   0.963  0.3544  0.1310  0.5013
   57MOL   H26621658   2.169   4.200   1.074 -0.6037 -2.4239 -0.0197
   57MOL   H26721659   2.065   4.155   0.948  0.7018 -2.0213  1.4481
   57MOL   C26821660   2.068   4.376   0.978 -0.1013 -0.5326 -0.3960
   57MOL   C26921661   2.005   4.382   0.841 -0.3985  0.4770  0.2668
   57MOL   C27021662   1.958   4.522   0.808  0.0124 -0.7012 -0.4534
   57MOL   C27121663   1.829   4.519   0.728 -0.2380 -0.1590 -1.1686
   57MOL   C27221664   1.785   4.380   0.714  0.5452 -0.4344  0.4580
   57MOL   C27321665   1.868   4.303   0.815 -0.8825  0.8702  0.4213
   57MOL   C27421666   2.207   4.450   0.993 -0.2306 -0.3603  0.7959
   57MOL   H27521667   1.999   4.428   1.045  1.3523  2.4107 -1.1108
   57MOL   H27621668   2.071   4.347   0.762  0.6542  2.7327  0.1088
   57MOL   H27721669   1.951   4.583   0.899  0.8841 -3.3403  1.4418
   57MOL   H27821670   2.043   4.569   0.758 -0.9236  3.9017  1.9164
   57MOL   H27921671   1.742   4.567   0.771 -0.5346 -3.1880  1.8326
   57MOL   H28021672   1.841   4.575   0.635  0.5251  2.6361  0.5312
   57MOL   H28121673   1.789   4.341   0.612 -0.8533  0.5358  0.0236
   57MOL   H28221674   1.677   4.376   0.728  0.5000 -0.9495 -0.0187
   57MOL   H28321675   1.877   4.203   0.772 -0.4663  1.6484 -1.3165
   57MOL   H28421676   1.817   4.297   0.911 -0.6038  0.2743  0.5332
   57MOL   H28521677   2.201   4.480   1.098 -2.1902  1.2400  0.2603
   57MOL   H28621678   2.201   4.550   0.952 -1.4148 -0.4782  0.6560
   57MOL   C28721679   2.333   4.376   0.929 -0.5368  0.1968 -0.2445
   57MOL   C28821680   2.364   4.401   0.783 -0.0867  0.0238  0.4016
   57MOL   C28921681   2.409   4.547   0.746  0.6075 -0.5013 -0.3504
   57MOL   C29021682   2.442   4.526   0.597  0.1743  0.3415 -0.3059
   57MOL   C29121683   2.495   4.381   0.583  0.2937  0.1914  0.2720
   57MOL   C29221684   2.452   4.301   0.707 -0.8111  0.5132  0.0146
   57MOL   C29321685   2.459   4.420   1.018  0.3008  0.2752  0.1795
   57MOL   H29421686   2.317   4.269   0.941 -0.5185  0.3158  0.8520
   57MOL   H29521687   2.264   4.391   0.739  0.5680 -0.5051 -0.9821
   57MOL   H29621688   2.323   4.613   0.755  1.4137  0.1594  3.9344
   57MOL   H29721689   2.487   4.586   0.813  2.1061 -2.7374 -0.7437
   57MOL   H29821690   2.358   4.541   0.530  0.0984  0.7276 -0.1268
   57MOL   H29921691   2.518   4.597   0.566  1.7736 -1.8664 -1.6252
   57MOL   H30021692   2.604   4.383   0.585  0.2923  0.2728  0.2894
   57MOL   H30121693   2.464   4.326   0.494 -1.5951  1.7027 -0.0436
   57MOL   H30221694   2.529   4.263   0.774 -0.2940 -0.0744 -0.9029
   57MOL   H30321695   2.385   4.218   0.685  1.6832 -1.3631 -0.6786
   57MOL   H30421696   2.464   4.529   1.019  0.4369  0.2670  1.0626
   57MOL   H30521697   2.554   4.386   0.975  0.4210  0.0516  0.6108
   57MOL   C30621698   2.464   4.364   1.160 -0.7991 -0.1955 -0.7929
   57MOL   C30721699   2.485   4.213   1.163  0.1307 -0.0061  0.6597
   57MOL   C30821700   2.622   4.143   1.148  0.1318 -0.0836 -0.0178
   57MOL   C30921701   2.608   3.998   1.208 -0.5317 -0.4890 -0.4600
   57MOL   C31021702   2.458   3.994   1.246 -0.4734 -0.1240 -0.2614
   57MOL   C31121703   2.428   4.141   1.278  0.0534 -0.2763 -0.4374
   57MOL   C31221704   2.567   4.427   1.253  0.1332  0.6779 -0.1324
   57MOL   H31321705   2.369   4.378   1.212  0.4036  2.0260  0.9203
   57MOL   H31421706   2.434   4.173   1.075 -1.2101  1.8565  0.5811
   57MOL   H31521707   2.710   4.188   1.196 -0.0767  0.7032 -0.3541
   57MOL   H31621708   2.654   4.144   1.044  1.1690 -0.6911  0.2834
   57MOL   H31721709   2.637   3.917   1.141  0.2917 -0.7546  0.2061
   57MOL   H31821710   2.659   3.987   1.303 -0.5843 -0.0764 -0.3838
   57MOL   H31921711   2.430   3.927   1.328 -0.6628 -0.1334 -0.3337
   57MOL   H32021712   2.389   3.968   1.166 -0.2456 -0.9347 -0.1981
   57MOL   H32121713   2.320   4.159   1.279 -0.5130 -3.4417  0.0968
   57MOL   H32221714   2.466   4.169   1.376 -2.3043 -1.5366  0.8940
   57MOL   H32321715   2.662   4.411   1.202  1.7279  0.6350  2.6931
   57MOL   H32421716   2.573   4.358   1.338 -0.9371 -0.4598 -0.9745
   57MOL   C32521717   2.550   4.579   1.301  0.0146  0.0858  0.7148
   57MOL   C32621718   2.675   4.632   1.377 -0.3532 -0.3870  0.1129
   57MOL   C32721719   2.795   4.657   1.289  0.4431  0.4433  0.1773
   57MOL   C32821720   2.905   4.562   1.354 -0.7767  0.0070  0.0191
   57MOL   C32921721   2.872   4.568   1.506  0.1708  0.1125 -0.3581
   57MOL   C33021722   2.727   4.542   1.494  0.4721 -0.1101  0.6922
   57MOL   C33121723   2.423   4.590   1.395  0.4721  0.2893 -0.5137
   57MOL   H33221724   2.524   4.643   1.217 -0.2066  2.5183  2.5720
   57MOL   H33321725   2.660   4.728   1.427  0.6367 -0.6418  0.9125
   57MOL   H33421726   2.832   4.760   1.293  2.0991 -0.0991 -0.5294
   57MOL   H33521727   2.788   4.631   1.183 -3.1033 -2.2197  1.0176
   57MOL   H33621728   3.008   4.595   1.337 -1.8163  2.2164 -2.4653
   57MOL   H33721729   2.905   4.460   1.315 -1.7707  0.1961 -0.5073
   57MOL   H33821730   2.886   4.671   1.539 -0.6278  0.6145 -1.5399
   57MOL   H33921731   2.926   4.490   1.560 -0.4778 -0.9657 -1.2315
   57MOL   H34021732   2.682   4.558   1.593 -0.6440  0.4908  0.0968
   57MOL   H34121733   2.706   4.437   1.472 -1.2889  0.8695 -2.4668
   57MOL   H34221734   2.453   4.539   1.487  0.5406 -0.3382 -0.8795
   57MOL   H34321735   2.340   4.533   1.353 -0.1099  0.7201  0.0453
   57MOL   C34421736   2.367   4.736   1.434  0.9331 -0.0009  0.0326
   57MOL   C34521737   2.269   4.720   1.562 -0.4241  0.6227 -0.6690
   57MOL   C34621738   2.139   4.651   1.512 -0.4959 -0.0269  0.9175
   57MOL   C34721739   2.040   4.678   1.619  0.3213  0.5309 -0.0204
   57MOL   C34821740   2.114   4.782   1.713  0.5162 -0.0248 -0.0345
   57MOL   C34921741   2.233   4.836   1.641  0.1159  0.2743 -0.0406
   57MOL   C35021742   2.304   4.795   1.294  0.0859  0.2545  0.4545
   57MOL   H35121743   2.449   4.800   1.465  1.4512  0.0217 -1.3550
   57MOL   H35221744   2.306   4.648   1.635 -2.3082 -1.2568 -1.4948
   57MOL   H35321745   2.149   4.543   1.510 -1.7661 -0.1701  1.3860
   57MOL   H35421746   2.090   4.685   1.421 -1.0371  0.0763  1.2448
   57MOL   H35521747   1.950   4.730   1.586 -1.3064 -0.8253  2.1197
   57MOL   H35621748   2.003   4.596   1.681  0.8917  0.2552 -0.0456
   57MOL   H35721749   2.135   4.734   1.808 -2.2766 -1.0576  0.1001
   57MOL   H35821750   2.052   4.861   1.756 -1.1293 -0.5233 -1.4074
   57MOL   H35921751   2.200   4.926   1.589 -0.3199  0.6061  0.7952
   57MOL   H36021752   2.319   4.864   1.702 -0.1969  0.2266  0.4251
   57MOL   H36121753   2.196   4.809   1.302 -0.1847 -0.6118 -1.4514
   57MOL   H36221754   2.316   4.721   1.215  0.2371 -0.8405  1.4956
   57MOL   C36321755   2.365   4.933   1.242 -0.6317 -0.0694  0.0845
   57MOL   C36421756   2.293   4.976   1.110 -0.4333  0.4620 -0.4585
   57MOL   C36521757   2.300   4.879   0.993 -0.3681 -0.8581 -0.2296
   57MOL   C36621758   2.311   4.966   0.868 -0.0488 -0.6903 -0.2296
   57MOL   C36721759   2.300   5.111   0.917  0.8906 -0.2162 -0.2367
   57MOL   C36821760   2.355   5.104   1.055  0.2705 -0.1677  0.2252
   57MOL   C36921761   2.354   5.037   1.353  0.3144  0.3259  0.0236
   57MOL   H37021762   2.473   4.926   1.228 -0.5158 -2.6630  2.0484
   57MOL   H37121763   2.185   4.991   1.120 -0.7856 -1.1608 -1.6354
   57MOL   H37221764   2.388   4.819   1.016 -0.7168 -0.1578  3.2896
   57MOL   H37321765   2.219   4.807   0.988 -0.3841 -1.1263  3.0087
   57MOL   H37421766   2.407   4.959   0.817 -0.0048  2.1796 -0.6312
   57MOL   H37521767   2.243   4.943   0.785  1.5137  1.7450 -2.2577
   57MOL   H37621768   2.364   5.174   0.856 -1.0634  0.4929 -1.6145
   57MOL   H37721769   2.203   5.156   0.897 -0.5765 -2.4192  1.6665
   57MOL   H37821770   2.328   5.195   1.110 -1.9091 -1.1325  0.8272
   57MOL   H37921771   2.463   5.102   1.041  0.3136 -2.3503  0.7767
   57MOL   H38021772   2.389   5.135   1.322 -0.6119  0.8892  0.7428
   57MOL   H38121773   2.422   5.014   1.435 -0.8002 -2.0094  0.3246
   57MOL   H38221774   2.253   5.051   1.391  1.2621  0.5778  2.5112
   58MOL     C121775   7.253   0.843   7.677  0.6535 -0.3111  0.2671
   58MOL     C221776   7.293   0.993   7.628  0.1914 -0.2886 -0.0067
   58MOL     C321777   7.223   1.117   7.683 -1.0843  1.1294 -0.4900
   58MOL     C421778   7.292   1.226   7.590 -0.8078  0.1159 -0.0336
   58MOL     C521779   7.333   1.165   7.463  0.3726 -0.7645 -0.4670
   58MOL     C621780   7.301   1.022   7.480 -0.2728  0.6261  0.0089
   58MOL     C721781   7.366   0.740   7.651 -0.1264 -0.5227 -0.4851
   58MOL     H821782   7.233   0.857   0.093 -1.7555  1.4304 -0.3933
   58MOL     H921783   7.394   1.004   7.669 -1.0457  1.7989  2.5891
   58MOL    H1021784   7.116   1.123   7.667 -1.0895 -0.7353 -1.1720
   58MOL    H1121785   7.233   1.141   0.100  3.2171 -1.5344 -0.1620
   58MOL    H1221786   7.228   1.314   7.579 -0.1605  0.6223  0.2479
   58MOL    H1321787   7.381   1.264   7.639 -0.6120  0.0972 -0.3744
   58MOL    H1421788   7.281   1.219   7.385 -1.0199  0.4105  1.2382
   58MOL    H1521789   7.442   1.160   7.462  0.3243 -3.6090  1.3336
   58MOL    H1621790   7.389   0.971   7.440 -1.5459 -3.0726  1.7223
   58MOL    H1721791   7.207   0.989   7.437  0.5863 -0.2745 -1.2083
   58MOL    H1821792   7.389   0.762   7.547  3.0265  0.0310  0.2938
   58MOL    H1921793   7.454   0.767   0.019  0.0203  0.1584 -1.0151
   58MOL    H2021794   7.159   0.831   7.624  1.6600  1.1864 -1.9416
   58MOL    C2121795   7.323   0.587   7.649 -0.0128 -0.3038  0.2337
   58MOL    C2221796   7.308   0.526   7.510 -0.1473 -0.3391 -0.3172
   58MOL    C2321797   7.439   0.488   7.442 -0.1166 -0.6839 -0.4010
   58MOL    C2421798   7.396   0.460   7.297  0.0991  0.2037 -0.1884
   58MOL    C2521799   7.282   0.561   7.269 -0.2207  0.3653 -0.7224
   58MOL    C2621800   7.231   0.603   7.403  0.2276 -0.0279  0.2061
   58MOL    C2721801   7.409   0.496   0.052 -0.3680  0.7908 -0.9988
   58MOL    H2821802   7.221   0.593   7.687  0.7063 -2.2782  2.6591
   58MOL    H2921803   7.260   0.429   7.528 -0.6290  0.1035  0.8108
   58MOL    H3021804   7.485   0.400   7.486  1.2158  0.0071 -0.3617
   58MOL    H3121805   7.515   0.566   7.433 -2.6817  2.0270  0.9081
   58MOL    H3221806   7.477   0.479   7.227  0.3789  2.7432  0.7896
   58MOL    H3321807   7.348   0.363   7.282 -2.6039  1.2570  1.1395
   58MOL    H3421808   7.202   0.501   7.225  0.0040 -1.1056  0.7814
   58MOL    H3521809   7.297   0.635   7.191  0.1214 -1.2532 -2.2368
   58MOL    H3621810   7.124   0.584   7.416 -0.1785  1.8523 -0.1929
   58MOL    H3721811   7.250   0.710   7.397 -0.2982  0.0384 -0.3279
   58MOL    H3821812   7.386   0.390   0.039 -2.9583  1.1767  0.1139
   58MOL    H3921813   7.509   0.515   0.011 -0.2721 -0.0270 -1.1597
   58MOL    C4021814   7.398   0.532   0.204  0.1404 -0.7325  0.1459
   58MOL    C4121815   7.357   0.410   0.296 -0.0174  0.1954  0.2793
   58MOL    C4221816   7.222   0.348   0.259 -1.3280 -0.3497 -0.2916
   58MOL    C4321817   7.185   0.262   0.383 -0.4924 -0.4527 -1.1885
   58MOL    C4421818   7.237   0.343   0.503 -0.2695 -0.5318  0.1489
   58MOL    C4521819   7.327   0.449   0.441  0.0986  0.1596  0.3661
   58MOL    C4621820   7.528   0.610   0.259  0.0257 -0.2818 -0.2208
   58MOL    H4721821   7.318   0.606   0.208  1.8039  1.1172  0.0932
   58MOL    H4821822   7.441   0.341   0.289  0.2056  0.5693 -0.9531
   58MOL    H4921823   7.238   0.277   0.177 -1.0006  1.1290 -1.5315
   58MOL    H5021824   7.146   0.424   0.245  0.7596  1.5654 -1.5695
   58MOL    H5121825   7.245   0.170   0.387 -1.9913 -1.4049 -0.2689
   58MOL    H5221826   7.083   0.229   0.402 -0.3725  0.8506  1.9461
   58MOL    H5321827   7.150   0.382   0.556 -1.6236 -1.9349 -1.0155
   58MOL    H5421828   7.296   0.282   0.571 -1.0021 -2.1376 -0.6259
   58MOL    H5521829   7.291   0.551   0.451  3.2747  1.4218 -0.5462
   58MOL    H5621830   7.419   0.457   0.498  0.2463 -1.8651  0.4643
   58MOL    H5721831   7.497   0.712   0.280  1.0109 -0.1362  0.5493
   58MOL    H5821832   7.543   0.570   0.360  0.3300 -0.7186 -0.4389
   58MOL    C5921833   7.672   0.585   0.196  0.5786 -0.3521 -0.4415
   58MOL    C6021834   0.095   0.668   0.261 -0.8456 -0.2869  0.0116
   58MOL    C6121835   0.118   0.644   0.409  0.5153  0.0479  0.0811
   58MOL    C6221836   0.203   0.762   0.451 -0.1745 -0.0501 -0.5312
   58MOL    C6321837   0.163   0.877   0.361 -0.4869  0.6622 -0.1272
   58MOL    C6421838   0.082   0.818   0.249 -0.2015 -0.6468 -0.1057
   58MOL    C6521839   0.022   0.435   0.184 -0.2217 -0.3191  0.4298
   58MOL    H6621840   7.659   0.634   0.099  0.1177 -0.5492 -0.4838
   58MOL    H6721841   0.192   0.649   0.217 -0.6322  0.3331  0.1994
   58MOL    H6821842   0.148   0.546   0.447 -1.2515  0.9307  3.9412
   58MOL    H6921843   0.028   0.657   0.468  1.8164  0.0554  2.1362
   58MOL    H7021844   0.310   0.746   0.434  0.0516  1.2496 -0.4092
   58MOL    H7121845   0.202   0.781   0.559  0.4844 -1.9957 -0.1543
   58MOL    H7221846   0.247   0.928   0.314 -0.1640  0.0264 -0.2402
   58MOL    H7321847   0.104   0.949   0.418 -0.5535 -0.0977  0.7793
   58MOL    H7421848   7.667   0.846   0.255 -0.1443 -0.8670  2.3919
   58MOL    H7521849   0.118   0.857   0.153 -2.4371  0.0926 -0.6725
   58MOL    H7621850   7.633   0.375   0.137 -0.8558  0.8552 -0.0415
   58MOL    H7721851   0.018   0.391   0.284 -0.3832 -2.6502 -0.5802
   58MOL    C7821852   0.148   0.396   0.100  1.2502 -0.2399 -0.1747
   58MOL    C7921853   0.192   0.250   0.126  0.0587  0.3694  0.0086
   58MOL    C8021854   0.231   0.214   0.268  0.2974 -1.1353 -0.2274
   58MOL    C8121855   0.337   0.106   0.259 -0.3204  0.1043 -0.3165
   58MOL    C8221856   0.366   0.075   0.108  0.6834  0.1003 -0.3159
   58MOL    C8321857   0.314   0.197   0.044  0.6060 -0.1463  0.0795
   58MOL    C8421858   0.122   0.428   7.641  0.3823 -0.2174  0.7208
   58MOL    H8521859   0.227   0.464   0.131  0.3928  1.1230 -0.9396
   58MOL    H8621860   0.107   0.188   0.096  0.3437 -0.7408  1.4412
   58MOL    H8721861   0.138   0.178   0.310  0.1779  1.0360  1.4522
   58MOL    H8821862   0.266   0.302   0.322 -0.7645 -0.7892 -0.0873
   58MOL    H8921863   0.309   0.010   0.304 -1.5399  1.0270  0.9794
   58MOL    H9021864   0.420   0.138   0.322  0.6167  0.3010 -1.6493
   58MOL    H9121865   0.474   0.071   0.096  0.7546 -1.8578  0.7810
   58MOL    H9221866   0.314   7.674   0.081 -0.2450 -0.2110  2.3569
   58MOL    H9321867   0.390   0.274   0.031  1.5109 -0.9921  0.3112
   58MOL    H9421868   0.281   0.179   7.631 -1.4764 -1.5612  0.9564
   58MOL    H9521869   0.037   0.495   7.631 -0.0060 -0.2571  3.4740
   58MOL    H9621870   0.093   0.334   7.593 -1.7157  1.1707 -0.8153
   58MOL    C9721871   0.239   0.482   7.552 -0.0904 -0.3287  0.4554
   58MOL    C9821872   0.289   0.627   7.595 -0.2689  0.9243  0.2478
   58MOL    C9921873   0.430   0.683   7.543 -0.1806  0.3867 -0.2530
   58MOL   C10021874   0.425   0.831   7.565  0.1226 -0.3201 -0.4900
   58MOL   C10121875   0.279   0.867   7.553  0.0120  0.3002  0.1636
   58MOL   C10221876   0.196   0.741   7.560 -0.3094 -0.7468 -0.3483
   58MOL   C10321877   0.203   0.459   7.403 -0.8030 -0.7987  0.4726
   58MOL   H10421878   0.322   0.416   7.576  1.1676  0.3632 -1.8666
   58MOL   H10521879   0.283   0.631   0.014 -1.4426  1.9121  0.1541
   58MOL   H10621880   0.519   0.648   7.595 -0.8686 -0.7765  0.1570
   58MOL   H10721881   0.447   0.666   7.436 -1.3816  2.3382 -0.7639
   58MOL   H10821882   0.500   0.875   7.499  2.3868 -2.5613  0.5152
   58MOL   H10921883   0.457   0.856   7.666  1.1227 -1.6287 -0.4604
   58MOL   H11021884   0.277   0.919   7.457 -1.5561  1.0103  0.5674
   58MOL   H11121885   0.249   0.931   7.636  0.6406  0.8552 -0.0378
   58MOL   H11221886   0.117   0.747   7.635 -0.0635  1.0497 -0.2083
   58MOL   H11321887   0.140   0.717   7.471 -2.4307 -1.2891  1.0951
   58MOL   H11421888   0.098   0.479   7.383  0.2305  1.6004 -2.9008
   58MOL   H11521889   0.253   0.541   7.353  1.2656 -1.3397  1.5847
   58MOL   C11621890   0.254   0.326   7.348  0.4385  0.3506  0.2589
   58MOL   C11721891   0.184   0.288   7.213 -0.2135 -0.0376 -1.2003
   58MOL   C11821892   0.031   0.263   7.217  0.6260 -0.1639 -0.6292
   58MOL   C11921893   7.676   0.282   7.073 -0.6352 -0.4210 -1.0266
   58MOL   C12021894   0.089   0.381   7.013 -0.8873  0.6031 -0.5204
   58MOL   C12121895   0.216   0.381   7.096 -0.5107 -0.1474  0.0846
   58MOL   C12221896   0.411   0.328   7.337 -0.4106  0.2284  0.2920
   58MOL   H12321897   0.226   0.245   7.415  0.2182  1.4385  1.4969
   58MOL   H12421898   0.213   0.192   7.170 -2.1196 -0.9352 -0.5374
   58MOL   H12521899   0.019   0.160   7.250 -2.1692  0.6205  0.9862
   58MOL   H12621900   7.668   0.328   7.287 -0.3970  1.8902 -3.2114
   58MOL   H12721901   7.569   0.299   7.070 -0.4838  1.9371  2.9688
   58MOL   H12821902   0.001   0.184   7.028 -2.9763 -1.5544  0.5351
   58MOL   H12921903   0.041   0.479   7.014 -1.5401  0.2821 -0.1731
   58MOL   H13021904   0.100   0.368   6.905  2.8540  0.0321 -0.1284
   58MOL   H13121905   0.301   0.341   7.041 -2.2004  0.2869 -2.9931
   58MOL   H13221906   0.246   0.478   7.136  2.8318 -1.1967  0.2106
   58MOL   H13321907   0.460   0.331   7.434 -0.0506  0.5454  0.1014
   58MOL   H13421908   0.443   0.422   7.293  3.3239 -1.5376 -0.9038
   58MOL   C13521909   0.479   0.216   7.247  0.1616 -0.9517  0.3695
   58MOL   C13621910   0.456   0.068   7.298 -0.1542  0.0639 -0.1756
   58MOL   C13721911   0.514   0.022   7.434  0.4642  0.2883 -0.0479
   58MOL   C13821912   0.559   7.562   7.403  0.9053  0.4329  0.2193
   58MOL   C13921913   0.484   7.521   7.276  0.4372 -0.4751  0.7291
   58MOL   C14021914   0.486   7.650   7.189 -0.6972  0.3761  0.1562
   58MOL   C14121915   0.635   0.247   7.247 -0.5696  0.0703 -0.0942
   58MOL   H14221916   0.431   0.226   7.150  0.9946 -0.4530  0.0083
   58MOL   H14321917   0.349   0.066   7.323 -0.2899 -0.9273 -0.7660
   58MOL   H14421918   0.606   0.071   7.467 -0.5710  1.2948  1.4510
   58MOL   H14521919   0.438   0.038   7.510 -0.4425  0.3368 -0.9659
   58MOL   H14621920   0.546   7.497   7.490 -2.5506 -0.5706 -0.9958
   58MOL   H14721921   0.664   7.551   7.377  0.9232 -1.5755  1.0177
   58MOL   H14821922   0.377   7.502   7.286 -0.1700  0.7271 -2.9258
   58MOL   H14921923   0.522   7.428   7.233  2.1694  0.9524 -0.9415
   58MOL   H15021924   0.585   7.661   7.145 -1.2621 -1.2396 -1.5603
   58MOL   H15121925   0.401   7.656   7.120 -0.0464  2.9219 -0.4675
   58MOL   H15221926   0.693   0.160   7.215  2.0778  1.7947 -0.1386
   58MOL   H15321927   0.676   0.252   7.348  0.2832  1.1984 -0.4899
   58MOL   C15421928   0.678   0.362   7.148  0.8253 -0.1947  0.0582
   58MOL   C15521929   0.776   0.470   7.217  0.0204 -0.0561  0.4274
   58MOL   C15621930   0.729   0.525   7.360 -0.4482  0.6148  0.0721
   58MOL   C15721931   0.739   0.682   7.348  0.7876  0.1552 -0.2543
   58MOL   C15821932   0.851   0.699   7.242  0.6268 -0.0715 -0.2903
   58MOL   C15921933   0.825   0.594   7.135  0.6692  0.3654  0.1751
   58MOL   C16021934   0.741   0.302   7.018  0.5294 -0.5792  0.6474
   58MOL   H16121935   0.585   0.412   7.122  1.1158  0.4412  0.2291
   58MOL   H16221936   0.868   0.416   7.240 -0.3398 -1.0232 -0.3758
   58MOL   H16321937   0.628   0.494   7.386 -0.6893 -0.0420 -1.5989
   58MOL   H16421938   0.804   0.498   7.435  0.8497  1.6176 -0.8272
   58MOL   H16521939   0.648   0.724   7.308 -0.6837 -2.8000 -0.1478
   58MOL   H16621940   0.770   0.722   7.445  1.2587  1.2418 -0.8396
   58MOL   H16721941   0.950   0.675   7.281  1.1352  1.8290 -0.3383
   58MOL   H16821942   0.860   0.799   7.198  1.4052  1.9228  4.1628
   58MOL   H16921943   0.910   0.564   7.073  1.2327 -1.1216  1.6300
   58MOL   H17021944   0.756   0.642   7.066  2.0692 -0.3734 -1.7978
   58MOL   H17121945   0.697   0.204   6.999  0.7013 -0.1672 -2.0421
   58MOL   H17221946   0.844   0.286   7.050  0.2498 -0.0229  1.8613
   58MOL   C17321947   0.735   0.374   6.882  0.3454 -0.5489  0.5353
   58MOL   C17421948   0.587   0.399   6.845 -0.1918  0.1391 -0.0869
   58MOL   C17521949   0.495   0.281   6.814 -0.2250  0.4714  1.0921
   58MOL   C17621950   0.368   0.332   6.740 -0.4128  0.4381 -0.2466
   58MOL   C17721951   0.418   0.464   6.684  0.1466  0.3504  0.5386
   58MOL   C17821952   0.559   0.508   6.735  0.3902 -0.3578 -0.0986
   58MOL   C17921953   0.807   0.285   6.775 -0.3921  0.1460  0.0418
   58MOL   H18021954   0.788   0.469   6.885 -2.3807  1.0537  0.1078
   58MOL   H18121955   0.544   0.454   6.929 -0.7291 -0.1460 -0.1717
   58MOL   H18221956   0.477   0.210   6.894  0.5401 -1.2041 -0.1839
   58MOL   H18321957   0.552   0.214   6.749 -1.5473 -0.8620  1.2556
   58MOL   H18421958   0.315   0.265   6.671  2.3838  1.9387 -4.0458
   58MOL   H18521959   0.304   0.357   6.824  0.3544  0.6920  0.2733
   58MOL   H18621960   0.341   0.538   6.705 -0.8045 -0.0912 -1.2804
   58MOL   H18721961   0.414   0.466   6.575 -0.7652 -0.1478  0.5556
   58MOL   H18821962   0.630   0.498   6.653  0.6961 -0.5618  0.1886
   58MOL   H18921963   0.562   0.614   6.758  1.8088 -0.3597 -0.2015
   58MOL   H19021964   0.774   0.181   6.777 -2.1210  0.6822  0.4699
   58MOL   H19121965   0.781   0.322   6.676 -0.6462 -1.1787 -0.3863
   58MOL   C19221966   0.965   0.306   6.773  0.7062 -0.0786 -0.3897
   58MOL   C19321967   1.013   0.425   6.678 -0.5851 -0.2084  0.5604
   58MOL   C19421968   1.168   0.443   6.693  0.5090 -0.4001 -0.3324
   58MOL   C19521969   1.193   0.597   6.655 -0.1077  0.4137  0.1980
   58MOL   C19621970   1.052   0.669   6.647  0.5091  0.3828 -0.6686
   58MOL   C19721971   0.963   0.566   6.710 -0.3892 -0.1533 -0.4371
   58MOL   C19821972   1.036   0.171   6.747  0.2422  0.8498 -0.5468
   58MOL   H19921973   0.989   0.320   6.878  0.8334 -0.7928 -0.3192
   58MOL   H20021974   0.978   0.406   6.577 -0.8278 -0.5879  0.7133
   58MOL   H20121975   1.227   0.367   6.642 -0.6299 -0.4973 -1.5269
   58MOL   H20221976   1.208   0.433   6.794  1.8273  1.7115 -0.5975
   58MOL   H20321977   1.264   0.643   6.724  0.8235  0.7183 -0.9385
   58MOL   H20421978   1.234   0.610   6.554 -0.2297  0.7909  0.1965
   58MOL   H20521979   1.031   0.683   6.541 -0.8995  0.3443 -0.3970
   58MOL   H20621980   1.042   0.765   6.697  1.5284 -0.3079  0.8968
   58MOL   H20721981   0.857   0.577   6.685 -0.8048 -0.7749  1.0311
   58MOL   H20821982   0.974   0.573   6.818  2.6198 -1.5194 -0.6189
   58MOL   H20921983   0.975   0.129   6.667  0.4625  0.3408 -0.4428
   58MOL   H21021984   1.136   0.172   6.704  1.1426 -0.1927  1.4791
   58MOL   C21121985   1.046   0.082   6.877 -0.2662 -0.4081 -0.3461
   58MOL   C21221986   1.035   7.616   6.855 -0.2326 -0.6219  0.5642
   58MOL   C21321987   0.900   7.568   6.804  0.0894 -0.0795  0.3168
   58MOL   C21421988   0.932   7.427   6.758 -0.2559 -0.1508 -0.5245
   58MOL   C21521989   1.075   7.427   6.706  1.0080  0.3515  0.3666
   58MOL   C21621990   1.130   7.555   6.749 -0.0535 -0.1468  0.2556
   58MOL   C21721991   1.183   0.112   6.945 -0.5853 -0.1869 -0.1937
   58MOL   H21821992   0.969   0.112   6.948  1.1211 -1.4453  1.6288
   58MOL   H21921993   1.055   7.561   6.947  1.8283  0.1381  0.5967
   58MOL   H22021994   0.825   7.560   6.883 -1.1272  1.2404 -0.6552
   58MOL   H22121995   0.867   7.626   6.717  1.0850  1.7386  1.1162
   58MOL   H22221996   0.925   7.372   6.852 -1.2537  0.0541 -0.4731
   58MOL   H22321997   0.859   7.389   6.688 -1.5687  0.5366  0.4534
   58MOL   H22421998   1.067   7.423   6.598  1.7036  2.1814  0.2376
   58MOL   H22521999   1.119   7.344   6.762  0.5774 -0.3698 -0.3576
   58MOL   H22622000   1.237   7.551   6.766 -0.0140  0.9740  0.2909
   58MOL   H22722001   1.135   7.623   6.664 -2.0651  1.8418  1.6521
   58MOL   H22822002   1.200   0.219   6.941 -2.0956  0.0170 -1.3462
   58MOL   H22922003   1.251   0.056   6.881  0.7885  2.3648 -1.0232
   58MOL   C23022004   1.193   0.084   7.091  0.5295  0.2255 -0.6220
   58MOL   C23122005   1.148   0.206   7.179 -0.4245  0.7411 -0.0233
   58MOL   C23222006   1.092   0.175   7.316  0.0807  0.0343  0.1891
   58MOL   C23322007   1.165   0.277   7.413  0.0393 -0.0204  0.1074
   58MOL   C23422008   1.207   0.392   7.321 -0.1063 -0.7829 -0.3036
   58MOL   C23522009   1.258   0.313   7.201  0.4573 -0.5767  0.4636
   58MOL   C23622010   1.328   0.019   7.134  0.1008  0.5811  0.3838
   58MOL   H23722011   1.118   0.007   7.109 -0.1628  0.6179 -1.7671
   58MOL   H23822012   1.067   0.260   7.130  0.6386 -0.1244 -2.8600
   58MOL   H23922013   0.985   0.195   7.314 -0.0679 -0.8187 -1.0024
   58MOL   H24022014   1.104   0.077   7.361  0.1488  0.7840  1.8408
   58MOL   H24122015   1.107   0.319   7.495 -0.4981  0.0083 -0.2920
   58MOL   H24222016   1.256   0.236   7.458  0.6566  2.0356  0.8116
   58MOL   H24322017   1.286   0.443   7.376 -0.8278  1.5358 -1.3263
   58MOL   H24422018   1.132   0.464   7.289  1.5884  0.6710 -1.0770
   58MOL   H24522019   1.347   0.261   7.237  0.8011 -1.0665 -1.0581
   58MOL   H24622020   1.270   0.384   7.119  2.6270  2.7281  3.5207
   58MOL   H24722021   1.345   0.006   7.241  1.0897  1.0430  0.2820
   58MOL   H24822022   1.414   0.080   7.111 -0.6110  0.9189 -1.4179
   58MOL   C24922023   1.356   7.562   7.077 -0.6757  0.9229  0.6344
   58MOL   C25022024   1.315   7.454   7.174 -0.8489  0.1532  0.5767
   58MOL   C25122025   1.288   7.316   7.106  0.3515  0.4725 -0.1877
   58MOL   C25222026   1.215   7.239   7.214 -0.2126 -0.4181 -0.4317
   58MOL   C25322027   1.126   7.340   7.294 -0.0668  0.1975 -0.0216
   58MOL   C25422028   1.196   7.476   7.270  0.4133  0.1363  0.0853
   58MOL   C25522029   1.512   7.539   7.050 -0.6093 -0.6376  0.3926
   58MOL   H25622030   1.304   7.549   6.983  0.1990 -1.6051  0.4637
   58MOL   H25722031   1.398   7.427   7.239  0.8293  0.1857 -1.4887
   58MOL   H25822032   1.381   7.272   7.069  0.1939 -1.4491  1.5892
   58MOL   H25922033   1.215   7.324   7.025 -0.8820 -0.2102  0.8472
   58MOL   H26022034   1.287   7.188   7.278 -0.6567 -0.1732  0.2604
   58MOL   H26122035   1.149   7.172   7.158  1.3280 -0.0744 -2.7434
   58MOL   H26222036   1.116   7.328   7.402  0.1117 -0.4884 -0.0761
   58MOL   H26322037   1.027   7.346   7.249  0.2048  1.0754 -0.5273
   58MOL   H26422038   1.209   7.526   7.366  1.3332 -2.8829  1.6173
   58MOL   H26522039   1.120   7.535   7.219  1.4169  0.3369 -1.1918
   58MOL   H26622040   1.563   7.603   7.122  0.7734  0.3239 -1.4076
   58MOL   H26722041   1.544   7.437   7.073  0.9517  0.5298  3.6831
   58MOL   C26822042   1.569   7.591   6.914 -0.3590  0.0352  0.3103
   58MOL   C26922043   1.720   7.554   6.888  0.2197 -0.2026 -0.0319
   58MOL   C27022044   1.754   7.402   6.881  0.2610  0.4618 -0.7304
   58MOL   C27122045   1.910   7.403   6.903 -0.2316  0.5086  0.1478
   58MOL   C27222046   1.932   7.535   6.988  0.0770 -0.4080  0.3471
   58MOL   C27322047   1.810   7.625   6.982  0.4310 -0.8698 -0.2207
   58MOL   C27422048   1.554   0.056   6.891  0.5519  0.3306  1.0045
   58MOL   H27522049   1.513   7.544   6.833 -1.3597 -0.0568  1.0431
   58MOL   H27622050   1.746   7.593   6.789 -0.2502  3.7389  1.3094
   58MOL   H27722051   1.702   7.347   6.961  0.0808  1.9734  0.2162
   58MOL   H27822052   1.729   7.357   6.785  0.4130  1.1909 -1.1171
   58MOL   H27922053   1.950   7.323   6.965  0.2192 -1.0629 -2.1102
   58MOL   H28022054   1.960   7.410   6.807  0.0112  2.0953  0.3698
   58MOL   H28122055   2.017   7.586   6.942  0.6244  0.1465  1.9343
   58MOL   H28222056   1.957   7.507   7.090  1.2197 -1.5450 -0.2234
   58MOL   H28322057   1.840   0.031   6.939  0.6861 -0.9935 -0.3222
   58MOL   H28422058   1.763   7.644   7.078 -2.5438  0.9281 -1.9782
   58MOL   H28522059   1.598   0.112   6.974  1.9898  1.5282 -0.5376
   58MOL   H28622060   1.446   0.062   6.902 -0.1509 -5.2817 -1.2497
   58MOL   C28722061   1.599   0.121   6.755 -0.0413  0.3956 -0.1717
   58MOL   C28822062   1.542   0.048   6.631  1.0356  0.7177  0.1816
   58MOL   C28922063   1.389   0.056   6.618  0.0043 -0.0846  0.2023
   58MOL   C29022064   1.350   0.117   6.486 -0.9230  0.5190 -0.8660
   58MOL   C29122065   1.472   0.091   6.390  0.0665 -0.2568 -0.0761
   58MOL   C29222066   1.591   0.081   6.484 -0.0256 -0.0466 -0.4214
   58MOL   C29322067   1.563   0.279   6.748  0.3578 -0.3287 -0.2939
   58MOL   H29422068   1.707   0.117   6.738  0.5655  0.5503  3.1304
   58MOL   H29522069   1.575   7.635   6.647 -0.0280  0.3026 -0.2276
   58MOL   H29622070   1.372   7.638   6.611 -0.2255 -0.0133 -0.4128
   58MOL   H29722071   1.338   0.098   6.705 -0.3005  0.6858 -0.3412
   58MOL   H29822072   1.258   0.078   6.444  0.1450 -2.2188 -0.7521
   58MOL   H29922073   1.350   0.226   6.497  0.8599  0.6280 -1.6575
   58MOL   H30022074   1.485   0.170   6.315 -0.9432 -1.7597 -1.8818
   58MOL   H30122075   1.456   0.001   6.331  0.9254  0.7914 -1.9797
   58MOL   H30222076   1.632   0.180   6.503 -0.7999  0.1432  0.3178
   58MOL   H30322077   1.674   0.015   6.458 -0.4416 -2.3632  3.5510
   58MOL   H30422078   1.465   0.303   6.788  0.2930  0.3871 -0.8620
   58MOL   H30522079   1.558   0.302   6.642 -0.3960 -0.6761 -0.3361
   58MOL   C30622080   1.664   0.369   6.825 -0.0696 -0.3741  0.0349
   58MOL   C30722081   1.682   0.502   6.747 -0.0743 -0.2998 -0.1242
   58MOL   C30822082   1.798   0.489   6.648 -0.6275 -0.7955 -0.5594
   58MOL   C30922083   1.747   0.563   6.526 -0.5340 -0.2770 -0.2725
   58MOL   C31022084   1.621   0.639   6.553  0.1424 -0.2734  0.6512
   58MOL   C31122085   1.563   0.572   6.679  0.4012 -0.3498  0.6326
   58MOL   C31222086   1.607   0.397   6.979 -0.9271  0.1015  0.4941
   58MOL   H31322087   1.754   0.308   6.834  0.8819  1.0229  0.2675
   58MOL   H31422088   1.713   0.573   6.824  0.0709  0.0225 -0.4764
   58MOL   H31522089   1.822   0.387   6.620  0.4600 -0.4464 -0.9490
   58MOL   H31622090   1.895   0.524   6.683 -0.5768 -0.9801 -0.5176
   58MOL   H31722091   1.821   0.636   6.495  0.7401 -1.1253  0.7282
   58MOL   H31822092   1.741   0.495   6.441 -1.3688 -0.3202 -0.1870
   58MOL   H31922093   1.555   0.639   6.466 -1.0286  0.5337  1.5286
   58MOL   H32022094   1.647   0.743   6.578 -2.1311  0.6535 -0.7401
   58MOL   H32122095   1.509   0.636   6.749 -0.3611  1.2335 -1.3444
   58MOL   H32222096   1.492   0.497   6.643  0.4262 -0.2013  0.2714
   58MOL   H32322097   1.588   0.301   7.026  1.0900 -1.2763 -1.3897
   58MOL   H32422098   1.509   0.443   6.967 -0.1816  1.3268 -1.0595
   58MOL   C32522099   1.686   0.482   7.077  0.0370  0.2473 -0.1279
   58MOL   C32622100   1.840   0.449   7.063  0.0201 -0.3603 -0.0006
   58MOL   C32722101   1.880   0.306   7.099  0.0735  0.3625  0.5726
   58MOL   C32822102   2.029   0.303   7.104 -1.1527  0.1075 -0.1730
   58MOL   C32922103   2.066   0.444   7.152  0.0912  0.4121  0.0529
   58MOL   C33022104   1.936   0.532   7.143  0.5914 -0.2634  0.8523
   58MOL   C33122105   1.639   0.481   7.221 -0.8085 -0.6902 -0.3504
   58MOL   H33222106   1.680   0.585   7.042 -2.9107 -0.0895 -0.7184
   58MOL   H33322107   1.872   0.475   6.962 -0.1515 -2.1562 -0.5218
   58MOL   H33422108   1.843   0.241   7.020  1.3672 -0.5284  0.6965
   58MOL   H33522109   1.839   0.263   7.191  1.1342 -0.9909  0.4168
   58MOL   H33622110   2.092   0.273   7.020 -1.1098 -2.0017  0.5754
   58MOL   H33722111   2.051   0.222   7.173 -0.7899  0.2750 -0.0930
   58MOL   H33822112   2.150   0.483   7.093  1.5146 -1.5408  0.7168
   58MOL   H33922113   2.103   0.440   7.255 -0.3797 -0.5796  0.1872
   58MOL   H34022114   1.957   0.633   7.107 -1.2869  0.1539  0.8775
   58MOL   H34122115   1.905   0.546   7.247 -0.3962 -0.0704  0.5399
   58MOL   H34222116   1.697   0.415   7.286 -3.1161 -0.6010  1.9064
   58MOL   H34322117   1.539   0.443   7.239 -1.4586  1.6186  1.2033
   58MOL   C34422118   1.632   0.620   7.299 -0.2856  0.0174 -0.2532
   58MOL   C34522119   1.635   0.596   7.457  0.5572  0.1598  0.4419
   58MOL   C34622120   1.621   0.736   7.530 -0.2385  0.4289 -0.0548
   58MOL   C34722121   1.722   0.725   7.646  0.0532 -1.2934 -0.1886
   58MOL   C34822122   1.772   0.585   7.656  0.1089 -0.1720 -0.4588
   58MOL   C34922123   1.766   0.544   7.510 -0.3606 -0.2037  0.1344
   58MOL   C35022124   1.498   0.704   7.255  0.7994  0.2775 -0.8438
   58MOL   H35122125   1.710   0.692   7.274 -3.0136  2.6699 -1.4709
   58MOL   H35222126   1.549   0.538   7.490  1.8410 -0.7021  2.3707
   58MOL   H35322127   1.521   0.747   7.570 -0.7728 -1.8701 -0.6909
   58MOL   H35422128   1.642   0.818   7.461 -0.2552 -0.5178 -1.1895
   58MOL   H35522129   1.811   0.787   7.634 -1.3147  0.6478 -0.6849
   58MOL   H35622130   1.679   0.757   0.051 -0.5371 -3.6842  0.3800
   58MOL   H35722131   1.701   0.524   0.022 -0.0849  1.6665  1.3177
   58MOL   H35822132   1.867   0.573   0.017  0.3412 -1.3724 -1.1444
   58MOL   H35922133   1.849   0.599   7.465  0.0132 -0.5558  0.3887
   58MOL   H36022134   1.767   0.437   7.491  3.0728 -0.3818  0.9883
   58MOL   H36122135   1.494   0.792   7.319 -1.8312 -0.7014  0.4142
   58MOL   H36222136   1.414   0.639   7.279 -0.0446  1.7570  0.2650
   58MOL   C36322137   1.476   0.753   7.105  0.6307 -0.3058 -0.5056
   58MOL   C36422138   1.341   0.828   7.085  0.0119 -0.2050  0.0118
   58MOL   C36522139   1.226   0.730   7.073  0.1895 -0.1487 -0.5802
   58MOL   C36622140   1.112   0.814   7.011  0.0074  0.2877 -0.2210
   58MOL   C36722141   1.179   0.929   6.934  0.3481 -0.2257  0.0212
   58MOL   C36822142   1.335   0.907   6.953 -0.4585 -0.4547  0.6741
   58MOL   C36922143   1.590   0.859   7.072 -0.0537 -0.3243  0.1949
   58MOL   H37022144   1.481   0.658   7.052  0.1898 -0.0804 -0.9474
   58MOL   H37122145   1.334   0.897   7.170 -2.5583 -0.0395 -0.2909
   58MOL   H37222146   1.247   0.664   6.989 -0.5899  0.1926 -1.0535
   58MOL   H37322147   1.199   0.675   7.164  0.5972  1.2643  0.4111
   58MOL   H37422148   1.045   0.752   6.951 -0.2541  1.3765 -1.0627
   58MOL   H37522149   1.041   0.856   7.082 -0.7070  0.2160 -0.8885
   58MOL   H37622150   1.140   0.925   6.832 -1.5214  1.2359  0.6403
   58MOL   H37722151   1.134   1.025   6.962 -2.6840 -1.4736 -0.3634
   58MOL   H37822152   1.382   1.005   6.953 -2.9610  0.7851 -0.2588
   58MOL   H37922153   1.379   0.844   6.876  1.7806  1.0636  0.6514
   58MOL   H38022154   1.587   0.957   7.118 -2.3976  0.1844 -0.9783
   58MOL   H38122155   1.604   0.891   6.969  0.4511  0.6696  0.5712
   58MOL   H38222156   1.686   0.814   7.097  1.1877  2.1036 -0.0862
   59MOL     C122157   4.926   7.659   2.210  0.1603  0.6559 -0.5606
   59MOL     C222158   4.975   7.679   2.353  0.7243 -0.1862  0.4315
   59MOL     C322159   5.108   7.622   2.386 -0.2240 -0.5765  0.4700
   59MOL     C422160   5.108   7.609   2.541  0.2923  0.1952 -0.5025
   59MOL     C522161   4.961   7.586   2.578 -0.2087 -0.6091 -0.3169
   59MOL     C622162   4.877   7.627   2.459 -0.0394  0.4046  0.2517
   59MOL     C722163   5.027   0.020   2.103  0.5002 -0.6130  0.0290
   59MOL     H822164   4.926   7.552   2.193  0.8404  0.5917 -0.1527
   59MOL     H922165   4.978   0.096   2.370 -0.3160 -0.3196  1.5354
   59MOL    H1022166   5.127   7.527   2.337 -0.9374 -1.5276  2.0117
   59MOL    H1122167   5.182   0.010   2.365 -0.6205  0.3989  2.5032
   59MOL    H1222168   5.183   7.545   2.587  1.1648  2.6027  1.5983
   59MOL    H1322169   5.127   0.017   2.587 -1.0334 -0.7811  2.2706
   59MOL    H1422170   4.940   7.480   2.591 -0.6670 -0.5810 -0.8065
   59MOL    H1522171   4.934   7.648   2.664  1.1106 -0.0421 -0.2955
   59MOL    H1622172   4.804   0.011   2.493 -0.0984  1.4421 -2.0246
   59MOL    H1722173   4.818   7.542   2.425  2.3243 -1.0852 -0.2617
   59MOL    H1822174   5.053   0.124   2.123  0.9398 -0.1728 -2.6314
   59MOL    H1922175   5.119   7.653   2.117  0.0908 -2.2007 -3.2629
   59MOL    H2022176   4.826   0.012   2.194 -0.4259 -0.1936  0.7457
   59MOL    C2122177   5.001   7.689   1.945 -0.1895 -0.4148  0.4301
   59MOL    C2222178   5.127   0.028   1.858  0.3105  0.1018  0.0123
   59MOL    C2322179   5.235   7.617   1.869  0.4385  0.2832  0.3529
   59MOL    C2422180   5.351   7.689   1.943 -0.8316  0.5357  0.3031
   59MOL    C2522181   5.313   0.143   1.965  0.1524  0.2865  0.5149
   59MOL    C2622182   5.185   0.165   1.885  0.1089  0.3006 -0.0536
   59MOL    C2722183   4.929   7.551   1.912  0.2349 -0.2882 -0.1061
   59MOL    H2822184   4.923   0.075   1.932  0.1968  0.3293  2.2727
   59MOL    H2922185   5.092   0.027   1.755  1.0014  2.8260 -0.2965
   59MOL    H3022186   5.267   7.586   1.770  0.8735  1.0313  0.2589
   59MOL    H3122187   5.215   7.522   1.919  0.3422 -0.2882 -0.7670
   59MOL    H3222188   5.382   7.636   2.032  1.1187 -1.1702 -1.3556
   59MOL    H3322189   5.445   0.000   1.888 -1.4897  1.9971 -0.8476
   59MOL    H3422190   5.397   0.202   1.928  0.1775 -1.9796 -3.3139
   59MOL    H3522191   5.300   0.158   2.072  0.8320  1.6419  0.4182
   59MOL    H3622192   5.220   0.195   1.787  0.8260 -1.4689 -0.3539
   59MOL    H3722193   5.116   0.242   1.921  0.2069  0.3864 -0.0464
   59MOL    H3822194   4.956   7.520   1.811  1.5732 -1.0859  0.4869
   59MOL    H3922195   4.974   7.487   1.988  0.6117 -0.8546 -0.7998
   59MOL    C4022196   4.776   7.554   1.924 -0.4012  0.0586  0.5757
   59MOL    C4122197   4.705   7.607   1.792  0.6542  0.0338 -0.4379
   59MOL    C4222198   4.702   7.505   1.670  0.0660  0.5218  0.5542
   59MOL    C4322199   4.738   7.585   1.547  0.0689  0.1790 -1.1885
   59MOL    C4422200   4.711   0.040   1.578  0.0659 -0.5850 -0.1155
   59MOL    C4522201   4.754   0.048   1.726  0.5446  0.0293 -1.7542
   59MOL    C4622202   4.712   7.419   1.959  0.4651  0.2387 -0.3736
   59MOL    H4722203   4.752   7.629   1.999 -2.6743  0.1695 -0.2311
   59MOL    H4822204   4.600   7.633   1.807  0.3799 -0.3275 -1.6231
   59MOL    H4922205   4.602   7.463   1.679  0.2182 -0.5245 -1.9857
   59MOL    H5022206   4.772   7.421   1.676  0.0284  0.5436  1.3174
   59MOL    H5122207   4.689   7.530   1.467  2.3716  1.0116 -3.2455
   59MOL    H5222208   4.842   7.559   1.524  0.1079 -0.0897 -0.7212
   59MOL    H5322209   4.758   0.119   1.518 -0.6984 -0.5144 -0.6418
   59MOL    H5422210   4.603   0.054   1.571  0.0377 -0.6665  0.1543
   59MOL    H5522211   4.863   0.052   1.727  0.5618 -0.5713 -1.0472
   59MOL    H5622212   4.700   0.126   1.779  0.0683 -3.1266  2.6943
   59MOL    H5722213   4.729   7.353   1.874  2.3664  0.6014 -0.2983
   59MOL    H5822214   4.779   7.379   2.035  2.8555  0.0682 -2.4991
   59MOL    C5922215   4.567   7.428   2.013 -0.4233  0.0060  0.4094
   59MOL    C6022216   4.500   7.290   1.974  0.1591 -0.0574  0.2644
   59MOL    C6122217   4.355   7.294   2.025  0.1118  0.2210  0.1259
   59MOL    C6222218   4.301   7.150   2.029 -0.3452 -0.7093  0.0310
   59MOL    C6322219   4.428   7.075   2.066  0.0505  0.4788 -0.0450
   59MOL    C6422220   4.551   7.161   2.038 -0.3029  0.4625  0.0863
   59MOL    C6522221   4.562   7.464   2.162 -0.2253  0.1543  0.0072
   59MOL    H6622222   4.499   7.497   1.961 -1.3828 -0.8194  0.5515
   59MOL    H6722223   4.491   7.291   1.865  1.9441 -1.9711  0.0801
   59MOL    H6822224   4.288   7.362   1.974 -0.8935  1.3069  2.8184
   59MOL    H6922225   4.353   7.329   2.128 -1.9148 -0.6707  0.4011
   59MOL    H7022226   4.267   7.120   1.930 -0.5688 -0.9502  0.1814
   59MOL    H7122227   4.219   7.128   2.097 -1.1083 -0.8294 -0.9092
   59MOL    H7222228   4.431   6.986   2.003 -0.3066  0.3231  0.1536
   59MOL    H7322229   4.423   7.056   2.173 -0.0264  0.3821 -0.0658
   59MOL    H7422230   4.612   7.173   2.128  1.3153 -0.7776 -0.8184
   59MOL    H7522231   4.619   7.116   1.967 -1.2850  0.1721 -0.6847
   59MOL    H7622232   4.660   7.499   2.196  0.6246 -0.5243 -1.7047
   59MOL    H7722233   4.552   7.370   2.216 -1.2862  0.7253  0.8348
   59MOL    C7822234   4.459   7.574   2.206 -0.2451  0.1132  0.6324
   59MOL    C7922235   4.415   7.551   2.354  0.3793  0.3837  0.1381
   59MOL    C8022236   4.528   7.511   2.451  0.6532 -0.0836  0.2665
   59MOL    C8122237   4.450   7.489   2.578 -0.6166  0.1764 -0.1326
   59MOL    C8222238   4.318   7.429   2.537  0.5469  0.8225 -0.3107
   59MOL    C8322239   4.312   7.438   2.384  1.4081  0.7028  0.1921
   59MOL    C8422240   4.502   0.023   2.155  0.2164 -0.4734 -0.0040
   59MOL    H8522241   4.370   7.546   2.149 -1.1919 -0.3810  2.2874
   59MOL    H8622242   4.379   7.644   2.398  1.9963  0.6848  0.8554
   59MOL    H8722243   4.606   7.587   2.456 -1.1609  1.7656  1.1779
   59MOL    H8822244   4.576   7.418   2.419 -0.6720 -1.5593  2.3535
   59MOL    H8922245   4.439   7.576   2.643 -1.4256  0.1694 -0.2629
   59MOL    H9022246   4.508   7.409   2.626 -0.9834  0.5706  0.9872
   59MOL    H9122247   4.305   7.327   2.574  1.4198  0.4038 -1.1150
   59MOL    H9222248   4.237   7.487   2.580  1.5861  1.3099  1.0318
   59MOL    H9322249   4.346   7.342   2.346  0.0388 -0.8764  2.7497
   59MOL    H9422250   4.208   7.464   2.362  0.9350  1.5538  3.1517
   59MOL    H9522251   4.514   0.015   2.047  1.1098  0.4987  0.0086
   59MOL    H9622252   4.603   0.053   2.183  0.5376 -1.6025  0.0428
   59MOL    C9722253   4.405   0.151   2.177 -0.1295 -0.4744 -0.3623
   59MOL    C9822254   4.268   0.145   2.099  0.2210 -0.4975 -0.1006
   59MOL    C9922255   4.170   0.038   2.159 -0.0135 -0.0804  0.0736
   59MOL   C10022256   4.034   0.114   2.172  0.2361  0.5199 -0.3376
   59MOL   C10122257   4.049   0.228   2.071 -0.5175 -0.1470  0.4967
   59MOL   C10222258   4.188   0.281   2.098  0.7834 -0.2409 -0.2096
   59MOL   C10322259   4.493   0.272   2.134  0.3395  0.2038 -0.2444
   59MOL   H10422260   4.393   0.172   2.283  1.1734  1.2812 -0.5399
   59MOL   H10522261   4.298   0.121   1.997  0.0689  0.5237 -0.3915
   59MOL   H10622262   4.151   7.637   2.101  1.1731 -1.7255  2.1983
   59MOL   H10722263   4.205   0.002   2.255  1.1618  1.9766  0.4518
   59MOL   H10822264   4.018   0.142   2.276 -2.1887 -0.6395 -0.3534
   59MOL   H10922265   3.955   0.041   2.152  2.4000 -1.3763 -2.0911
   59MOL   H11022266   3.976   0.309   2.079  0.1899  0.7502 -1.7953
   59MOL   H11122267   4.048   0.192   1.968  0.3033  2.4766 -0.4743
   59MOL   H11222268   4.234   0.347   2.024 -1.0242 -0.5815 -1.6646
   59MOL   H11322269   4.204   0.315   2.200  2.2807 -0.7835 -0.2403
   59MOL   H11422270   4.530   0.241   2.036 -0.0789 -1.8861  0.2300
   59MOL   H11522271   4.421   0.354   2.132  1.5433  1.4056  2.8703
   59MOL   C11622272   4.611   0.322   2.220  0.1022  0.4935 -0.4332
   59MOL   C11722273   4.715   0.392   2.121  0.8122  0.5374  0.3855
   59MOL   C11822274   4.784   0.293   2.030 -0.4926  0.6376 -0.4124
   59MOL   C11922275   4.849   0.385   1.924  0.1638 -0.1259 -0.2034
   59MOL   C12022276   4.765   0.516   1.920 -0.8584  0.2809  0.0943
   59MOL   C12122277   4.662   0.505   2.035 -0.5146  0.1732 -0.3800
   59MOL   C12222278   4.571   0.408   2.341 -0.3746 -0.3245 -0.2304
   59MOL   H12322279   4.667   0.234   2.253  1.1293  0.0493 -3.2336
   59MOL   H12422280   4.797   0.439   2.175  1.2552  1.5100 -1.1022
   59MOL   H12522281   4.860   0.233   2.081 -0.7865  1.9446  1.6062
   59MOL   H12622282   4.723   0.215   1.986  0.2307 -0.9618  1.3535
   59MOL   H12722283   4.850   0.338   1.825 -0.3561 -0.1011 -0.2226
   59MOL   H12822284   4.943   0.413   1.971  0.9302  0.5293 -2.0550
   59MOL   H12922285   4.709   0.538   1.829 -0.6372 -0.0105 -0.1146
   59MOL   H13022286   4.836   0.599   1.925 -1.8156  1.0838  0.3827
   59MOL   H13122287   4.666   0.598   2.092  2.0640 -0.4942  0.6001
   59MOL   H13222288   4.564   0.494   1.989 -0.0895 -0.2900 -1.2003
   59MOL   H13322289   4.489   0.353   2.387  0.7959 -1.4321  0.5525
   59MOL   H13422290   4.522   0.505   2.325  1.3902  1.3429  3.7656
   59MOL   C13522291   4.685   0.429   2.450 -0.1233 -0.6643  0.2759
   59MOL   C13622292   4.738   0.302   2.523  0.3233  0.3172  0.2452
   59MOL   C13722293   4.632   0.236   2.623 -0.4517  0.1783 -0.9734
   59MOL   C13822294   4.676   0.280   2.760 -0.1969  0.0502  0.1512
   59MOL   C13922295   4.830   0.287   2.750 -0.4081  0.8527  0.3380
   59MOL   C14022296   4.866   0.322   2.606  0.0064  0.4964 -0.4502
   59MOL   C14122297   4.645   0.542   2.545 -0.2382 -0.0300  0.1734
   59MOL   H14222298   4.772   0.459   2.392 -1.9710  2.4080 -1.0120
   59MOL   H14322299   4.766   0.229   2.448 -2.9219 -1.4981  0.6840
   59MOL   H14422300   4.529   0.263   2.601 -0.1063  1.0783 -1.5273
   59MOL   H14522301   4.638   0.128   2.633 -1.9003  0.3014  1.4275
   59MOL   H14622302   4.635   0.207   2.830  0.1155  0.3567  0.6586
   59MOL   H14722303   4.628   0.376   2.779 -1.3238 -1.0234  2.9967
   59MOL   H14822304   4.881   0.194   2.778  0.3605  0.6846 -1.5077
   59MOL   H14922305   4.885   0.349   2.821  0.7059  0.1508  0.1077
   59MOL   H15022306   4.887   0.425   2.577 -1.5065  0.3832 -1.9834
   59MOL   H15122307   4.947   0.259   2.568 -0.6227 -0.5061 -0.1753
   59MOL   H15222308   4.716   0.538   2.627  0.6409 -1.0722 -0.6265
   59MOL   H15322309   4.552   0.507   2.588 -1.3690  1.5998 -0.8883
   59MOL   C15422310   4.662   0.686   2.499 -0.6190  0.3011 -1.0475
   59MOL   C15522311   4.567   0.776   2.573  0.8936  0.0094 -0.1225
   59MOL   C15622312   4.578   0.777   2.728 -0.2868  0.2338  0.1140
   59MOL   C15722313   4.437   0.818   2.792 -0.0687  0.0080 -0.2016
   59MOL   C15822314   4.349   0.842   2.669  0.5986 -0.3320  0.7192
   59MOL   C15922315   4.413   0.765   2.555  0.1448 -0.3973  0.1607
   59MOL   C16022316   4.811   0.734   2.520 -0.5562 -0.5015 -0.2598
   59MOL   H16122317   4.641   0.693   2.392  1.1165 -0.5367 -1.4719
   59MOL   H16222318   4.582   0.880   2.544  1.2257 -0.6379 -2.3367
   59MOL   H16322319   4.613   0.683   2.770 -4.5102 -1.4853  0.0293
   59MOL   H16422320   4.660   0.847   2.746 -1.0311  0.8960  0.9858
   59MOL   H16522321   4.385   0.750   2.859  0.7143 -0.1737  0.2366
   59MOL   H16622322   4.448   0.912   2.845 -2.2993  0.4860 -0.5658
   59MOL   H16722323   4.361   0.945   2.635  2.6497 -1.4554 -2.2161
   59MOL   H16822324   4.243   0.830   2.690  0.1406  1.2879 -0.5805
   59MOL   H16922325   4.388   0.810   2.459 -1.2948  1.2205  1.2489
   59MOL   H17022326   4.383   0.660   2.556 -1.9360  0.1705  1.8539
   59MOL   H17122327   4.876   0.653   2.488 -1.3262 -1.2983  0.2122
   59MOL   H17222328   4.813   0.741   2.628  0.1222 -0.9477 -0.2407
   59MOL   C17322329   4.859   0.869   2.454 -0.2801 -0.0581 -0.6979
   59MOL   C17422330   4.861   0.857   2.300 -0.9241  0.8875 -0.4650
   59MOL   C17522331   4.955   0.748   2.245  0.3568  0.2665 -0.4752
   59MOL   C17622332   4.940   0.770   2.095  0.0629 -0.0247  0.1500
   59MOL   C17722333   4.943   0.925   2.081  0.3474 -0.3622 -0.1641
   59MOL   C17822334   4.906   0.981   2.223  0.0977 -0.0896 -0.7892
   59MOL   C17922335   5.004   0.899   2.518  0.4223  0.1151 -0.2528
   59MOL   H18022336   4.784   0.945   2.477 -1.2120 -0.5556 -2.0008
   59MOL   H18122337   4.759   0.839   2.266 -0.3885  0.0817 -1.6807
   59MOL   H18222338   4.915   0.650   2.270  1.1076  0.0006 -0.3217
   59MOL   H18322339   5.059   0.762   2.273 -0.0530 -0.7139  1.7069
   59MOL   H18422340   5.017   0.724   2.033 -1.6815 -2.2903 -0.4132
   59MOL   H18522341   4.842   0.733   2.066  0.4995  0.5115 -2.0319
   59MOL   H18622342   4.868   0.957   2.008  0.4534 -2.6391 -1.3036
   59MOL   H18722343   5.043   0.947   2.044  0.5107 -0.5617  0.1553
   59MOL   H18822344   4.997   1.023   2.266 -0.1311 -0.5827  0.1857
   59MOL   H18922345   4.826   1.055   2.223 -0.9914 -1.2514 -1.4707
   59MOL   H19022346   5.063   0.807   2.522  2.1052  1.1482 -0.6446
   59MOL   H19122347   5.064   0.958   2.449 -2.5630  1.5986 -1.6759
   59MOL   C19222348   4.998   0.973   2.653  0.3605 -0.3040  0.7174
   59MOL   C19322349   4.995   1.129   2.634 -0.4000 -0.0539  0.6250
   59MOL   C19422350   4.883   1.201   2.553  1.1089 -0.1638 -0.3486
   59MOL   C19522351   4.936   1.346   2.535 -0.2085  0.9657 -0.2432
   59MOL   C19622352   5.093   1.337   2.548  0.0522 -0.4341  0.1265
   59MOL   C19722353   5.130   1.194   2.584  0.4147 -0.2791  0.3192
   59MOL   C19822354   5.118   0.924   2.735 -0.6217 -0.1089 -0.5235
   59MOL   H19922355   4.903   0.949   2.701  0.5924 -1.9518  0.3520
   59MOL   H20022356   4.980   1.172   2.734 -1.7654  1.2483 -0.1261
   59MOL   H20122357   4.791   1.206   2.611  0.1973  1.6291 -1.8804
   59MOL   H20222358   4.887   1.150   2.457  0.5452  0.9676 -0.9872
   59MOL   H20322359   4.904   1.406   2.450  0.1861  1.4017 -0.0815
   59MOL   H20422360   4.885   1.402   2.613  0.1348  1.7042 -0.5421
   59MOL   H20522361   5.099   1.392   2.642 -0.3117  0.0181 -0.1142
   59MOL   H20622362   5.154   1.383   2.470 -2.4603  1.9850 -0.4858
   59MOL   H20722363   5.212   1.197   2.656 -0.1625  2.4566  0.9147
   59MOL   H20822364   5.157   1.144   2.491 -0.8087 -0.6147  0.1345
   59MOL   H20922365   5.200   0.879   2.679 -0.7294 -0.0592 -0.7211
   59MOL   H21022366   5.169   1.005   2.787  0.9883 -1.8692  0.6910
   59MOL   C21122367   5.077   0.822   2.850 -0.3162  0.6467  0.2475
   59MOL   C21222368   5.191   0.708   2.868  0.1238  0.7785 -0.0766
   59MOL   C21322369   5.147   0.608   2.971 -0.5149  0.1490  0.6018
   59MOL   C21422370   5.230   0.486   2.936 -0.0044  0.3518  0.2774
   59MOL   C21522371   5.226   0.476   2.784 -0.6336 -0.5004 -0.2723
   59MOL   C21622372   5.213   0.625   2.741 -0.3001 -0.6940 -0.1503
   59MOL   C21722373   5.063   0.903   2.984  0.0919  0.2379  0.3361
   59MOL   H21822374   4.985   0.767   2.829  0.8827 -1.8094  1.2587
   59MOL   H21922375   5.283   0.762   2.891  1.5178 -1.8573  0.7385
   59MOL   H22022376   5.176   0.639   3.071  1.3083 -0.1483  0.1710
   59MOL   H22122377   5.040   0.583   2.977 -0.9195  1.5607 -0.4520
   59MOL   H22222378   5.335   0.506   2.957 -0.1706  0.6293  0.8427
   59MOL   H22322379   5.199   0.395   2.988  0.6936 -0.9039 -1.4721
   59MOL   H22422380   5.145   0.419   2.739 -0.6085 -0.4669 -0.3613
   59MOL   H22522381   5.323   0.439   2.751 -0.8488 -0.3794 -1.0533
   59MOL   H22622382   5.294   0.658   2.676 -0.4607  0.1732  0.0879
   59MOL   H22722383   5.120   0.629   2.684 -0.8628 -0.1061  0.8054
   59MOL   H22822384   5.046   1.008   2.960  2.0988  1.0171  2.1308
   59MOL   H22922385   5.164   0.909   3.024  0.8207 -1.4309 -1.1766
   59MOL   C23022386   4.965   0.851   3.097  0.3017 -0.4968  0.0921
   59MOL   C23122387   4.820   0.888   3.052  0.7430  0.0227  0.6170
   59MOL   C23222388   4.714   0.803   3.122 -0.6514 -0.6466 -0.2116
   59MOL   C23322389   4.604   0.893   3.176 -0.1055  0.1100 -0.1359
   59MOL   C23422390   4.620   1.014   3.089 -0.7924 -0.2672  0.3421
   59MOL   C23522391   4.773   1.035   3.078 -0.1031  0.4628  0.5387
   59MOL   C23622392   5.014   0.898   3.232  0.0643 -0.7014  0.1256
   59MOL   H23722393   4.959   0.742   3.092 -4.0267 -0.2607 -1.2860
   59MOL   H23822394   4.814   0.866   2.946 -1.4847  0.3202  0.6520
   59MOL   H23922395   4.688   0.722   3.054 -0.2784 -1.3624  0.4914
   59MOL   H24022396   4.762   0.756   3.208 -0.1731 -0.2141 -0.2348
   59MOL   H24122397   4.512   0.839   3.156 -1.0343  1.2612  0.9683
   59MOL   H24222398   4.606   0.899   3.285 -0.0479  1.0728 -0.1832
   59MOL   H24322399   4.573   1.108   3.117 -0.3589  0.3063 -0.7898
   59MOL   H24422400   4.580   1.006   2.988  1.5557  1.3432 -0.7871
   59MOL   H24522401   4.811   1.072   3.173 -0.2805  3.9338 -0.6729
   59MOL   H24622402   4.796   1.115   3.008 -0.6356  1.8748  1.9517
   59MOL   H24722403   4.927   0.903   3.298 -1.7769 -1.3633 -2.1989
   59MOL   H24822404   5.043   1.001   3.210  0.2652 -0.5052  1.2555
   59MOL   C24922405   5.128   0.821   3.299 -0.0550  0.0073 -0.3697
   59MOL   C25022406   5.080   0.685   3.353 -0.0635  0.3651  0.9001
   59MOL   C25122407   5.003   0.682   3.480  0.3441 -0.0103  0.1227
   59MOL   C25222408   5.076   0.575   3.566  0.2094 -0.6180  0.0591
   59MOL   C25322409   5.152   0.488   3.468  0.3615  0.3892  0.4065
   59MOL   C25422410   5.194   0.582   3.364  0.3991 -0.4609  0.0307
   59MOL   C25522411   5.193   0.901   3.412  0.7150  0.7378  0.2599
   59MOL   H25622412   5.200   0.804   3.218 -1.5444 -1.0018 -1.5081
   59MOL   H25722413   5.011   0.640   3.281  1.1739  1.0627 -0.7636
   59MOL   H25822414   4.900   0.660   3.452 -0.1770  1.6324  0.6756
   59MOL   H25922415   4.990   0.781   3.525  1.0893 -0.1553  0.6581
   59MOL   H26022416   5.001   0.519   3.623 -0.0017 -0.6898 -0.2900
   59MOL   H26122417   5.144   0.620   3.638  0.2242 -1.3525  0.5098
   59MOL   H26222418   5.089   0.415   3.417  0.3988  0.7960 -0.2184
   59MOL   H26322419   5.239   0.439   3.511 -1.3453 -0.9782  2.3816
   59MOL   H26422420   5.221   0.532   3.271  0.0902  0.2085 -0.4240
   59MOL   H26522421   5.279   0.632   3.410 -1.6994  1.6681  1.7180
   59MOL   H26622422   5.110   0.946   3.467 -0.2407 -1.2140  0.4482
   59MOL   H26722423   5.234   0.839   3.491 -0.0196  0.8126  0.6993
   59MOL   C26822424   5.303   1.005   3.377 -0.0922  0.0805 -0.2927
   59MOL   C26922425   5.444   0.941   3.355 -0.8076  0.8159 -0.4746
   59MOL   C27022426   5.555   1.043   3.308 -0.6678  0.5438 -0.0765
   59MOL   C27122427   5.669   0.952   3.258  0.4358  0.4062 -0.5037
   59MOL   C27222428   5.601   0.822   3.202  0.4436 -0.3883 -0.2570
   59MOL   C27322429   5.446   0.845   3.236 -0.0373 -0.3802 -0.2200
   59MOL   C27422430   5.319   1.132   3.472 -0.2749 -0.5627 -0.5523
   59MOL   H27522431   5.275   1.040   3.278 -1.1192 -1.5338 -0.6008
   59MOL   H27622432   5.477   0.886   3.442 -0.4947  0.1240 -1.0307
   59MOL   H27722433   5.515   1.114   3.235 -1.4365  1.9637  1.6971
   59MOL   H27822434   5.581   1.111   3.389  0.4861 -1.6330  1.4421
   59MOL   H27922435   5.751   0.991   3.198  3.1447 -1.1639  2.0697
   59MOL   H28022436   5.730   0.925   3.344  0.3483  1.1697 -0.1956
   59MOL   H28122437   5.625   0.739   3.268 -0.5563 -1.5146 -1.2705
   59MOL   H28222438   5.608   0.793   3.097  1.6115 -0.6454 -0.1094
   59MOL   H28322439   5.394   0.749   3.229 -0.5914 -0.1433  0.5781
   59MOL   H28422440   5.403   0.903   3.154  0.2220 -0.3098 -0.3046
   59MOL   H28522441   5.378   1.201   3.412 -0.7403  1.2756  1.0464
   59MOL   H28622442   5.391   1.096   3.545 -1.1133  0.3470  0.7539
   59MOL   C28722443   5.201   1.201   3.533  0.1924 -0.0035 -0.2315
   59MOL   C28822444   5.249   1.303   3.638 -0.7925 -0.7344  0.4644
   59MOL   C28922445   5.304   1.251   3.763 -0.5084  0.0965  0.6654
   59MOL   C29022446   5.445   1.313   3.778  0.2212 -0.0135  0.3010
   59MOL   C29122447   5.431   1.448   3.707  1.3113 -0.1355  0.2284
   59MOL   C29222448   5.339   1.417   3.585  0.4764  0.2688  0.2099
   59MOL   C29322449   5.109   1.263   3.423 -0.4669 -0.0889  0.1585
   59MOL   H29422450   5.138   1.133   3.590  0.6897 -1.2353 -1.1396
   59MOL   H29522451   5.159   1.345   3.683 -1.5864 -1.6013 -0.2985
   59MOL   H29622452   5.248   1.292   3.847 -0.2088  0.3187  0.7567
   59MOL   H29722453   5.294   1.143   3.770  1.4822 -0.1053  0.5647
   59MOL   H29822454   5.470   1.318   3.884 -1.0308  0.1462  0.5931
   59MOL   H29922455   5.508   1.244   3.721 -2.6740 -1.7112 -0.9555
   59MOL   H30022456   5.529   1.490   3.682  1.6095 -0.1342  1.3727
   59MOL   H30122457   5.373   1.522   3.761  0.1358  0.7253 -2.1209
   59MOL   H30222458   5.414   1.375   3.519 -0.0300 -0.3116  0.0078
   59MOL   H30322459   5.292   1.508   3.547  2.3808  1.3113  0.3247
   59MOL   H30422460   5.094   1.195   3.339  1.0794  1.5059 -1.4647
   59MOL   H30522461   5.170   1.344   3.382  0.4727  0.5616  2.7756
   59MOL   C30622462   4.972   1.321   3.476 -0.4114  0.4677 -1.0458
   59MOL   C30722463   4.895   1.418   3.385 -0.0421  0.6427  0.1548
   59MOL   C30822464   4.965   1.552   3.360  0.1099  0.1381 -0.0525
   59MOL   C30922465   4.884   1.606   3.243  0.1583 -1.1335 -0.7056
   59MOL   C31022466   4.840   1.480   3.157  0.6342 -0.1510 -0.0040
   59MOL   C31122467   4.863   1.363   3.244 -0.7400  0.3000 -0.0185
   59MOL   C31222468   4.880   1.214   3.530 -0.4326  0.1053  0.2957
   59MOL   H31322469   5.003   1.375   3.565  1.5053  0.6465 -1.7982
   59MOL   H31422470   4.797   1.453   3.418 -1.2954 -3.1708  0.7230
   59MOL   H31522471   5.062   1.537   3.312 -0.4622  0.1867 -1.2399
   59MOL   H31622472   4.976   1.619   3.446  1.5556 -0.2484  0.0804
   59MOL   H31722473   4.802   1.656   3.294  1.9476  0.8569  0.2966
   59MOL   H31822474   4.922   1.693   3.191 -4.0396  1.6804  0.6625
   59MOL   H31922475   4.909   1.480   3.072  1.2375  2.7281  0.4624
   59MOL   H32022476   4.735   1.476   3.126  1.2863 -1.3918 -2.2473
   59MOL   H32122477   4.782   1.291   3.240 -0.2591 -0.2009 -1.1185
   59MOL   H32222478   4.953   1.312   3.209  0.7918  1.8006  1.6455
   59MOL   H32322479   4.913   1.117   3.493 -0.3204 -1.5104  4.3171
   59MOL   H32422480   4.781   1.236   3.490  0.2598 -0.0206 -1.5073
   59MOL   C32522481   4.861   1.200   3.686 -0.1576  0.2747 -0.8540
   59MOL   C32622482   4.813   1.066   3.732  0.8665  0.1269 -0.7658
   59MOL   C32722483   4.917   0.950   3.748  0.1695  0.3217 -0.3163
   59MOL   C32822484   4.832   0.826   3.753  0.4329 -1.0705 -0.1965
   59MOL   C32922485   4.707   0.849   3.672  0.7819 -0.6949  0.2834
   59MOL   C33022486   4.701   1.003   3.649  0.3003 -0.0599 -0.1331
   59MOL   C33122487   4.764   1.313   3.732  1.1358 -0.3917 -0.4708
   59MOL   H33222488   4.955   1.213   3.739  0.2144 -0.7653 -1.2471
   59MOL   H33322489   4.755   1.073   3.825  2.7003 -2.9349  0.6903
   59MOL   H33422490   4.987   0.971   3.829 -0.4063 -0.1151  0.3022
   59MOL   H33522491   4.979   0.950   3.658  0.1619  0.9629 -0.3167
   59MOL   H33622492   4.802   0.804   3.856  2.2172  1.0615  0.8248
   59MOL   H33722493   4.882   0.737   3.714  0.0079 -1.8011  0.8872
   59MOL   H33822494   4.619   0.813   3.724 -2.4373  2.8393 -2.4332
   59MOL   H33922495   4.723   0.802   3.575  1.3006 -1.0053  0.5192
   59MOL   H34022496   4.605   1.049   3.672 -0.2271 -0.7100 -1.0207
   59MOL   H34122497   4.718   1.017   3.542 -0.4051  0.7296 -0.1456
   59MOL   H34222498   4.670   1.279   3.690  0.8119 -1.7918  1.3206
   59MOL   H34322499   4.789   1.407   3.683  0.9806 -0.0385  0.1271
   59MOL   C34422500   4.765   1.342   3.890 -0.0083 -0.2919 -0.3870
   59MOL   C34522501   4.641   1.286   3.963 -0.2451 -0.0074 -0.6521
   59MOL   C34622502   4.514   1.374   3.938 -0.4012  0.5139 -0.4483
   59MOL   C34722503   4.409   1.310   4.035  0.1417 -0.0806  0.1142
   59MOL   C34822504   4.487   1.259   4.157  0.1082  0.1561 -0.6742
   59MOL   C34922505   4.641   1.275   4.118 -0.5337  0.1162 -0.3038
   59MOL   C35022506   4.800   1.489   3.934 -0.3448 -0.0501  0.6948
   59MOL   H35122507   4.841   1.276   3.932 -0.6996  0.0142  1.3860
   59MOL   H35222508   4.614   1.182   3.942  1.7930 -0.6663 -0.0861
   59MOL   H35322509   4.492   1.375   3.831  0.5413 -2.4758 -0.7188
   59MOL   H35422510   4.534   1.473   3.980 -0.1774  0.3979 -0.2825
   59MOL   H35522511   4.329   1.373   4.075 -0.8501 -0.8605 -0.6222
   59MOL   H35622512   4.360   1.229   3.982  1.0948 -1.9677  2.0450
   59MOL   H35722513   4.447   1.165   4.195  0.6564 -0.7320 -2.2377
   59MOL   H35822514   4.467   1.316   4.248 -1.1923 -1.8927  0.3789
   59MOL   H35922515   4.676   1.368   4.163 -0.3575  0.2896 -0.8006
   59MOL   H36022516   4.695   1.187   4.152  1.0359  1.9611  2.1105
   59MOL   H36122517   4.768   1.510   4.036  2.0025  0.0062  1.4508
   59MOL   H36222518   4.736   1.551   3.872  0.6578 -0.8634 -1.1984
   59MOL   C36322519   4.952   1.522   3.926 -0.7778 -0.0018 -1.2145
   59MOL   C36422520   4.974   1.669   3.886  0.1615  0.0298 -0.0459
   59MOL   C36522521   4.959   1.700   3.736  0.3205  0.3879  0.3992
   59MOL   C36622522   5.022   1.830   3.709  0.1787 -0.2848 -0.3663
   59MOL   C36722523   5.114   1.855   3.827  0.0729  0.9248 -0.0597
   59MOL   C36822524   5.118   1.720   3.905 -0.7060  0.1882 -0.2002
   59MOL   C36922525   5.025   1.474   4.045  0.0892 -0.6631 -0.0760
   59MOL   H37022526   4.980   1.465   3.837 -0.7010  0.4816 -1.4998
   59MOL   H37122527   4.904   1.726   3.947  1.1528 -0.1457  1.2663
   59MOL   H37222528   5.018   1.623   3.686  2.0471  0.9329  1.5546
   59MOL   H37322529   4.858   1.685   3.697 -1.2174  2.1409  3.5196
   59MOL   H37422530   5.085   1.833   3.620  0.9048  0.3882  0.1679
   59MOL   H37522531   4.956   1.916   3.707  0.3263 -0.1351  0.8199
   59MOL   H37622532   5.213   1.890   3.800 -0.8607  2.2969 -1.8185
   59MOL   H37722533   5.074   1.942   3.880  2.4461  1.6007  0.6933
   59MOL   H37822534   5.152   1.731   4.008 -2.4228  1.0062  0.2924
   59MOL   H37922535   5.184   1.652   3.851 -1.6812 -0.1869 -0.9256
   59MOL   H38022536   5.133   1.483   4.038  0.1294 -2.4426 -1.9669
   59MOL   H38122537   5.006   1.369   4.063 -2.3782  0.1451  2.3443
   59MOL   H38222538   4.989   1.514   4.140 -0.9486 -1.0218 -0.3094
   60MOL     C122539   5.394   1.265   4.622 -0.1219 -0.0996 -0.1503
   60MOL     C222540   5.404   1.291   4.773  0.7029  0.0953 -0.1637
   60MOL     C322541   5.317   1.399   4.841 -0.6364 -0.1838 -0.1274
   60MOL     C422542   5.411   1.486   4.921  0.5038 -0.3624  0.5557
   60MOL     C522543   5.541   1.471   4.845 -0.2151  0.2693  0.8360
   60MOL     C622544   5.551   1.323   4.818  0.1473  0.3943  0.0709
   60MOL     C722545   5.256   1.224   4.584  0.4869 -0.2281 -0.2911
   60MOL     H822546   5.424   1.359   4.576 -0.7250  0.7018  1.0880
   60MOL     H922547   5.375   1.197   4.819 -0.0099  1.6506  2.7075
   60MOL    H1022548   5.268   1.451   4.759 -0.3244 -0.4895 -0.5079
   60MOL    H1122549   5.228   1.361   4.892 -0.3550 -0.3920  0.2064
   60MOL    H1222550   5.380   1.590   4.924 -0.6708 -0.7438  1.8062
   60MOL    H1322551   5.416   1.445   5.021  0.0658 -0.9110  0.3548
   60MOL    H1422552   5.529   1.532   4.756 -2.4704 -1.2433  0.0498
   60MOL    H1522553   5.635   1.500   4.892  1.8106 -2.2153 -1.4995
   60MOL    H1622554   5.567   1.274   4.914 -0.7331  0.4289  0.2400
   60MOL    H1722555   5.618   1.281   4.744  0.0294  0.3297 -0.0001
   60MOL    H1822556   5.252   1.116   4.594  1.4978 -0.2337  0.1182
   60MOL    H1922557   5.190   1.260   4.664  0.9165 -0.7052  0.2813
   60MOL    H2022558   5.461   1.179   4.613 -0.9588 -0.7539 -0.1758
   60MOL    C2122559   5.212   1.266   4.444 -0.7066 -0.0740  0.4720
   60MOL    C2222560   5.298   1.185   4.342 -0.1109  0.2137 -0.1791
   60MOL    C2322561   5.314   1.258   4.198  0.0433  0.7774 -0.0366
   60MOL    C2422562   5.357   1.151   4.099 -0.4778  0.3849 -0.1705
   60MOL    C2522563   5.330   1.018   4.169  0.6332 -0.2628 -0.4322
   60MOL    C2622564   5.249   1.045   4.291 -0.0950 -0.3970 -0.0056
   60MOL    C2722565   5.056   1.260   4.411 -0.5238 -0.1059 -0.9566
   60MOL    H2822566   5.249   1.367   4.430 -2.0784  0.1081 -2.1403
   60MOL    H2922567   5.395   1.166   4.386 -0.4734 -1.2540  0.0095
   60MOL    H3022568   5.381   1.343   4.211  0.5644  0.1108  1.7554
   60MOL    H3122569   5.220   1.302   4.164  0.5400  0.7805 -1.4652
   60MOL    H3222570   5.307   1.163   4.003  0.2640  2.3734 -0.3293
   60MOL    H3322571   5.464   1.150   4.079 -0.6245  0.0986 -0.9708
   60MOL    H3422572   5.428   0.973   4.190  0.7242 -0.0560 -0.4179
   60MOL    H3522573   5.287   0.946   4.099 -1.2583 -1.5714  1.9782
   60MOL    H3622574   5.272   0.967   4.363 -1.0036 -1.1908 -0.5689
   60MOL    H3722575   5.141   1.036   4.280  0.2873 -4.2914 -1.2283
   60MOL    H3822576   5.050   1.275   4.303  3.0266  0.3586 -1.1264
   60MOL    H3922577   5.011   1.164   4.434 -1.5289  0.0100 -2.3831
   60MOL    C4022578   4.972   1.361   4.493  0.0185  0.3051 -0.6281
   60MOL    C4122579   4.966   1.502   4.433  0.9315 -0.0452  0.4112
   60MOL    C4222580   5.096   1.577   4.399  0.2264 -0.2946  0.1975
   60MOL    C4322581   5.051   1.724   4.380  0.0552 -0.2313  0.3260
   60MOL    C4422582   4.942   1.742   4.492  0.5383 -0.4299 -0.0450
   60MOL    C4522583   4.886   1.605   4.520  0.0781  0.7975 -0.2450
   60MOL    C4622584   4.828   1.314   4.508  0.0467  0.1284 -0.2516
   60MOL    H4722585   5.024   1.377   4.587  1.3053 -1.3982 -1.0184
   60MOL    H4822586   4.915   1.489   4.338  1.2052  0.2265  0.2246
   60MOL    H4922587   5.140   1.531   4.311  0.0364 -1.6305  0.7978
   60MOL    H5022588   5.171   1.581   4.478 -0.9239  0.3674  1.2770
   60MOL    H5122589   5.001   1.735   4.283 -0.4225  0.1274  0.6098
   60MOL    H5222590   5.137   1.789   4.396 -0.8765  0.5764  2.1258
   60MOL    H5322591   4.997   1.791   4.573  1.5554  2.5214 -2.4207
   60MOL    H5422592   4.867   1.814   4.463  1.0339 -0.3634 -1.1906
   60MOL    H5522593   4.909   1.584   4.624  1.9970  0.1923 -0.7595
   60MOL    H5622594   4.783   1.594   4.487 -0.0647  0.4686  0.3035
   60MOL    H5722595   4.757   1.386   4.468 -0.2393 -0.1425 -0.2403
   60MOL    H5822596   4.811   1.228   4.442 -0.6064  0.1815 -0.1568
   60MOL    C5922597   4.788   1.283   4.655  0.1833  0.4504 -0.5421
   60MOL    C6022598   4.633   1.302   4.680 -0.1357  0.1220 -0.3268
   60MOL    C6122599   4.535   1.225   4.589 -0.0880  0.2853  0.4201
   60MOL    C6222600   4.411   1.318   4.581 -0.3783  0.0688 -0.1470
   60MOL    C6322601   4.473   1.466   4.591 -0.4521  0.1193 -0.1338
   60MOL    C6422602   4.589   1.448   4.685 -0.1731 -0.5701  0.3820
   60MOL    C6522603   4.839   1.151   4.711  0.5822  0.8800 -0.1464
   60MOL    H6622604   4.844   1.362   4.706 -0.8682  0.7911  0.0872
   60MOL    H6722605   4.616   1.272   4.784 -0.5283  0.6758 -0.2263
   60MOL    H6822606   4.512   1.132   4.639 -0.9863 -0.9084 -2.1191
   60MOL    H6922607   4.586   1.217   4.493  2.8469  2.2934  1.7401
   60MOL    H7022608   4.340   1.295   4.660  0.4973 -3.3763 -0.2615
   60MOL    H7122609   4.366   1.295   4.484  0.4162 -1.6279 -0.1353
   60MOL    H7222610   4.407   1.546   4.625 -1.1464 -0.7963  0.6856
   60MOL    H7322611   4.506   1.502   4.493  1.2476  1.0506  0.7407
   60MOL    H7422612   4.666   1.525   4.677  0.7356 -1.6009 -0.9958
   60MOL    H7522613   4.545   1.454   4.785  0.9854  1.7989  0.7930
   60MOL    H7622614   4.943   1.138   4.681  0.8113  2.1382  0.0956
   60MOL    H7722615   4.790   1.066   4.663  1.9757  0.4606 -0.8537
   60MOL    C7822616   4.832   1.125   4.871  0.1897 -0.5344 -0.1578
   60MOL    C7922617   4.811   0.976   4.905 -0.3709 -0.1650 -0.1712
   60MOL    C8022618   4.916   0.875   4.855  0.3512  0.4511 -0.3803
   60MOL    C8122619   4.832   0.743   4.843  0.5262  0.3127  0.9636
   60MOL    C8222620   4.687   0.785   4.815  0.3722  0.4094  0.3762
   60MOL    C8322621   4.672   0.927   4.866 -0.8344 -1.0307 -0.5160
   60MOL    C8422622   4.954   1.184   4.945 -0.1372  0.5159 -0.1874
   60MOL    H8522623   4.741   1.172   4.909  0.5914  0.7777 -0.8129
   60MOL    H8622624   4.823   0.967   5.013  1.1457 -1.2552 -0.4194
   60MOL    H8722625   5.010   0.876   4.910 -0.6224 -0.6448  1.3680
   60MOL    H8822626   4.935   0.898   4.750  0.4507 -0.4269 -0.5604
   60MOL    H8922627   4.834   0.696   4.941  0.1823 -1.6895  0.0402
   60MOL    H9022628   4.876   0.665   4.781  1.0943  1.3694  0.0223
   60MOL    H9122629   4.684   0.787   4.706 -2.1129  1.8232  0.4174
   60MOL    H9222630   4.609   0.713   4.843 -0.6137  1.3169  0.0100
   60MOL    H9322631   4.624   0.981   4.785 -1.0903  1.2774  1.1156
   60MOL    H9422632   4.611   0.909   4.954 -0.2896 -0.3062  0.0174
   60MOL    H9522633   5.017   1.241   4.876  0.8743 -0.5859 -0.1935
   60MOL    H9622634   5.027   1.104   4.959 -0.3316  0.2589 -0.6219
   60MOL    C9722635   4.921   1.258   5.070  0.1207 -0.3413  0.0173
   60MOL    C9822636   4.854   1.393   5.035  0.0120  0.1798 -0.0418
   60MOL    C9922637   4.786   1.480   5.139 -0.5011 -0.0303 -0.0326
   60MOL   C10022638   4.747   1.616   5.082  0.2305  0.3390  0.2278
   60MOL   C10122639   4.859   1.635   4.977 -0.4589 -0.2669  0.4990
   60MOL   C10222640   4.936   1.498   4.962 -0.2976  0.4657 -0.0833
   60MOL   C10322641   5.038   1.278   5.165 -0.0935 -0.2513 -0.6194
   60MOL   H10422642   4.835   1.205   5.113 -0.0572 -1.3920 -1.6051
   60MOL   H10522643   4.774   1.366   4.966  0.5897 -3.5834  0.6872
   60MOL   H10622644   4.709   1.422   5.189 -0.6912  1.0560  0.9471
   60MOL   H10722645   4.847   1.499   5.227 -2.4857 -0.5557  1.4677
   60MOL   H10822646   4.750   1.698   5.154 -2.6379 -0.1419  0.9771
   60MOL   H10922647   4.645   1.611   5.042  0.1737  0.4328  0.3583
   60MOL   H11022648   4.926   1.715   5.008 -1.4027 -0.2458  2.5585
   60MOL   H11122649   4.817   1.678   4.885  4.2995 -0.6760 -1.9960
   60MOL   H11222650   4.959   1.467   4.860 -1.1028 -2.1984  0.5145
   60MOL   H11322651   5.026   1.513   5.021 -0.6333  1.5462  0.1782
   60MOL   H11422652   5.122   1.310   5.104 -0.7728  3.0561  0.0511
   60MOL   H11522653   5.027   1.358   5.239  3.4364  0.3458 -0.6545
   60MOL   C11622654   5.091   1.153   5.246 -0.6799  0.4504  0.3932
   60MOL   C11722655   5.243   1.151   5.275  0.2711  0.1454  0.3385
   60MOL   C11822656   5.337   1.114   5.157  0.5451 -0.1376 -0.1240
   60MOL   C11922657   5.477   1.163   5.213 -0.2729  0.3319 -0.4308
   60MOL   C12022658   5.449   1.266   5.316  0.6853  0.1156  0.0167
   60MOL   C12122659   5.299   1.284   5.326 -0.1865  0.3556 -0.4180
   60MOL   C12222660   5.006   1.139   5.374  0.2504  0.5804  0.2284
   60MOL   H12322661   5.078   1.070   5.176  0.5302  0.1555  0.4966
   60MOL   H12422662   5.262   1.068   5.343  0.8948 -0.7617 -0.9396
   60MOL   H12522663   5.332   1.008   5.129  1.2612 -0.2961  0.3292
   60MOL   H12622664   5.301   1.159   5.065 -0.1871 -0.1856  0.1428
   60MOL   H12722665   5.541   1.207   5.136  0.3024 -0.0374 -0.1664
   60MOL   H12822666   5.517   1.075   5.262  0.6776  1.0763  0.1602
   60MOL   H12922667   5.501   1.361   5.311 -0.0039  0.4862 -0.2451
   60MOL   H13022668   5.495   1.233   5.409  0.6685 -2.0288 -0.6955
   60MOL   H13122669   5.260   1.318   5.422 -1.2958 -1.3671 -0.2438
   60MOL   H13222670   5.284   1.359   5.248  1.7798  0.0948 -1.0736
   60MOL   H13322671   4.902   1.164   5.354 -0.4173 -0.9108  1.6856
   60MOL   H13422672   5.037   1.215   5.445  0.9770  0.4396  0.0630
   60MOL   C13522673   5.015   0.997   5.440  0.0492 -0.1141 -0.6256
   60MOL   C13622674   4.886   0.918   5.423  0.3235  0.8477 -0.0335
   60MOL   C13722675   4.879   0.783   5.490 -0.4550 -0.3591  0.2514
   60MOL   C13822676   4.778   0.690   5.422  0.5857 -0.6803 -0.0120
   60MOL   C13922677   4.730   0.778   5.302  0.5862 -0.6100 -0.3206
   60MOL   C14022678   4.832   0.897   5.281 -0.1439 -0.4639  0.2360
   60MOL   C14122679   5.047   1.014   5.596 -0.5187  0.0636 -0.7947
   60MOL   H14222680   5.095   0.943   5.390 -0.1042 -4.1087  3.1490
   60MOL   H14322681   4.807   0.975   5.472 -0.1849 -1.4974  1.9957
   60MOL   H14422682   4.974   0.730   5.495  0.4106  1.0017 -1.2199
   60MOL   H14522683   4.842   0.786   5.593 -2.6553 -2.2480 -0.4489
   60MOL   H14622684   4.688   0.665   5.479 -0.8219  1.1280 -1.4076
   60MOL   H14722685   4.824   0.599   5.382  1.9516  0.6221 -1.4381
   60MOL   H14822686   4.629   0.815   5.323 -0.6558 -4.4645  1.0227
   60MOL   H14922687   4.719   0.712   5.216 -2.0595 -1.1731  0.3882
   60MOL   H15022688   4.909   0.849   5.220 -0.0181 -1.3040  1.0380
   60MOL   H15122689   4.789   0.978   5.221 -1.5828 -2.2415 -1.2243
   60MOL   H15222690   4.997   0.936   5.652 -0.2072 -0.3418 -1.0801
   60MOL   H15322691   4.995   1.104   5.630  0.5536  0.7195 -0.8487
   60MOL   C15422692   5.199   1.030   5.639 -0.2669  0.3955  0.8503
   60MOL   C15522693   5.225   1.071   5.787 -0.1683 -0.4963 -0.1799
   60MOL   C15622694   5.162   0.982   5.896 -0.0251  0.7048  0.1238
   60MOL   C15722695   5.169   1.069   6.024 -0.8014 -0.7296  0.5606
   60MOL   C15822696   5.203   1.210   5.977  0.2712  0.4558 -0.5597
   60MOL   C15922697   5.177   1.212   5.821 -0.2442 -0.3607 -0.2108
   60MOL   C16022698   5.274   0.900   5.606  0.3226  0.6362  0.2921
   60MOL   H16122699   5.238   1.106   5.570 -0.4595 -0.5658 -0.3350
   60MOL   H16222700   5.331   1.064   5.813 -0.0578  1.9538  0.2118
   60MOL   H16322701   5.057   0.976   5.868  0.2222 -0.3687 -0.5812
   60MOL   H16422702   5.206   0.883   5.902 -0.4220  0.6437  2.5562
   60MOL   H16522703   5.077   1.058   6.080 -0.3480  0.4342  1.5527
   60MOL   H16622704   5.252   1.030   6.083 -1.6737 -1.7809  1.1276
   60MOL   H16722705   5.307   1.238   5.992  0.1988  1.6022 -2.0752
   60MOL   H16822706   5.136   1.284   6.022  1.7125  1.7321 -0.4477
   60MOL   H16922707   5.243   1.285   5.774 -1.3667  0.9945  0.2611
   60MOL   H17022708   5.076   1.242   5.793 -0.2599 -0.3747 -0.1707
   60MOL   H17122709   5.210   0.830   5.553  0.8594  0.3460  0.0249
   60MOL   H17222710   5.285   0.845   5.699  2.0624  0.3283 -0.0717
   60MOL   C17322711   5.423   0.907   5.546 -0.4422  0.6513  0.7844
   60MOL   C17422712   5.460   0.780   5.459 -0.0520 -0.1584 -0.1935
   60MOL   C17522713   5.382   0.765   5.322 -0.6218 -0.2931  0.7382
   60MOL   C17622714   5.313   0.622   5.328  0.0410 -0.1991  0.3223
   60MOL   C17722715   5.396   0.546   5.429 -0.1740  0.2150  0.2609
   60MOL   C17822716   5.441   0.649   5.535  0.0789  0.3285  0.0056
   60MOL   C17922717   5.533   0.932   5.653  0.7494  0.0373  0.1633
   60MOL   H18022718   5.416   0.983   5.468 -0.9259  0.9520  1.1140
   60MOL   H18122719   5.562   0.795   5.426 -0.3451 -0.4968 -1.2612
   60MOL   H18222720   5.440   0.769   5.230 -0.4739 -3.2276  0.6747
   60MOL   H18322721   5.294   0.825   5.301  0.6229  1.1098 -0.6920
   60MOL   H18422722   5.215   0.635   5.373  0.3455  0.9605  0.6557
   60MOL   H18522723   5.299   0.581   5.228 -0.1556 -0.4075  0.4323
   60MOL   H18622724   5.480   0.500   5.376 -0.9796 -3.3148  1.8392
   60MOL   H18722725   5.354   0.453   5.469  1.2758 -0.9151 -0.7995
   60MOL   H18822726   5.366   0.651   5.614  0.1245 -1.4229  0.1111
   60MOL   H18922727   5.529   0.613   5.589 -0.1084  1.3494  1.0171
   60MOL   H19022728   5.488   0.946   5.752 -1.0994  1.1972 -0.8163
   60MOL   H19122729   5.580   0.834   5.661  1.0231  0.1226 -0.4026
   60MOL   C19222730   5.635   1.047   5.636  0.1222 -0.5144  0.4164
   60MOL   C19322731   5.738   1.043   5.520 -0.2353 -0.1625 -0.5485
   60MOL   C19422732   5.850   0.936   5.541  0.7689  0.2059 -0.4424
   60MOL   C19522733   5.964   0.992   5.451 -0.5723  0.6849  0.3049
   60MOL   C19622734   5.922   1.134   5.395 -0.7309  0.7074 -0.6104
   60MOL   C19722735   5.813   1.178   5.490  0.3392  0.4345  0.6213
   60MOL   C19822736   5.713   1.070   5.774 -0.1038  0.0418  0.4781
   60MOL   H19922737   5.575   1.136   5.614  1.2628  0.7591  2.3014
   60MOL   H20022738   5.683   1.026   5.427  1.4263  1.6924 -1.9087
   60MOL   H20122739   5.824   0.835   5.508  3.3760 -0.6563  0.0452
   60MOL   H20222740   5.882   0.925   5.644 -2.3338  2.2976  0.8325
   60MOL   H20322741   6.056   1.012   5.506 -0.8228  0.2074  0.9120
   60MOL   H20422742   5.968   0.916   5.373 -1.0050 -0.3289  1.2560
   60MOL   H20522743   5.884   1.126   5.294 -0.2183  0.0429 -0.7625
   60MOL   H20622744   6.009   1.198   5.380  0.3499 -1.1149 -2.5808
   60MOL   H20722745   5.757   1.266   5.459  0.2002  0.8956  2.1306
   60MOL   H20822746   5.859   1.210   5.583  2.6878 -2.4073  0.5108
   60MOL   H20922747   5.720   0.972   5.820  1.0797 -0.8728 -1.5696
   60MOL   H21022748   5.818   1.097   5.761  0.4122 -1.4890  1.3329
   60MOL   C21122749   5.641   1.172   5.864  0.2838  0.5431  0.2484
   60MOL   C21222750   5.672   1.139   6.019  0.2610 -0.3410  0.0207
   60MOL   C21322751   5.607   1.011   6.073 -0.2419 -0.2052  0.4797
   60MOL   C21422752   5.704   0.974   6.186 -0.5297 -1.5583  0.4586
   60MOL   C21522753   5.826   1.061   6.177 -0.3397 -0.0837  0.3130
   60MOL   C21622754   5.821   1.128   6.052  0.2637 -0.7846 -0.6763
   60MOL   C21722755   5.673   1.319   5.815  0.2514 -0.1888 -0.1512
   60MOL   H21822756   5.533   1.158   5.851  0.0352  1.7912  0.9398
   60MOL   H21922757   5.635   1.217   6.085  1.1121  0.0298  0.0660
   60MOL   H22022758   5.508   1.005   6.120 -0.9963  1.5536 -0.8462
   60MOL   H22122759   5.612   0.925   6.006  1.1973 -0.9899  1.5732
   60MOL   H22222760   5.655   0.982   6.283  1.3455 -1.4852  1.4290
   60MOL   H22322761   5.725   0.868   6.180 -0.3973 -1.6167  1.7680
   60MOL   H22422762   5.914   0.997   6.166  0.1627  1.0541 -2.8400
   60MOL   H22522763   5.845   1.129   6.260  0.5875 -0.9391  0.8234
   60MOL   H22622764   5.873   1.224   6.049 -0.8519 -0.1849 -1.4588
   60MOL   H22722765   5.867   1.074   5.969  1.2297  4.0087 -3.4395
   60MOL   H22822766   5.637   1.326   5.712  1.8297 -1.9348 -0.8530
   60MOL   H22922767   5.781   1.335   5.813 -0.2594  4.2184  0.8221
   60MOL   C23022768   5.601   1.442   5.892 -1.2841 -0.4049  0.4395
   60MOL   C23122769   5.548   1.547   5.788 -0.1180  0.1107  0.5979
   60MOL   C23222770   5.659   1.625   5.706 -0.5706  0.0966 -0.2548
   60MOL   C23322771   5.609   1.624   5.558  0.3181 -0.0048 -0.1533
   60MOL   C23422772   5.451   1.599   5.558  0.6781  0.6081  0.2220
   60MOL   C23522773   5.441   1.505   5.682 -0.2677  0.1336 -0.1499
   60MOL   C23622774   5.692   1.506   5.999 -0.1251  0.8588 -0.0329
   60MOL   H23722775   5.510   1.400   5.935 -1.6637 -0.9533 -0.8828
   60MOL   H23822776   5.495   1.622   5.845 -2.1641 -1.7764  1.2569
   60MOL   H23922777   5.673   1.724   5.748  0.4446  0.3867 -1.2443
   60MOL   H24022778   5.755   1.573   5.706  0.1122  1.3498  0.6402
   60MOL   H24122779   5.630   1.720   5.512  0.9269  0.5608  1.2698
   60MOL   H24222780   5.667   1.554   5.498 -1.5529 -0.6702 -1.2277
   60MOL   H24322781   5.414   1.550   5.469 -0.2573  2.0490 -0.1891
   60MOL   H24422782   5.412   1.700   5.570 -3.0412 -0.9745  2.2676
   60MOL   H24522783   5.454   1.402   5.648 -2.2153 -0.9253  2.1681
   60MOL   H24622784   5.341   1.491   5.723 -0.2721 -1.4435 -0.6751
   60MOL   H24722785   5.755   1.580   5.948 -0.2211  0.1422 -1.2221
   60MOL   H24822786   5.755   1.434   6.050 -1.5950 -0.6115 -0.2388
   60MOL   C24922787   5.601   1.590   6.102  0.5564  0.3410  0.1678
   60MOL   C25022788   5.672   1.716   6.159  0.0772 -0.2956 -0.3633
   60MOL   C25122789   5.692   1.828   6.055  0.2664  0.0991  0.1976
   60MOL   C25222790   5.824   1.907   6.086  0.5027  0.1795 -0.3981
   60MOL   C25322791   5.885   1.841   6.206  0.8062  0.1487 -0.2584
   60MOL   C25422792   5.815   1.699   6.207 -0.7682  0.1695  0.1367
   60MOL   C25522793   5.558   1.498   6.212  0.8839  0.5712  0.4365
   60MOL   H25622794   5.514   1.628   6.050 -0.6134 -1.4711  0.7592
   60MOL   H25722795   5.621   1.762   6.244  0.6607 -0.6385  0.1798
   60MOL   H25822796   5.603   1.890   6.057  0.3943  0.2592  0.8456
   60MOL   H25922797   5.699   1.779   5.957  0.1520 -0.2509  0.3612
   60MOL   H26022798   5.798   2.013   6.093 -0.4049 -0.0538 -0.0640
   60MOL   H26122799   5.898   1.904   6.007  2.5477  0.4562  1.4713
   60MOL   H26222800   5.854   1.885   6.301  0.8633  1.2893 -0.7589
   60MOL   H26322801   5.994   1.830   6.203  0.9599  1.8828 -2.9873
   60MOL   H26422802   5.829   1.646   6.302  0.3793  0.6556  0.2338
   60MOL   H26522803   5.872   1.642   6.134  0.6864 -0.0964  1.4379
   60MOL   H26622804   5.524   1.405   6.168  2.8483 -1.0852  2.2848
   60MOL   H26722805   5.653   1.464   6.253  0.7018  0.1192  0.4812
   60MOL   C26822806   5.460   1.543   6.316 -0.8013 -0.1325 -0.4562
   60MOL   C26922807   5.475   1.458   6.445  0.3515 -1.0257  0.4428
   60MOL   C27022808   5.612   1.466   6.512  0.1512 -0.2000 -0.1642
   60MOL   C27122809   5.673   1.327   6.516 -0.6860 -0.5675  0.1931
   60MOL   C27222810   5.545   1.233   6.525  0.3006 -0.0496 -0.4128
   60MOL   C27322811   5.442   1.305   6.436 -0.5325  0.5932 -0.2055
   60MOL   C27422812   5.309   1.546   6.261 -0.1569  0.3472 -0.4662
   60MOL   H27522813   5.486   1.643   6.352 -0.1146 -1.3882  2.7173
   60MOL   H27622814   5.412   1.502   6.522 -1.4675 -2.1418 -0.3810
   60MOL   H27722815   5.676   1.542   6.467  0.2977 -0.3331 -0.1783
   60MOL   H27822816   5.605   1.507   6.613  0.1652  1.3234 -0.7659
   60MOL   H27922817   5.718   1.306   6.420  1.3991  0.3940  0.9364
   60MOL   H28022818   5.741   1.297   6.596 -0.4055  0.1027  0.2124
   60MOL   H28122819   5.512   1.226   6.629 -1.2171 -0.2315 -0.8932
   60MOL   H28222820   5.561   1.131   6.491  0.4209  0.7834 -2.9720
   60MOL   H28322821   5.342   1.284   6.475 -0.7953  0.5573 -0.8910
   60MOL   H28422822   5.453   1.247   6.344 -0.0650 -1.3112  1.0079
   60MOL   H28522823   5.242   1.497   6.332 -0.0965 -0.1995 -0.7851
   60MOL   H28622824   5.311   1.475   6.179 -0.1277  0.4673 -0.5706
   60MOL   C28722825   5.248   1.680   6.221 -0.0537 -0.3301  0.6525
   60MOL   C28822826   5.143   1.670   6.102 -0.3223  0.2966 -0.1943
   60MOL   C28922827   5.186   1.591   5.977 -0.5885 -0.0474 -0.2805
   60MOL   C29022828   5.055   1.579   5.895 -0.2835  1.1141 -0.7229
   60MOL   C29122829   4.953   1.543   6.007 -0.5886  0.3125  0.0907
   60MOL   C29222830   5.007   1.611   6.137 -0.2152 -0.0362 -0.0867
   60MOL   C29322831   5.185   1.749   6.352  0.1881 -0.5339 -0.1647
   60MOL   H29422832   5.335   1.731   6.182  1.2852 -1.6232  1.8819
   60MOL   H29522833   5.118   1.771   6.071  4.1478  1.3863 -0.5359
   60MOL   H29622834   5.268   1.626   5.914  0.0572  0.0158  0.5993
   60MOL   H29722835   5.216   1.496   6.019  1.1947 -0.0918 -1.6318
   60MOL   H29822836   5.038   1.669   5.836 -0.7331 -0.9111 -3.7784
   60MOL   H29922837   5.059   1.498   5.823  1.3827  1.0633 -0.6102
   60MOL   H30022838   4.947   1.434   6.012  0.2983  0.3181  1.6492
   60MOL   H30122839   4.854   1.577   5.977 -0.9571  1.1680  2.2008
   60MOL   H30222840   5.016   1.538   6.217  0.7338  1.3126  1.0702
   60MOL   H30322841   4.934   1.689   6.160 -0.5405 -0.1086 -0.8607
   60MOL   H30422842   5.247   1.726   6.438  2.8889 -1.1015 -2.1923
   60MOL   H30522843   5.093   1.693   6.372  1.0897 -1.9500  0.1083
   60MOL   C30622844   5.177   1.904   6.337  0.1586  0.0243 -0.2727
   60MOL   C30722845   5.075   1.975   6.437 -0.6525  0.6045  0.1199
   60MOL   C30822846   5.033   2.121   6.393 -0.3959  0.3166 -0.1551
   60MOL   C30922847   4.898   2.150   6.477 -0.0873  0.5042 -0.1419
   60MOL   C31022848   4.854   2.014   6.528 -0.4148  0.3080  0.4699
   60MOL   C31122849   4.942   1.911   6.464 -0.0341  0.1429 -0.6336
   60MOL   C31222850   5.314   1.978   6.321  0.7365  0.1324  0.2231
   60MOL   H31322851   5.124   1.906   6.242 -0.8196 -2.3844  0.1822
   60MOL   H31422852   5.128   1.982   6.532 -1.3755 -0.4489  0.6117
   60MOL   H31522853   5.009   2.137   6.288  0.5240  1.8043 -0.1569
   60MOL   H31622854   5.114   2.192   6.412  0.0176  0.3688 -2.0369
   60MOL   H31722855   4.909   2.208   6.569  1.0999 -2.3420  1.5712
   60MOL   H31822856   4.831   2.203   6.410 -0.3300 -0.8761 -1.0144
   60MOL   H31922857   4.749   1.999   6.503 -0.5018  0.3344  0.8176
   60MOL   H32022858   4.870   2.009   6.636  2.2412  1.4790  0.1803
   60MOL   H32122859   4.955   1.827   6.534  0.4645  0.4754 -0.3210
   60MOL   H32222860   4.897   1.869   6.374  2.5926 -1.1850 -1.3757
   60MOL   H32322861   5.313   2.065   6.256 -0.1637 -1.8735 -2.5203
   60MOL   H32422862   5.382   1.921   6.257 -0.6714  0.1932 -1.3353
   60MOL   C32522863   5.396   2.027   6.449  0.3708 -0.5826 -0.3556
   60MOL   C32622864   5.503   2.140   6.406 -0.0895 -0.4547  0.1113
   60MOL   C32722865   5.457   2.285   6.373  0.0246 -0.2878 -0.1404
   60MOL   C32822866   5.551   2.350   6.272  0.9903  0.0731 -0.2857
   60MOL   C32922867   5.591   2.232   6.193 -0.0551  0.2373 -0.5079
   60MOL   C33022868   5.593   2.108   6.291  0.8954 -0.4219  0.8342
   60MOL   C33122869   5.452   1.911   6.535  0.0024  0.2207 -0.2914
   60MOL   H33222870   5.324   2.088   6.504  2.6437  0.7067  1.3063
   60MOL   H33322871   5.567   2.148   6.494 -1.8178 -0.5474  1.4062
   60MOL   H33422872   5.438   2.348   6.460 -3.2725  2.4691 -2.7229
   60MOL   H33522873   5.359   2.270   6.329  0.9179 -1.2107 -1.9031
   60MOL   H33622874   5.637   2.400   6.316 -0.1475  0.9476  1.0285
   60MOL   H33722875   5.510   2.434   6.216 -0.2370 -1.2532 -1.4078
   60MOL   H33822876   5.684   2.252   6.140 -0.3816  0.2346 -1.0805
   60MOL   H33922877   5.510   2.209   6.125  1.6025 -0.5652 -2.2666
   60MOL   H34022878   5.694   2.092   6.326  1.1530 -1.9122 -0.5195
   60MOL   H34122879   5.575   2.008   6.251 -0.4531 -0.7904  2.2900
   60MOL   H34222880   5.516   1.854   6.468  2.8844  1.8279  1.0305
   60MOL   H34322881   5.371   1.847   6.570 -0.3415  1.5585  1.3715
   60MOL   C34422882   5.531   1.932   6.670  0.0179 -0.5744  0.1255
   60MOL   C34522883   5.658   1.835   6.684  0.3885  0.4648 -1.4726
   60MOL   C34622884   5.741   1.842   6.812 -0.6204  0.3303  0.4062
   60MOL   C34722885   5.884   1.780   6.779  0.4530 -0.1425  0.0145
   60MOL   C34822886   5.882   1.761   6.623 -0.1059 -0.4810 -0.1271
   60MOL   C34922887   5.769   1.847   6.580 -0.0205 -0.0296  0.9884
   60MOL   C35022888   5.451   1.917   6.801  0.1488  0.2934 -0.2950
   60MOL   H35122889   5.587   2.025   6.669  1.6687 -1.5518 -1.2901
   60MOL   H35222890   5.627   1.731   6.678 -4.4154  1.6638  0.3244
   60MOL   H35322891   5.696   1.777   6.887  2.4102 -1.1493  1.0246
   60MOL   H35422892   5.744   1.945   6.848  0.1034  0.2443  0.5918
   60MOL   H35522893   5.960   1.850   6.814  2.4230 -1.0799 -2.2997
   60MOL   H35622894   5.899   1.681   6.824  1.5260 -0.8412 -1.8282
   60MOL   H35722895   5.864   1.657   6.597  0.9998 -0.8654  0.5914
   60MOL   H35822896   5.978   1.789   6.580  1.1059 -2.0879  1.4611
   60MOL   H35922897   5.797   1.950   6.561  1.8568 -0.4059  1.6320
   60MOL   H36022898   5.732   1.813   6.483  1.3912 -0.0233  0.4449
   60MOL   H36122899   5.509   1.941   6.890  0.0395  0.6258 -0.3121
   60MOL   H36222900   5.427   1.811   6.810  0.1107  0.1712 -1.8215
   60MOL   C36322901   5.326   2.006   6.806  0.0921  0.0172  0.2972
   60MOL   C36422902   5.214   1.934   6.890  1.4710 -0.0750 -0.1673
   60MOL   C36522903   5.266   1.886   7.031  0.0587 -0.3327  0.1111
   60MOL   C36622904   5.151   1.815   7.089 -0.4486  0.1874  0.1616
   60MOL   C36722905   5.081   1.746   6.969  1.0574 -0.3083 -0.7695
   60MOL   C36822906   5.138   1.812   6.844  0.5591  0.2366  0.5173
   60MOL   C36922907   5.331   2.152   6.840 -0.4343 -0.3610  0.7440
   60MOL   H37022908   5.280   2.000   6.707 -1.7595 -3.4230  1.2945
   60MOL   H37122909   5.139   2.009   6.912  1.1158 -0.5182  0.1413
   60MOL   H37222910   5.346   1.813   7.025  2.1362  1.8503  0.5645
   60MOL   H37322911   5.299   1.961   7.104  1.4694 -0.5732 -0.2666
   60MOL   H37422912   5.176   1.735   7.159 -0.2340 -1.3660 -1.6800
   60MOL   H37522913   5.085   1.889   7.136  0.1529  0.6826  0.2281
   60MOL   H37622914   5.107   1.640   6.967  1.9184 -0.2361  2.5588
   60MOL   H37722915   4.973   1.746   6.986  1.2615 -2.4092  0.7211
   60MOL   H37822916   5.060   1.831   6.770  0.5844  0.1404  0.4654
   60MOL   H37922917   5.203   1.737   6.800 -1.0379 -1.4298  0.9223
   60MOL   H38022918   5.410   2.201   6.783  0.5277 -1.4892  1.0914
   60MOL   H38122919   5.333   2.183   6.945  1.2065  0.4193  0.4971
   60MOL   H38222920   5.235   2.196   6.811 -1.2513 -1.2870  1.9856
   61MOL     C122921   6.748   3.378   1.610 -0.3488  0.1480 -0.3047
   61MOL     C222922   6.689   3.403   1.751 -0.2809 -0.0928  0.7065
   61MOL     C322923   6.642   3.281   1.825 -0.0197 -0.5404 -0.1485
   61MOL     C422924   6.493   3.284   1.827  0.3805  0.0581  0.5187
   61MOL     C522925   6.460   3.431   1.839  0.3915 -0.1310 -0.3830
   61MOL     C622926   6.565   3.492   1.746  0.5039 -0.5550  0.5546
   61MOL     C722927   6.823   3.501   1.559  0.3779  0.3702  0.4232
   61MOL     H822928   6.826   3.302   1.620  0.1589  0.6076 -0.7489
   61MOL     H922929   6.764   3.441   1.821  1.2445 -0.7687 -0.5430
   61MOL    H1022930   6.683   3.186   1.791  2.4533 -0.3971  2.2295
   61MOL    H1122931   6.681   3.296   1.925  0.7787 -0.1783 -0.5132
   61MOL    H1222932   6.458   3.257   1.727  0.4817  0.6087  0.3368
   61MOL    H1322933   6.457   3.216   1.905 -0.2216 -1.2772 -0.8905
   61MOL    H1422934   6.362   3.456   1.801  0.8254  1.4470 -0.4828
   61MOL    H1522935   6.469   3.473   1.940  1.8599  2.3796 -1.5102
   61MOL    H1622936   6.590   3.596   1.767 -2.0380 -0.3957  3.0286
   61MOL    H1722937   6.520   3.509   1.648  3.5483  3.3709 -0.2808
   61MOL    H1822938   6.742   3.558   1.513 -0.0367 -1.5419 -1.3068
   61MOL    H1922939   6.868   3.554   1.643 -0.4648 -2.2116  2.5948
   61MOL    H2022940   6.666   3.344   1.546  0.2973  0.5717 -1.3722
   61MOL    C2122941   6.928   3.464   1.454 -0.6339  0.3125 -0.4534
   61MOL    C2222942   7.042   3.383   1.519  0.3313  0.2066  0.2636
   61MOL    C2322943   7.090   3.440   1.648  0.7079  0.0629  0.2702
   61MOL    C2422944   7.244   3.407   1.677 -0.3263 -0.6594  0.1651
   61MOL    C2522945   7.289   3.353   1.538 -0.4456  0.4934  0.8209
   61MOL    C2622946   7.173   3.377   1.434 -0.4750  0.3789  0.6775
   61MOL    C2722947   6.855   3.391   1.331 -0.2798 -0.2152 -0.8315
   61MOL    H2822948   6.965   3.561   1.421 -0.2038  0.2666 -0.1056
   61MOL    H2922949   7.014   3.278   1.531  0.2087  0.1472 -0.5309
   61MOL    H3022950   7.034   3.428   1.741  1.4634  0.9227  0.8474
   61MOL    H3122951   7.093   3.548   1.634 -0.1253  0.5218  3.2044
   61MOL    H3222952   7.297   3.501   1.694 -0.1590 -0.6240 -0.5413
   61MOL    H3322953   7.254   3.328   1.751  1.0958  0.5452  1.2929
   61MOL    H3422954   7.300   3.244   1.535  1.3719  0.7001 -0.8752
   61MOL    H3522955   7.387   3.393   1.512  0.4209 -1.4355  0.9966
   61MOL    H3622956   7.179   3.301   1.357  0.8362 -1.4877  2.5787
   61MOL    H3722957   7.187   3.474   1.386  0.0445  0.0830  0.2322
   61MOL    H3822958   6.848   3.286   1.360  3.3751 -0.8524 -1.9620
   61MOL    H3922959   6.751   3.421   1.328 -0.4883 -0.7292  0.9647
   61MOL    C4022960   6.915   3.392   1.190 -0.4888  0.6540 -0.3121
   61MOL    C4122961   6.904   3.258   1.108 -0.2477 -0.1527 -0.4306
   61MOL    C4222962   6.765   3.191   1.093  0.0064 -0.0149  0.5845
   61MOL    C4322963   6.795   3.038   1.071 -0.5360  0.0757  0.5597
   61MOL    C4422964   6.942   3.014   1.080  0.3152  0.6464  0.3933
   61MOL    C4522965   6.997   3.141   1.152  0.8990 -0.0419 -0.2742
   61MOL    C4622966   6.852   3.500   1.097  0.0519  0.9004  0.2903
   61MOL    H4722967   7.022   3.412   1.201 -0.5384  0.3824  0.6905
   61MOL    H4822968   6.954   3.281   1.014  1.8755 -0.4353  0.5931
   61MOL    H4922969   6.697   3.235   1.020 -0.2034 -1.2403  0.0417
   61MOL    H5022970   6.712   3.195   1.188  0.4748 -0.2442  0.8600
   61MOL    H5122971   6.765   3.007   0.971 -0.0424 -0.9040  0.7054
   61MOL    H5222972   6.737   2.995   1.152  1.8138 -0.2448  2.1016
   61MOL    H5322973   6.975   2.920   1.125  2.2707  1.1587  0.0703
   61MOL    H5422974   6.980   3.010   0.977  0.3947  0.8380  0.4154
   61MOL    H5522975   6.982   3.123   1.259 -1.8951  1.7047 -0.3037
   61MOL    H5622976   7.104   3.159   1.148  0.9288 -0.1517  0.0037
   61MOL    H5722977   6.869   3.485   0.991 -0.8665  1.7746  0.0110
   61MOL    H5822978   6.744   3.483   1.102  0.3433 -0.9526  0.8388
   61MOL    C5922979   6.897   3.649   1.130 -0.7036 -0.6978 -0.4348
   61MOL    C6022980   7.042   3.682   1.083 -0.1068  0.4931 -0.3886
   61MOL    C6122981   7.120   3.788   1.157  0.4449  0.8070  0.2680
   61MOL    C6222982   7.205   3.859   1.053  0.3320 -0.2063 -0.6059
   61MOL    C6322983   7.200   3.764   0.931  0.0569  0.0290  0.1779
   61MOL    C6422984   7.054   3.718   0.933  0.4564 -0.0189  0.7028
   61MOL    C6522985   6.808   3.768   1.085  0.3489 -0.2277  0.8123
   61MOL    H6622986   6.901   3.645   1.239  3.1651 -4.8919 -0.6127
   61MOL    H6722987   7.097   3.588   1.087 -1.1616 -0.1286 -0.5094
   61MOL    H6822988   7.194   3.742   1.222  0.4580  0.2883 -0.1159
   61MOL    H6922989   7.066   3.860   1.219 -1.2531  0.5401 -0.8622
   61MOL    H7022990   7.308   3.884   1.082  0.1488  1.1260 -1.0460
   61MOL    H7122991   7.152   3.951   1.029 -1.3970 -1.0736 -0.1374
   61MOL    H7222992   7.263   3.679   0.957  1.5679  1.1942  0.4080
   61MOL    H7322993   7.226   3.806   0.834  0.1195 -1.1405 -0.3184
   61MOL    H7422994   6.989   3.800   0.901 -0.6849 -0.7343  1.1506
   61MOL    H7522995   7.030   3.630   0.873  1.0399 -1.6482  2.8140
   61MOL    H7622996   6.793   3.742   0.981  1.0332 -1.1280  0.9362
   61MOL    H7722997   6.860   3.864   1.091  0.3964 -0.3204  2.0243
   61MOL    C7822998   6.670   3.789   1.154 -0.4527  0.3005  0.0644
   61MOL    C7922999   6.680   3.797   1.312 -0.7785 -0.4881  0.2133
   61MOL    C8023000   6.546   3.802   1.397  0.4053  0.0717 -0.0066
   61MOL    C8123001   6.592   3.860   1.527  0.3311 -0.5392  1.0050
   61MOL    C8223002   6.733   3.914   1.516  0.0908 -0.1180  0.0165
   61MOL    C8323003   6.776   3.905   1.368 -0.2534 -0.0540  0.1050
   61MOL    C8423004   6.603   3.910   1.088  0.2916 -0.1586  0.4584
   61MOL    H8523005   6.604   3.703   1.139 -2.2884  1.4891  1.0750
   61MOL    H8623006   6.725   3.701   1.339 -4.7895 -1.9333  2.1036
   61MOL    H8723007   6.495   3.705   1.399 -0.0765  0.3278  2.5906
   61MOL    H8823008   6.478   3.865   1.341 -0.2655 -1.0295 -0.4517
   61MOL    H8923009   6.575   3.800   1.616 -0.5813  0.6396  1.6496
   61MOL    H9023010   6.537   3.954   1.537  0.3100 -0.7141  2.5653
   61MOL    H9123011   6.744   4.014   1.557  0.7781 -0.3769  0.4752
   61MOL    H9223012   6.792   3.834   1.560 -1.8532 -0.1972  2.5926
   61MOL    H9323013   6.766   4.007   1.332 -2.0477  0.0684  0.9053
   61MOL    H9423014   6.882   3.885   1.352  0.0557  1.1915  0.5730
   61MOL    H9523015   6.670   3.979   1.037  0.6958 -0.2621  0.8414
   61MOL    H9623016   6.566   3.978   1.165  0.4470 -1.0490  1.3372
   61MOL    C9723017   6.490   3.881   0.986  0.9622 -0.0610  0.4268
   61MOL    C9823018   6.362   3.823   1.066  0.4216  0.5686  0.2493
   61MOL    C9923019   6.299   3.947   1.132  0.4513 -0.9925 -0.4038
   61MOL   C10023020   6.157   3.901   1.160 -0.8011  0.0640  0.3497
   61MOL   C10123021   6.118   3.781   1.074 -0.4080 -0.0150  0.0543
   61MOL   C10223022   6.241   3.751   0.989 -0.0741  0.3506  0.1272
   61MOL   C10323023   6.528   3.789   0.866  0.8136  0.5578 -0.5137
   61MOL   H10423024   6.455   3.972   0.939 -1.1092 -1.6867 -1.2992
   61MOL   H10523025   6.396   3.744   1.132  1.3181  1.0765  0.4061
   61MOL   H10623026   6.340   3.991   1.223  0.2631 -0.8088 -0.4090
   61MOL   H10723027   6.297   4.026   1.058  0.7217  0.1929  0.8287
   61MOL   H10823028   6.086   3.981   1.138 -0.2326  0.8642  1.3691
   61MOL   H10923029   6.128   3.880   1.263 -1.1362 -3.2058 -0.3605
   61MOL   H11023030   6.029   3.813   1.020 -1.7470  0.5397  2.5436
   61MOL   H11123031   6.084   3.696   1.132  0.9951 -0.9842 -0.4941
   61MOL   H11223032   6.266   3.648   0.963  0.2847  1.0178 -2.2761
   61MOL   H11323033   6.215   3.800   0.895 -2.7801  0.8592  1.1002
   61MOL   H11423034   6.561   3.696   0.912  0.4839  0.1115 -1.1705
   61MOL   H11523035   6.437   3.756   0.815  0.8735 -0.1041 -0.1944
   61MOL   C11623036   6.639   3.818   0.762 -0.2155  0.3988 -0.1792
   61MOL   C11723037   6.693   3.682   0.711  0.0556 -0.4200  0.7277
   61MOL   C11823038   6.600   3.594   0.640  1.0381 -0.0304  0.1633
   61MOL   C11923039   6.693   3.492   0.568 -0.2880  0.3254 -0.0727
   61MOL   C12023040   6.834   3.529   0.586  0.3279  0.2986 -0.3340
   61MOL   C12123041   6.821   3.677   0.628  0.2662 -0.5891  0.1678
   61MOL   C12223042   6.599   3.909   0.646  0.6427 -0.2236  0.3676
   61MOL   H12323043   6.723   3.866   0.811 -1.0545  0.3886  1.2842
   61MOL   H12423044   6.726   3.635   0.803  0.3149 -0.6815  0.5030
   61MOL   H12523045   6.531   3.537   0.701 -0.4448  1.3823 -0.1613
   61MOL   H12623046   6.554   3.653   0.561 -0.9062  0.6148  1.7326
   61MOL   H12723047   6.675   3.496   0.461 -0.7996  0.1258  0.0064
   61MOL   H12823048   6.689   3.387   0.596  0.1032  0.7655  1.7239
   61MOL   H12923049   6.885   3.497   0.495 -0.3429  2.7670 -1.6012
   61MOL   H13023050   6.870   3.460   0.662  2.3204  1.9115  0.2317
   61MOL   H13123051   6.907   3.704   0.690  0.2665 -1.7094  0.6819
   61MOL   H13223052   6.820   3.752   0.549 -0.0564 -0.4925  0.2614
   61MOL   H13323053   6.502   3.873   0.611  0.7656 -0.2518  0.0497
   61MOL   H13423054   6.673   3.897   0.567  1.5715 -2.2499  1.5137
   61MOL   C13523055   6.580   4.058   0.676  0.3661 -0.9191 -0.7881
   61MOL   C13623056   6.471   4.121   0.582 -0.2051 -0.5741  0.5178
   61MOL   C13723057   6.325   4.093   0.608 -0.1694  0.4316  0.2007
   61MOL   C13823058   6.260   4.117   0.470  0.1403  0.3757 -0.6586
   61MOL   C13923059   6.375   4.157   0.367 -0.2661  0.0269  0.2202
   61MOL   C14023060   6.497   4.100   0.433 -0.2525  0.0511 -0.1161
   61MOL   C14123061   6.720   4.126   0.682 -1.0096 -0.0757 -0.2039
   61MOL   H14223062   6.540   4.070   0.777 -0.5384  1.1829 -1.3640
   61MOL   H14323063   6.473   4.230   0.588 -0.1925 -0.3784 -2.3465
   61MOL   H14423064   6.305   3.993   0.645 -1.3453  1.1628  1.5727
   61MOL   H14523065   6.289   4.155   0.690 -1.5364  0.4955 -0.4384
   61MOL   H14623066   6.181   4.191   0.477  0.4053  0.5685  0.3398
   61MOL   H14723067   6.209   4.027   0.435  0.4514 -1.1563  2.7158
   61MOL   H14823068   6.402   4.263   0.364 -2.0862  0.4913 -0.0757
   61MOL   H14923069   6.349   4.117   0.269 -0.1793  1.0028 -0.2070
   61MOL   H15023070   6.515   3.995   0.409 -2.6898 -0.0740 -1.5881
   61MOL   H15123071   6.593   4.146   0.410 -1.1603  0.3254 -3.7733
   61MOL   H15223072   6.767   4.115   0.585  1.5840  0.8872  0.8949
   61MOL   H15323073   6.783   4.067   0.749 -0.7215  0.4057 -0.0482
   61MOL   C15423074   6.732   4.272   0.723  0.3656 -0.3805  0.0995
   61MOL   C15523075   6.704   4.284   0.877  0.0509 -0.3079 -0.0660
   61MOL   C15623076   6.654   4.429   0.919 -0.1202  0.2678  0.0440
   61MOL   C15723077   6.712   4.453   1.058  0.5572 -0.5425  0.1241
   61MOL   C15823078   6.761   4.318   1.101  0.3800  0.0208 -0.5950
   61MOL   C15923079   6.808   4.243   0.979  0.3010  0.7781 -0.1930
   61MOL   C16023080   6.875   4.330   0.689 -0.0050  0.3722 -0.1070
   61MOL   H16123081   6.653   4.329   0.676  1.5494  0.4439 -0.9006
   61MOL   H16223082   6.619   4.221   0.900  1.3390 -1.9261  0.3588
   61MOL   H16323083   6.685   4.512   0.856 -0.2967 -1.0840 -1.8954
   61MOL   H16423084   6.545   4.419   0.922 -0.0914 -0.3154 -0.5440
   61MOL   H16523085   6.796   4.522   1.051  0.0767  0.2249  1.6664
   61MOL   H16623086   6.644   4.496   1.131  2.5339  1.1627  1.0158
   61MOL   H16723087   6.686   4.264   1.158 -1.7252  2.3821 -1.0523
   61MOL   H16823088   6.841   4.334   1.174  0.5717 -0.7501 -0.6333
   61MOL   H16923089   6.809   4.134   0.979 -1.2868  0.7410  1.2107
   61MOL   H17023090   6.901   4.290   0.947  0.9292 -1.1208 -1.2521
   61MOL   H17123091   6.949   4.257   0.722  0.0650  0.7397  0.5336
   61MOL   H17223092   6.893   4.423   0.743 -0.2001 -0.4045  1.3236
   61MOL   C17323093   6.911   4.355   0.537  0.3800 -0.8261 -0.5394
   61MOL   C17423094   7.048   4.440   0.541  0.4342 -0.5143 -0.2065
   61MOL   C17523095   7.111   4.463   0.411 -0.4775 -0.1099  0.3940
   61MOL   C17623096   7.255   4.502   0.435  0.0806 -0.4997  0.3706
   61MOL   C17723097   7.290   4.428   0.561 -0.4792  0.6571  0.1325
   61MOL   C17823098   7.160   4.374   0.614 -0.1876 -0.4563  0.1955
   61MOL   C17923099   6.793   4.421   0.461 -0.5669 -0.9458  1.2011
   61MOL   H18023100   6.917   4.258   0.488  1.7086 -0.7068 -0.6412
   61MOL   H18123101   7.034   4.534   0.594  1.1098 -2.3673  3.4411
   61MOL   H18223102   7.077   4.542   0.343  1.6224 -1.5586 -2.4782
   61MOL   H18323103   7.130   4.374   0.350  1.2899  0.9973 -0.7562
   61MOL   H18423104   7.321   4.484   0.350  1.1889  0.6759  0.9571
   61MOL   H18523105   7.265   4.606   0.467  0.1865 -1.4424  3.6057
   61MOL   H18623106   7.342   4.494   0.630 -0.8195  0.6545  0.3912
   61MOL   H18723107   7.359   4.349   0.530 -0.0196  1.8490 -2.0261
   61MOL   H18823108   7.159   4.270   0.579  1.6819  0.2793 -2.1656
   61MOL   H18923109   7.144   4.377   0.722 -0.5584  2.6533  0.0793
   61MOL   H19023110   6.825   4.393   0.360  2.9358  2.4043  1.2532
   61MOL   H19123111   6.698   4.372   0.484 -1.3634  0.1116  0.1937
   61MOL   C19223112   6.776   4.578   0.464  0.4787 -0.1766 -0.4229
   61MOL   C19323113   6.710   4.633   0.591  0.1813 -0.3300 -0.3359
   61MOL   C19423114   6.553   4.623   0.619  0.4569 -0.6280  0.8516
   61MOL   C19523115   6.522   4.726   0.729  0.1132 -0.1675 -0.0031
   61MOL   C19623116   6.635   4.830   0.724  0.2073 -0.0825 -0.0271
   61MOL   C19723117   6.740   4.784   0.618 -0.7577  0.2580  0.4845
   61MOL   C19823118   6.705   4.615   0.333 -0.1790  0.5048  0.5197
   61MOL   H19923119   6.876   4.621   0.460  0.3468  0.2022  0.2686
   61MOL   H20023120   6.748   4.573   0.672  1.0287  0.8737  0.1707
   61MOL   H20123121   6.510   4.525   0.639 -1.2384  0.4635  2.7727
   61MOL   H20223122   6.491   4.647   0.533 -0.0637 -0.1018  1.3706
   61MOL   H20323123   6.425   4.772   0.712 -0.2050 -0.4112  1.1394
   61MOL   H20423124   6.514   4.666   0.820  3.2314 -0.6259  0.0332
   61MOL   H20523125   6.683   4.835   0.821 -3.0254  1.3640  1.5761
   61MOL   H20623126   6.595   4.929   0.704 -2.0462 -1.1849 -1.2135
   61MOL   H20723127   6.841   4.809   0.651  0.3261 -0.5089 -2.1020
   61MOL   H20823128   6.728   4.841   0.526 -2.4963 -1.6240 -0.4814
   61MOL   H20923129   6.621   4.545   0.325  0.1529  0.2648 -1.1409
   61MOL   H21023130   6.637   4.700   0.336 -1.0194 -0.1177 -0.3793
   61MOL   C21123131   6.778   4.600   0.202  0.4164  0.0007 -0.0275
   61MOL   C21223132   6.702   4.510   0.101  0.1234  0.2190 -0.8354
   61MOL   C21323133   6.691   4.362   0.119 -0.1363 -0.8015  0.3039
   61MOL   C21423134   6.560   4.320   0.044  0.1084  0.1256  0.3130
   61MOL   C21523135   6.468   4.444   0.069 -0.3749 -0.5468  0.0583
   61MOL   C21623136   6.563   4.564   0.053  0.0847  0.1474  0.6036
   61MOL   C21723137   6.809   4.741   0.151  0.2288 -0.2990 -0.6636
   61MOL   H21823138   6.874   4.558   0.232  0.4263  0.7376  1.0033
   61MOL   H21923139   6.771   4.509   0.016  1.2533  1.5583  0.0642
   61MOL   H22023140   6.787   4.313   0.101 -0.3496 -0.7886 -0.8969
   61MOL   H22123141   6.665   4.334   0.221  0.5601 -0.3308  0.6141
   61MOL   H22223142   6.581   4.292   7.631  0.2115 -1.5074  0.7583
   61MOL   H22323143   6.512   4.227   0.075  2.4200 -1.2334 -0.1411
   61MOL   H22423144   6.434   4.445   0.173 -0.6084  1.4236 -0.0103
   61MOL   H22523145   6.387   4.449   7.686  1.7717  0.3069 -2.3550
   61MOL   H22623146   6.559   4.600   7.639  2.5425  0.3736  0.5356
   61MOL   H22723147   6.516   4.646   0.108 -0.8864  1.6116 -2.2872
   61MOL   H22823148   6.829   4.798   0.241 -0.4923 -0.6612 -0.2683
   61MOL   H22923149   6.715   4.781   0.114 -0.1006 -2.3635 -2.2001
   61MOL   C23023150   6.914   4.762   0.042  0.1617  0.0949  0.1593
   61MOL   C23123151   7.055   4.749   0.101  0.8234  0.4877  0.1671
   61MOL   C23223152   7.165   4.728   7.685  0.1639 -0.2017  0.6171
   61MOL   C23323153   7.282   4.825   0.036 -0.4534 -0.6715 -0.1200
   61MOL   C23423154   7.259   4.856   0.176  0.2334 -0.2885 -0.7055
   61MOL   C23523155   7.104   4.850   0.198 -0.9251  0.5305 -0.4425
   61MOL   C23623156   6.896   4.900   7.657 -0.3795  0.0033  0.7757
   61MOL   H23723157   6.905   4.679   7.662 -1.5350  2.3119 -2.3548
   61MOL   H23823158   7.063   4.650   0.147  1.3410  0.1799 -0.5584
   61MOL   H23923159   7.189   4.622   0.002 -1.8890 -0.8556 -1.8963
   61MOL   H24023160   7.124   4.738   7.585  1.8594 -2.3589 -0.3211
   61MOL   H24123161   7.383   4.785   0.023  0.0004 -0.7847  3.1650
   61MOL   H24223162   7.271   4.908   7.657 -0.6737 -1.4512 -1.0340
   61MOL   H24323163   7.312   4.947   0.204  1.6454 -1.3677  0.2147
   61MOL   H24423164   7.305   4.775   0.233 -0.0122  0.4657  0.5960
   61MOL   H24523165   7.051   4.944   0.184  0.9241  1.6203 -0.2586
   61MOL   H24623166   7.087   4.827   0.304  2.2268 -0.4336 -0.0963
   61MOL   H24723167   6.983   4.907   7.592  1.0455  0.9087  2.7473
   61MOL   H24823168   6.903   4.990   0.028  2.0889  0.4454 -0.1107
   61MOL   C24923169   6.769   4.903   7.565 -0.3388 -0.3435 -0.1345
   61MOL   C25023170   6.807   4.885   7.413  0.1881 -0.3026 -0.3299
   61MOL   C25123171   6.677   4.866   7.332  0.7269 -0.1240 -0.2651
   61MOL   C25223172   6.718   4.802   7.199  0.0334  0.7932  0.1708
   61MOL   C25323173   6.819   4.700   7.246 -0.2063  0.1931 -0.1984
   61MOL   C25423174   6.884   4.760   7.372  0.4473 -0.3281 -0.6455
   61MOL   C25523175   6.690   5.031   7.602  0.1645  0.1170  0.3685
   61MOL   H25623176   6.708   4.815   7.585 -0.6747 -0.4425 -1.5545
   61MOL   H25723177   6.877   4.966   7.391  1.0972 -0.5973  1.4408
   61MOL   H25823178   6.624   4.959   7.312  1.2564 -0.1412 -1.8311
   61MOL   H25923179   6.615   4.797   7.390 -2.0419  2.2152 -0.3202
   61MOL   H26023180   6.757   4.880   7.135 -0.0672  1.7997  1.3238
   61MOL   H26123181   6.627   4.760   7.155  1.2389 -2.2954  0.4739
   61MOL   H26223182   6.883   4.656   7.170  0.0336 -1.3189  0.8530
   61MOL   H26323183   6.766   4.613   7.285 -1.1506 -0.0004 -1.9019
   61MOL   H26423184   6.985   4.778   7.336  0.7822 -2.4039 -0.7839
   61MOL   H26523185   6.899   4.690   7.454 -2.8896 -1.5481 -0.9820
   61MOL   H26623186   6.604   5.034   7.536  2.3441  0.0370 -2.6108
   61MOL   H26723187   6.662   5.024   0.017 -1.1699 -0.7939 -0.0403
   61MOL   C26823188   6.759   5.173   7.591 -0.0881 -0.4084  0.2199
   61MOL   C26923189   6.719   5.266   0.020 -0.4274  0.1545 -0.6501
   61MOL   C27023190   6.779   5.223   0.158 -0.2370  0.1553  0.7091
   61MOL   C27123191   6.685   5.284   0.265 -0.5340  0.0933 -0.0370
   61MOL   C27223192   6.569   5.350   0.202 -0.1726  0.6898  0.1985
   61MOL   C27323193   6.572   5.293   0.056  0.0503 -0.0113 -0.4628
   61MOL   C27423194   6.737   5.242   7.457  0.3502  0.0358  0.3174
   61MOL   H27523195   6.868   5.164   7.595 -0.0743  0.3845  1.8677
   61MOL   H27623196   6.761   5.366   0.005  0.8031 -0.0706  1.2113
   61MOL   H27723197   6.784   5.115   0.167  3.1876  0.4044  2.9942
   61MOL   H27823198   6.876   5.270   0.177 -0.8199  2.1483 -1.0057
   61MOL   H27923199   6.650   5.207   0.335  0.3430 -1.0333 -0.8079
   61MOL   H28023200   6.736   5.359   0.325 -2.1663  1.2405 -0.0828
   61MOL   H28123201   6.589   5.456   0.214  0.0611  0.7022 -0.2842
   61MOL   H28223202   6.474   5.325   0.249 -0.2524 -0.6591 -0.6567
   61MOL   H28323203   6.514   5.357   7.680 -1.5696  0.5460  1.4469
   61MOL   H28423204   6.525   5.195   0.065 -1.3082  0.4888 -1.9532
   61MOL   H28523205   6.630   5.262   7.448  0.5451  1.5468  1.2678
   61MOL   H28623206   6.757   5.164   7.383 -1.3243 -0.4046  0.2941
   61MOL   C28723207   6.807   5.379   7.422  0.2597 -0.1066  0.3065
   61MOL   C28823208   6.851   5.379   7.273  0.0682 -0.3239  0.1464
   61MOL   C28923209   6.957   5.274   7.224  0.3915 -0.4721 -0.4151
   61MOL   C29023210   6.923   5.232   7.080 -0.5817  0.0789 -0.2179
   61MOL   C29123211   6.818   5.325   7.036 -0.0447 -0.0688  0.4091
   61MOL   C29223212   6.733   5.356   7.162 -0.3580 -0.1548  0.2410
   61MOL   C29323213   6.712   5.496   7.449  1.0932 -0.5761  0.2982
   61MOL   H29423214   6.895   5.389   7.485  1.6741  0.2955 -1.6840
   61MOL   H29523215   6.884   5.482   7.256  1.4665 -0.8783 -0.5590
   61MOL   H29623216   7.059   5.314   7.224  0.1381  0.2080 -1.7368
   61MOL   H29723217   6.962   5.184   7.286 -1.0898 -1.3341 -1.5229
   61MOL   H29823218   7.016   5.232   7.023 -0.1639  0.0195  0.4670
   61MOL   H29923219   6.885   5.129   7.079 -0.3753 -0.0150 -2.3498
   61MOL   H30023220   6.746   5.279   6.968 -0.9107  1.2919  0.3804
   61MOL   H30123221   6.859   5.413   6.987 -1.6623  1.2291  1.3442
   61MOL   H30223222   6.660   5.278   7.182 -1.4810  0.6804 -0.5434
   61MOL   H30323223   6.672   5.445   7.150  1.1292  0.4892 -3.4497
   61MOL   H30423224   6.672   5.485   7.550 -1.8460 -1.9185 -0.9568
   61MOL   H30523225   6.624   5.486   7.387  0.9057  0.0952  0.4581
   61MOL   C30623226   6.756   5.646   7.432 -0.0752  0.3650 -0.3257
   61MOL   C30723227   6.646   5.736   7.355  1.0290 -0.0802  0.4027
   61MOL   C30823228   6.512   5.747   7.439  0.2810  0.1146 -0.4121
   61MOL   C30923229   6.456   5.888   7.424  1.2784 -0.6873 -0.0294
   61MOL   C31023230   6.537   5.954   7.318 -0.4313 -0.0593 -0.2404
   61MOL   C31123231   6.671   5.884   7.315 -0.2294  0.0728 -0.7407
   61MOL   C31223232   6.787   5.707   7.571  0.8807 -0.9291  0.0816
   61MOL   H31323233   6.850   5.656   7.377 -0.2263  0.6918 -0.5298
   61MOL   H31423234   6.605   5.690   7.265  2.8134 -2.2789  0.6714
   61MOL   H31523235   6.542   5.738   7.543 -1.2992 -0.9006 -0.0410
   61MOL   H31623236   6.435   5.674   7.417 -1.0437  1.6261 -0.9471
   61MOL   H31723237   6.350   5.885   7.398  1.7310 -0.8318 -1.8766
   61MOL   H31823238   6.464   5.941   7.519  0.7142 -1.3423  0.3905
   61MOL   H31923239   6.550   6.059   7.345  0.8741 -0.4283  0.6596
   61MOL   H32023240   6.487   5.941   7.222  0.7221 -0.8318 -0.7504
   61MOL   H32123241   6.729   5.892   7.223 -4.5318  2.4081 -3.3927
   61MOL   H32223242   6.732   5.928   7.394 -0.3593 -2.7454  0.9921
   61MOL   H32323243   6.719   5.660   7.642  1.0598  1.5739  1.9696
   61MOL   H32423244   6.749   5.809   7.580  0.0812 -1.1884 -0.2946
   61MOL   C32523245   6.933   5.718   7.628 -0.0719 -0.0269  0.2481
   61MOL   C32623246   6.939   5.716   0.096 -0.4758  0.0646 -0.3606
   61MOL   C32723247   6.888   5.590   0.166  0.1299 -0.1377 -0.6443
   61MOL   C32823248   6.830   5.635   0.299 -0.0905 -0.3446 -0.2242
   61MOL   C32923249   6.774   5.771   0.278 -0.1079 -0.1796 -0.2445
   61MOL   C33023250   6.856   5.830   0.162 -0.2046  0.2827  0.1172
   61MOL   C33123251   7.006   5.846   7.573  0.0356 -0.1481 -0.5926
   61MOL   H33223252   6.975   5.626   7.589 -1.0309 -0.3645  0.0001
   61MOL   H33323253   7.035   5.745   0.140 -0.5793 -0.4053  0.1821
   61MOL   H33423254   6.970   5.522   0.189 -1.4317 -2.3814 -1.5619
   61MOL   H33523255   6.823   5.534   0.099 -0.6778  0.3324 -0.2730
   61MOL   H33623256   6.920   5.638   0.360  1.0141  0.2832 -1.8361
   61MOL   H33723257   6.765   5.571   0.358 -1.9334  1.8688  0.2112
   61MOL   H33823258   6.795   5.848   0.352  0.6376 -0.9912  0.3994
   61MOL   H33923259   6.667   5.770   0.258 -0.3317  0.3145  0.9042
   61MOL   H34023260   6.926   5.897   0.211  2.4351 -1.4487 -1.1899
   61MOL   H34123261   6.791   5.886   0.094  0.0360 -0.0319 -0.3758
   61MOL   H34223262   7.039   5.916   7.650 -0.7589 -2.4835  1.9303
   61MOL   H34323263   6.939   5.912   7.516  0.5557 -0.2370 -1.3090
   61MOL   C34423264   7.122   5.814   7.476 -0.0240  0.2661 -0.4469
   61MOL   C34523265   7.240   5.771   7.561 -0.5020  0.2887  0.1597
   61MOL   C34623266   7.331   5.889   7.611  0.8033  0.5352 -0.5409
   61MOL   C34723267   7.457   5.817   7.635  0.1305 -0.0314  0.4491
   61MOL   C34823268   7.478   5.709   7.528 -0.4296  0.0349 -0.6248
   61MOL   C34923269   7.334   5.683   7.479 -0.2876  0.1359  0.3939
   61MOL   C35023270   7.146   5.931   7.380  0.0104 -0.2264 -0.8175
   61MOL   H35123271   7.096   5.731   7.410 -0.4186 -1.2947  1.6361
   61MOL   H35223272   7.208   5.715   7.649  1.0404 -1.6580 -0.4819
   61MOL   H35323273   7.286   5.928   0.013  0.4787 -0.5749 -0.2179
   61MOL   H35423274   7.335   5.964   7.532 -1.2932 -1.1633 -2.3234
   61MOL   H35523275   7.531   5.897   7.630 -1.1853  1.1579 -0.2663
   61MOL   H35623276   7.465   5.774   0.045 -3.1605  0.7691  1.1153
   61MOL   H35723277   7.528   5.617   7.561 -0.7706 -0.2017 -0.7720
   61MOL   H35823278   7.540   5.759   7.454 -2.1079  3.2840  0.0720
   61MOL   H35923279   7.333   5.696   7.370  0.4873 -1.6858  0.1502
   61MOL   H36023280   7.306   5.580   7.502 -2.7210  0.7662  0.4440
   61MOL   H36123281   7.249   5.928   7.346 -0.3942 -2.2351 -1.9876
   61MOL   H36223282   7.138   6.020   7.442  0.6987 -1.0587  0.4885
   61MOL   C36323283   7.069   5.942   7.246 -0.8589 -0.4485 -0.4904
   61MOL   C36423284   7.131   6.059   7.164  1.0493  0.3381 -0.2449
   61MOL   C36523285   7.131   6.190   7.238  1.1842  0.1832 -0.0428
   61MOL   C36623286   7.127   6.304   7.138  0.3977 -0.0179  0.3426
   61MOL   C36723287   7.073   6.245   7.010  0.4422 -0.4197  0.6732
   61MOL   C36823288   7.046   6.102   7.046  0.2696 -0.0745 -0.4418
   61MOL   C36923289   7.077   5.815   7.159 -0.8286 -0.9944 -0.7319
   61MOL   H37023290   6.961   5.958   7.257 -0.7533 -0.7686  1.1590
   61MOL   H37123291   7.232   6.047   7.125  0.5978 -2.3707 -0.6506
   61MOL   H37223292   7.040   6.198   7.297  0.6970  0.0948 -0.7859
   61MOL   H37323293   7.214   6.203   7.308  1.6128 -0.7474 -0.3635
   61MOL   H37423294   7.072   6.392   7.172 -0.2845 -0.0517 -0.6373
   61MOL   H37523295   7.226   6.346   7.118 -0.6866  2.0277 -1.0003
   61MOL   H37623296   6.983   6.290   6.967  1.2422  1.0737  0.5557
   61MOL   H37723297   7.155   6.249   6.938 -0.4673 -0.1288 -0.3658
   61MOL   H37823298   7.076   6.042   6.960 -1.7447 -0.8399 -0.6373
   61MOL   H37923299   6.942   6.071   7.061  0.2318  0.1561 -0.2122
   61MOL   H38023300   7.038   5.822   7.058  0.7411 -0.0288 -1.2850
   61MOL   H38123301   7.012   5.738   7.202 -1.0905 -0.3383  0.0731
   61MOL   H38223302   7.181   5.783   7.158  0.0191  1.6526 -1.1700
   62MOL     C123303   3.853   5.323   2.448 -0.4527  0.1229 -0.3064
   62MOL     C223304   3.885   5.228   2.333 -0.6949  0.4983 -0.2370
   62MOL     C323305   4.023   5.179   2.342 -0.0887  0.0978 -0.1914
   62MOL     C423306   4.082   5.155   2.201 -0.2120  0.2956 -1.3072
   62MOL     C523307   3.982   5.232   2.104  0.2263 -0.3252  0.3672
   62MOL     C623308   3.879   5.302   2.200  0.2219 -0.4379  0.2792
   62MOL     C723309   3.838   5.266   2.588 -0.0983 -0.0339 -0.1528
   62MOL     H823310   3.918   5.410   2.449 -2.9478  2.0328  0.5668
   62MOL     H923311   3.807   5.151   2.329  0.1002 -0.3979  1.0894
   62MOL    H1023312   4.090   5.242   2.401  0.4140 -2.2950  1.8693
   62MOL    H1123313   4.026   5.083   2.394 -1.2291 -0.4463 -1.0974
   62MOL    H1223314   4.183   5.195   2.197  0.1881 -0.7495 -2.0440
   62MOL    H1323315   4.075   5.050   2.170 -0.0502  0.2914 -1.3263
   62MOL    H1423316   4.039   5.293   2.033  0.6832  0.4086  1.3556
   62MOL    H1523317   3.917   5.171   2.041 -1.0091  1.5953 -0.2494
   62MOL    H1623318   3.781   5.321   2.156  0.6380 -0.0344 -0.4872
   62MOL    H1723319   3.920   5.403   2.208  0.7376 -0.7305  1.3897
   62MOL    H1823320   3.780   5.175   2.580 -1.8964  1.0809 -0.0413
   62MOL    H1923321   3.938   5.241   2.624  0.4996  2.0771 -0.2845
   62MOL    H2023322   3.761   5.375   2.420 -0.6026  0.7909  1.3891
   62MOL    C2123323   3.773   5.369   2.678 -0.2157 -0.6216  0.0994
   62MOL    C2223324   3.870   5.499   2.685 -0.6565  0.2357  0.1261
   62MOL    C2323325   4.010   5.465   2.737 -0.4249 -0.4903  0.3311
   62MOL    C2423326   4.056   5.597   2.791 -0.2780  0.2194 -0.3297
   62MOL    C2523327   3.932   5.663   2.851 -0.2413 -0.6359  0.2153
   62MOL    C2623328   3.812   5.593   2.779 -0.7367 -0.2002 -0.1160
   62MOL    C2723329   3.622   5.420   2.630 -0.6983 -0.3206  0.2001
   62MOL    H2823330   3.771   5.338   2.782  2.6942 -2.0506 -0.2242
   62MOL    H2923331   3.875   5.556   2.593 -0.7752  1.9553  1.1515
   62MOL    H3023332   4.076   5.426   2.659  1.2716 -0.6643  1.8286
   62MOL    H3123333   4.010   5.398   2.823 -0.9107 -0.2233  0.5449
   62MOL    H3223334   4.142   5.576   2.855  1.7290 -0.3453 -3.1113
   62MOL    H3323335   4.098   5.658   2.710  2.4927  0.1920  1.0377
   62MOL    H3423336   3.935   5.771   2.834 -0.8582 -0.7044 -0.3484
   62MOL    H3523337   3.942   5.652   2.959  0.7789  0.3128  0.2273
   62MOL    H3623338   3.748   5.669   2.733 -0.2188  0.2447 -0.1068
   62MOL    H3723339   3.732   5.552   2.841 -0.4602 -2.0872 -0.9834
   62MOL    H3823340   3.575   5.483   2.705 -0.3026  1.5327 -1.0856
   62MOL    H3923341   3.650   5.498   2.559  0.6462 -0.6130  0.3942
   62MOL    C4023342   3.520   5.316   2.576 -0.3038 -0.2794  0.1269
   62MOL    C4123343   3.461   5.209   2.672  0.4182 -0.2595 -0.0731
   62MOL    C4223344   3.375   5.284   2.775  0.3323 -0.4904 -0.1057
   62MOL    C4323345   3.363   5.192   2.890 -0.2735  0.8351 -0.1368
   62MOL    C4423346   3.468   5.079   2.872  0.1915  0.1482  0.4643
   62MOL    C4523347   3.557   5.128   2.758  0.1940 -0.0085  0.2152
   62MOL    C4623348   3.405   5.383   2.498  0.2290 -0.1214  0.3441
   62MOL    H4723349   3.571   5.259   2.498  1.1987  2.8452 -1.2690
   62MOL    H4823350   3.403   5.135   2.617 -1.6961  2.5072 -1.6427
   62MOL    H4923351   3.280   5.305   2.725 -0.5206 -0.7823  1.3392
   62MOL    H5023352   3.422   5.377   2.808 -1.9979  0.9511 -0.6723
   62MOL    H5123353   3.263   5.152   2.904  0.1159  0.0910  0.5798
   62MOL    H5223354   3.379   5.245   2.984  2.0724 -0.1955  0.0983
   62MOL    H5323355   3.520   5.055   2.965  0.5118 -0.6644  0.0889
   62MOL    H5423356   3.418   4.991   2.832 -2.5253  1.6901  0.3437
   62MOL    H5523357   3.634   5.189   2.806 -0.1399 -0.7185  1.6929
   62MOL    H5623358   3.601   5.051   2.694 -1.5323 -1.7676  1.0968
   62MOL    H5723359   3.315   5.321   2.502 -0.8070  1.3311 -0.3685
   62MOL    H5823360   3.368   5.469   2.553 -0.9342  1.2763 -2.5512
   62MOL    C5923361   3.434   5.424   2.355 -0.1249  0.0371  0.6450
   62MOL    C6023362   3.414   5.311   2.243 -0.4007 -0.7888  0.2891
   62MOL    C6123363   3.274   5.274   2.209  0.3717  0.1173  0.0850
   62MOL    C6223364   3.279   5.144   2.130 -0.1250 -0.3059 -0.5033
   62MOL    C6323365   3.424   5.089   2.150 -0.1651  0.0074  0.5509
   62MOL    C6423366   3.476   5.173   2.266 -0.0752 -0.0550  0.2479
   62MOL    C6523367   3.358   5.556   2.315 -0.1434 -0.4142  0.4847
   62MOL    H6623368   3.540   5.452   2.357 -0.1587  0.2769 -0.4895
   62MOL    H6723369   3.468   5.337   2.152  0.0299 -1.8607  0.2220
   62MOL    H6823370   3.217   5.342   2.146 -1.2878 -2.4317 -1.2535
   62MOL    H6923371   3.206   5.258   2.292 -1.5097 -1.5149 -1.7464
   62MOL    H7023372   3.265   5.167   2.024  0.8039 -2.1652 -1.0562
   62MOL    H7123373   3.205   5.074   2.167 -0.0066 -0.9459 -1.4483
   62MOL    H7223374   3.481   5.125   2.065 -2.4400  0.7642 -0.7120
   62MOL    H7323375   3.437   4.981   2.152 -2.9697 -0.4402 -1.8566
   62MOL    H7423376   3.445   5.134   2.363 -1.6520  1.7175  0.4955
   62MOL    H7523377   3.584   5.178   2.268 -0.0147 -0.7695 -0.8082
   62MOL    H7623378   3.387   5.633   2.387 -1.0224  1.7335 -1.3875
   62MOL    H7723379   3.252   5.531   2.322 -0.7345  2.4805  2.9554
   62MOL    C7823380   3.402   5.610   2.172 -0.1983  0.4715  0.5497
   62MOL    C7923381   3.309   5.736   2.133  0.0152 -0.2801  0.2719
   62MOL    C8023382   3.316   5.859   2.226 -0.3924  0.5541  0.1128
   62MOL    C8123383   3.175   5.878   2.272 -0.7222  0.1794 -0.6034
   62MOL    C8223384   3.089   5.828   2.161  0.3787 -0.1066  0.2053
   62MOL    C8323385   3.158   5.705   2.119 -0.1159 -0.3854 -0.5836
   62MOL    C8423386   3.552   5.654   2.177 -0.6963  0.1912  0.6165
   62MOL    H8523387   3.380   5.529   2.104 -2.2030  1.4979 -0.0544
   62MOL    H8623388   3.352   5.780   2.043  1.4384 -0.8585  0.6671
   62MOL    H8723389   3.349   5.948   2.172  1.4452 -1.7754 -2.7755
   62MOL    H8823390   3.389   5.845   2.306 -0.1111 -2.6935 -0.6748
   62MOL    H8923391   3.147   5.983   2.279 -0.8637  0.0664  0.6393
   62MOL    H9023392   3.146   5.825   2.363  1.0754 -0.2202 -0.2338
   62MOL    H9123393   2.986   5.806   2.188 -0.1149  0.4708 -1.2067
   62MOL    H9223394   3.087   5.900   2.080 -1.3787  2.5275  2.4853
   62MOL    H9323395   3.120   5.619   2.175 -1.2162  0.4196 -0.0662
   62MOL    H9423396   3.126   5.685   2.017  0.2032  0.1274 -0.7869
   62MOL    H9523397   3.615   5.570   2.206 -1.6924 -0.6231  0.4647
   62MOL    H9623398   3.555   5.714   2.267  1.0948 -0.1728  0.8013
   62MOL    C9723399   3.618   5.713   2.046  0.4582  0.3298 -0.2715
   62MOL    C9823400   3.614   5.610   1.936  0.2198  0.9399  0.8266
   62MOL    C9923401   3.645   5.653   1.796  0.0614 -0.5414  0.2256
   62MOL   C10023402   3.683   5.521   1.730  0.1511  0.0673  0.0873
   62MOL   C10123403   3.731   5.430   1.833  0.1181  0.3729 -0.8496
   62MOL   C10223404   3.701   5.488   1.965 -0.2954 -0.2251  0.7027
   62MOL   C10323405   3.752   5.786   2.075  0.3371 -0.0824 -0.5310
   62MOL   H10423406   3.554   5.784   1.993 -1.3141 -1.8125 -1.1141
   62MOL   H10523407   3.510   5.578   1.937  0.5798 -0.5315 -2.6145
   62MOL   H10623408   3.551   5.693   1.759 -1.0927 -0.5226  3.0085
   62MOL   H10723409   3.729   5.722   1.788 -0.0021 -0.1927  2.3001
   62MOL   H10823410   3.758   5.537   1.652  0.0574 -0.2486 -0.0661
   62MOL   H10923411   3.600   5.482   1.672 -0.2059  0.2519  0.4716
   62MOL   H11023412   3.837   5.404   1.821  0.4218  1.4047 -0.4998
   62MOL   H11123413   3.664   5.346   1.820 -0.0608  0.6949 -2.0151
   62MOL   H11223414   3.644   5.416   2.023 -0.5865 -0.2347  0.4088
   62MOL   H11323415   3.795   5.510   2.015  1.3215 -0.8272 -1.9409
   62MOL   H11423416   3.810   5.720   2.140 -1.3060 -0.6150  0.4234
   62MOL   H11523417   3.803   5.803   1.980  0.1591  2.9162 -0.1176
   62MOL   C11623418   3.734   5.921   2.134  0.0478 -0.3810  0.0340
   62MOL   C11723419   3.835   5.942   2.256 -0.4922  0.3390  0.7744
   62MOL   C11823420   3.808   5.861   2.384  0.4264 -0.2271  0.7672
   62MOL   C11923421   3.939   5.869   2.461  0.1591  0.1347  0.0084
   62MOL   C12023422   4.044   5.926   2.365  0.4006  0.2914 -0.2032
   62MOL   C12123423   3.986   5.917   2.227  1.0781 -0.2855  0.1165
   62MOL   C12223424   3.738   6.039   2.040 -0.0372 -0.7597  0.1294
   62MOL   H12323425   3.631   5.923   2.171 -0.2075 -1.4702 -0.6139
   62MOL   H12423426   3.825   6.045   2.292 -1.1100  0.0330  1.4884
   62MOL   H12523427   3.725   5.906   2.437 -1.5671 -1.0332 -1.5624
   62MOL   H12623428   3.781   5.757   2.366 -1.3597  0.6170 -1.7495
   62MOL   H12723429   3.958   5.772   2.506  0.4778  0.2615  0.1484
   62MOL   H12823430   3.928   5.932   2.549 -1.3466  0.3926 -0.3595
   62MOL   H12923431   4.136   5.870   2.383 -0.2567 -0.6786  0.2158
   62MOL   H13023432   4.064   6.025   2.406  0.2105  0.3196 -0.1748
   62MOL   H13123433   4.023   5.996   2.161  0.2402 -1.4751 -1.8469
   62MOL   H13223434   4.001   5.815   2.189  0.4811  0.0037 -0.9158
   62MOL   H13323435   3.683   6.016   1.949  2.3100 -1.9372 -1.0445
   62MOL   H13423436   3.847   6.042   2.029  0.0246  0.2531  0.9288
   62MOL   C13523437   3.696   6.178   2.083  0.2475 -0.0280  0.2735
   62MOL   C13623438   3.546   6.182   2.124  0.7719 -0.1123 -0.4011
   62MOL   C13723439   3.468   6.312   2.102  0.3524 -1.0888  0.7195
   62MOL   C13823440   3.351   6.286   2.190  0.4838  0.6437 -0.0060
   62MOL   C13923441   3.391   6.219   2.315 -0.0834 -0.4675  0.2084
   62MOL   C14023442   3.527   6.157   2.274  0.1351  0.4998  0.1806
   62MOL   C14123443   3.727   6.269   1.959 -0.2606  0.5385 -0.0324
   62MOL   H14223444   3.747   6.208   2.174  1.1020 -0.3000 -0.1191
   62MOL   H14323445   3.488   6.103   2.075 -0.6251  0.1929  0.7233
   62MOL   H14423446   3.512   6.406   2.139 -1.3532 -0.5889  1.5489
   62MOL   H14523447   3.440   6.326   1.998 -0.8312  0.7036  1.2493
   62MOL   H14623448   3.272   6.230   2.138  0.3345  0.0415  0.8455
   62MOL   H14723449   3.313   6.383   2.220 -1.9459  0.0014 -0.8093
   62MOL   H14823450   3.311   6.157   2.355 -0.6536  0.6418  0.8160
   62MOL   H14923451   3.414   6.287   2.398  0.8558 -0.8787  0.2926
   62MOL   H15023452   3.599   6.209   2.337  1.4099  0.4410 -1.1973
   62MOL   H15123453   3.505   6.054   2.300  0.6731  0.4870  0.5824
   62MOL   H15223454   3.676   6.365   1.960 -1.8618 -0.2961  0.3227
   62MOL   H15323455   3.691   6.222   1.868  0.4752  1.4929 -0.8267
   62MOL   C15423456   3.866   6.325   1.948 -0.6372 -0.6536 -0.3681
   62MOL   C15523457   3.897   6.361   1.799 -0.0622 -0.2284 -1.2485
   62MOL   C15623458   3.788   6.440   1.719  0.2185 -0.2364  0.0264
   62MOL   C15723459   3.862   6.447   1.588  0.2737  0.4949 -0.0129
   62MOL   C15823460   3.924   6.309   1.568  0.3571 -0.2947  0.8029
   62MOL   C15923461   3.930   6.252   1.707 -0.2173 -0.3154  0.3746
   62MOL   C16023462   3.884   6.452   2.037 -0.2757 -0.1273  0.1945
   62MOL   H16123463   3.941   6.248   1.965 -0.4386 -0.3810 -0.0038
   62MOL   H16223464   3.972   6.439   1.798 -0.6068  0.3021 -0.8779
   62MOL   H16323465   3.689   6.394   1.716  0.0039  0.0512  2.3384
   62MOL   H16423466   3.778   6.541   1.759 -0.8106  0.4881 -1.9229
   62MOL   H16523467   3.798   6.463   1.501  0.5120  0.2347 -0.2378
   62MOL   H16623468   3.939   6.525   1.584  1.7609 -1.0159 -1.4727
   62MOL   H16723469   4.026   6.306   1.529 -0.0236 -2.0489 -0.1237
   62MOL   H16823470   3.865   6.242   1.505  0.5895  0.9901 -0.8062
   62MOL   H16923471   4.029   6.209   1.727 -0.4019 -0.7881  0.2982
   62MOL   H17023472   3.866   6.163   1.706 -1.0635  0.2876 -2.2586
   62MOL   H17123473   3.848   6.433   2.138  1.2451 -2.2669  0.3772
   62MOL   H17223474   3.813   6.526   2.000 -0.3610  0.1977  1.0048
   62MOL   C17323475   4.022   6.512   2.060  0.7637  0.0078  0.6248
   62MOL   C17423476   4.115   6.414   2.131  0.4995  0.2814 -0.5578
   62MOL   C17523477   4.098   6.399   2.280  0.3039  0.1365 -0.5311
   62MOL   C17623478   4.236   6.358   2.339 -0.0239 -0.3445 -0.4569
   62MOL   C17723479   4.341   6.360   2.214  0.0717 -0.2986 -1.1050
   62MOL   C17823480   4.264   6.436   2.107 -0.7736 -0.2961 -0.8860
   62MOL   C17923481   4.004   6.648   2.137  1.1725 -0.3106 -0.4414
   62MOL   H18023482   4.065   6.529   1.961  1.1944  0.0948  0.8244
   62MOL   H18123483   4.098   6.315   2.088 -0.4595  0.5115 -0.7134
   62MOL   H18223484   4.024   6.327   2.314  2.2297 -0.6111  2.1940
   62MOL   H18323485   4.075   6.495   2.328 -1.7911  0.4437 -2.0287
   62MOL   H18423486   4.266   6.432   2.413 -1.0553 -0.5507  0.1809
   62MOL   H18523487   4.225   6.254   2.371  1.3020 -0.3944 -0.1531
   62MOL   H18623488   4.361   6.264   2.166 -0.0589 -0.2615 -1.2353
   62MOL   H18723489   4.438   6.398   2.246 -0.2447 -0.2407 -0.1931
   62MOL   H18823490   4.287   6.542   2.101 -2.1620  0.0941  0.3060
   62MOL   H18923491   4.301   6.400   2.011  0.5588  2.6312 -1.5014
   62MOL   H19023492   3.942   6.621   2.222  0.3795  0.8707 -0.6378
   62MOL   H19123493   4.106   6.671   2.170  1.1031 -0.8522  0.1645
   62MOL   C19223494   3.931   6.761   2.047 -0.1879 -0.1355 -0.0779
   62MOL   C19323495   4.001   6.790   1.913 -0.3476 -0.2854  0.6266
   62MOL   C19423496   4.133   6.859   1.913  0.3184 -0.2957  0.0186
   62MOL   C19523497   4.164   6.891   1.771  0.1307  0.1602 -0.2213
   62MOL   C19623498   4.024   6.924   1.711  0.5823  0.7399 -0.5392
   62MOL   C19723499   3.915   6.879   1.816  0.2979  0.3925 -0.1275
   62MOL   C19823500   3.913   6.893   2.126  0.3775  0.5985 -0.0972
   62MOL   H19923501   3.832   6.732   2.012  0.8886 -0.7964 -2.6581
   62MOL   H20023502   4.012   6.694   1.863  1.0207 -0.6376  1.5781
   62MOL   H20123503   4.211   6.802   1.964 -1.1020 -0.5691  1.9439
   62MOL   H20223504   4.126   6.951   1.971 -0.3334 -0.2780 -0.0906
   62MOL   H20323505   4.239   6.969   1.761 -1.2446  1.4257 -0.7922
   62MOL   H20423506   4.188   6.799   1.717 -2.2666 -0.2462 -0.6488
   62MOL   H20523507   4.010   6.862   1.622 -1.7717 -1.2964  1.1411
   62MOL   H20623508   4.018   7.031   1.693  0.7346  0.7496 -0.5301
   62MOL   H20723509   3.834   6.818   1.776  1.9258 -2.2579  0.4336
   62MOL   H20823510   3.868   6.961   1.869 -2.0313 -1.1228  0.2373
   62MOL   H20923511   4.012   6.928   2.155  0.1825  0.4734  0.7362
   62MOL   H21023512   3.855   6.970   2.075  2.0280  0.4691 -2.2057
   62MOL   C21123513   3.837   6.871   2.262 -0.5468  0.0817 -0.4763
   62MOL   C21223514   3.841   7.004   2.345  0.7619  0.2262 -0.0314
   62MOL   C21323515   3.771   7.003   2.481 -0.4532 -0.0054 -0.2085
   62MOL   C21423516   3.830   7.129   2.551 -0.2394  0.3271  0.0468
   62MOL   C21523517   3.976   7.143   2.507  0.1225 -0.2679  0.4768
   62MOL   C21623518   3.981   7.062   2.375 -0.8817  0.2330  0.5265
   62MOL   C21723519   3.704   6.790   2.270  0.5679 -0.1239 -0.1526
   62MOL   H21823520   3.896   6.807   2.327  1.7495  1.4138 -1.1894
   62MOL   H21923521   3.790   7.078   2.284  0.8567  0.7246  0.4874
   62MOL   H22023522   3.662   7.000   2.482 -0.4199 -1.6139 -0.1237
   62MOL   H22123523   3.815   6.917   2.532  2.2596  1.7108  0.4445
   62MOL   H22223524   3.770   7.214   2.519  0.1298  1.2815  1.8400
   62MOL   H22323525   3.824   7.116   2.659  0.6411  0.6078  0.1315
   62MOL   H22423526   4.044   7.102   2.582  0.1054 -2.3630 -0.6139
   62MOL   H22523527   4.009   7.242   2.475  2.4940 -1.9647 -2.6802
   62MOL   H22623528   4.030   7.123   2.299  0.6732  2.1129  2.9646
   62MOL   H22723529   4.057   6.984   2.387  0.0783  1.0641 -0.0367
   62MOL   H22823530   3.674   6.789   2.375  0.9794  0.5104 -0.0254
   62MOL   H22923531   3.719   6.692   2.225 -1.7109 -0.1543 -0.9076
   62MOL   C23023532   3.569   6.844   2.209  0.0540 -1.1911  0.5183
   62MOL   C23123533   3.435   6.791   2.271 -0.5139 -0.5266 -0.7112
   62MOL   C23223534   3.424   6.641   2.293 -0.3977 -0.3975 -0.0668
   62MOL   C23323535   3.333   6.630   2.417  0.1819  0.4175  0.1651
   62MOL   C23423536   3.303   6.765   2.473 -0.2350 -0.8617  0.1386
   62MOL   C23523537   3.402   6.856   2.408 -0.5131  0.2623 -0.0379
   62MOL   C23623538   3.570   6.826   2.051 -0.0868 -0.1159 -0.0922
   62MOL   H23723539   3.574   6.953   2.217 -0.6581 -0.9863 -1.4943
   62MOL   H23823540   3.346   6.816   2.213 -0.6462  0.2581 -0.1819
   62MOL   H23923541   3.373   6.604   2.204  0.1283 -0.9394 -0.1515
   62MOL   H24023542   3.519   6.589   2.309  0.8005  1.0199 -2.3405
   62MOL   H24123543   3.237   6.580   2.406  0.8068 -0.8370  0.3254
   62MOL   H24223544   3.385   6.577   2.497 -2.8160 -1.7526  0.7757
   62MOL   H24323545   3.329   6.770   2.578  0.0806  0.2984  0.0189
   62MOL   H24423546   3.199   6.794   2.486  0.2854  1.4258 -0.4237
   62MOL   H24523547   3.495   6.865   2.464 -0.8744 -1.1680  0.8182
   62MOL   H24623548   3.360   6.956   2.410 -0.4145  0.2840  0.7398
   62MOL   H24723549   3.561   6.722   2.022 -0.8247 -0.1170  0.1215
   62MOL   H24823550   3.670   6.850   2.015  0.2187 -1.7198 -0.3419
   62MOL   C24923551   3.474   6.917   1.978  0.0619  0.3191  0.1069
   62MOL   C25023552   3.434   6.861   1.838  0.2040  0.0435 -0.0389
   62MOL   C25123553   3.339   6.741   1.841  0.5169  0.4271 -0.8441
   62MOL   C25223554   3.348   6.682   1.704  0.2319  0.0311  0.5437
   62MOL   C25323555   3.481   6.726   1.639  0.5315 -0.2134 -0.2523
   62MOL   C25423556   3.549   6.823   1.744 -0.0944 -0.0596 -0.3945
   62MOL   C25523557   3.522   7.062   1.956  0.0697 -0.3423  0.5203
   62MOL   H25623558   3.382   6.926   2.037 -0.0969  0.8541 -0.2157
   62MOL   H25723559   3.383   6.949   1.799  2.1521  1.5567  0.7514
   62MOL   H25823560   3.240   6.766   1.880  0.7651  1.2882 -0.7547
   62MOL   H25923561   3.380   6.663   1.905 -0.2650 -0.1617 -1.0548
   62MOL   H26023562   3.259   6.703   1.644 -0.4208  3.1474  2.5225
   62MOL   H26123563   3.349   6.573   1.713 -0.7652  0.0446  0.8267
   62MOL   H26223564   3.457   6.789   1.553 -1.1650  0.8400  0.9684
   62MOL   H26323565   3.555   6.649   1.616  1.9772  1.3312 -0.8955
   62MOL   H26423566   3.580   6.902   1.674  0.9471 -0.7065 -0.6726
   62MOL   H26523567   3.630   6.771   1.796  0.6754 -0.7067 -2.1793
   62MOL   H26623568   3.606   7.088   2.021  1.1956 -0.9389 -0.6646
   62MOL   H26723569   3.562   7.067   1.854 -0.2261 -0.8351  0.3809
   62MOL   C26823570   3.422   7.174   1.994  0.5123  0.1746  0.5311
   62MOL   C26923571   3.364   7.183   2.140 -0.1595 -0.3418 -0.0565
   62MOL   C27023572   3.220   7.134   2.168 -0.2989 -0.0242  0.1909
   62MOL   C27123573   3.180   7.198   2.302  0.2009  0.7408 -1.0210
   62MOL   C27223574   3.270   7.322   2.318  0.4351  0.1836  0.0108
   62MOL   C27323575   3.357   7.327   2.189  0.2234 -0.0633 -0.3302
   62MOL   C27423576   3.300   7.184   1.890 -0.3640 -0.2224  0.4981
   62MOL   H27523577   3.477   7.267   1.981 -0.6572  0.6165 -1.4666
   62MOL   H27623578   3.429   7.135   2.214 -0.3392 -0.3694  0.0833
   62MOL   H27723579   3.146   7.148   2.089  1.4022 -1.9334 -1.8158
   62MOL   H27823580   3.208   7.026   2.175 -2.5627  0.0860 -1.2344
   62MOL   H27923581   3.073   7.215   2.305  0.5819  3.0424  2.0200
   62MOL   H28023582   3.213   7.136   2.385  1.1011 -0.2274 -2.0806
   62MOL   H28123583   3.339   7.326   2.402 -0.4177  2.4742  0.6381
   62MOL   H28223584   3.199   7.403   2.333  0.8531  1.1202 -2.8296
   62MOL   H28323585   3.448   7.386   2.202  0.8771 -0.7608 -1.6629
   62MOL   H28423586   3.312   7.375   2.102  0.6024  1.1350  0.1128
   62MOL   H28523587   3.237   7.267   1.923  0.9726  1.5031 -1.1999
   62MOL   H28623588   3.238   7.094   1.894 -0.0646 -0.5445 -1.3975
   62MOL   C28723589   3.350   7.213   1.743 -0.0432  1.3563 -0.0041
   62MOL   C28823590   3.241   7.200   1.638 -0.0669 -0.2120 -0.1095
   62MOL   C28923591   3.284   7.217   1.491 -0.2480  0.1797 -0.1671
   62MOL   C29023592   3.161   7.173   1.410 -0.1232 -0.6867 -0.3767
   62MOL   C29123593   3.067   7.101   1.507  0.0913  0.3379  0.1765
   62MOL   C29223594   3.155   7.073   1.629 -0.3212  0.4999  0.4499
   62MOL   C29323595   3.423   7.351   1.733  0.9717 -0.3390  0.3371
   62MOL   H29423596   3.423   7.134   1.727 -0.4766  0.7213  1.0872
   62MOL   H29523597   3.174   7.284   1.652  0.9247  0.5863 -0.1279
   62MOL   H29623598   3.309   7.319   1.461 -2.5085  0.0925 -2.4973
   62MOL   H29723599   3.377   7.162   1.473  0.7163  2.1573 -1.3696
   62MOL   H29823600   3.110   7.268   1.396  1.5149  0.2122 -0.2695
   62MOL   H29923601   3.180   7.124   1.314  1.5226 -0.2425 -0.2755
   62MOL   H30023602   3.029   7.013   1.454  3.4830  0.1429 -2.1082
   62MOL   H30123603   2.995   7.175   1.541 -1.2045 -1.1637  0.8010
   62MOL   H30223604   3.209   6.978   1.628 -1.6159 -0.2808  1.7085
   62MOL   H30323605   3.098   7.065   1.722  2.1078  1.9054  2.1314
   62MOL   H30423606   3.381   7.406   1.818 -0.7460 -0.2688 -0.5320
   62MOL   H30523607   3.394   7.414   1.649  1.0427  0.2242  0.7287
   62MOL   C30623608   3.583   7.347   1.730 -0.1397  0.1113  0.6692
   62MOL   C30723609   3.661   7.304   1.601 -0.2212  0.1921 -1.0034
   62MOL   C30823610   3.688   7.160   1.577 -0.4333 -0.2024  0.7916
   62MOL   C30923611   3.727   7.159   1.426 -0.1919 -0.4325  0.4394
   62MOL   C31023612   3.652   7.266   1.360  0.1915 -0.1105  0.5340
   62MOL   C31123613   3.616   7.363   1.468 -0.5008  0.1099  0.0990
   62MOL   C31223614   3.638   7.481   1.788  0.0570 -0.5382 -0.8129
   62MOL   H31323615   3.608   7.273   1.806  2.4259 -1.0945 -1.2753
   62MOL   H31423616   3.762   7.345   1.608 -0.2397 -0.1583  2.0183
   62MOL   H31523617   3.594   7.105   1.587 -0.4188 -0.2797  0.4967
   62MOL   H31623618   3.757   7.114   1.648  1.4354 -0.0710 -0.9037
   62MOL   H31723619   3.836   7.169   1.418 -0.2462  0.2466  0.5607
   62MOL   H31823620   3.706   7.062   1.380  0.0440 -0.3441  0.1440
   62MOL   H31923621   3.558   7.229   1.319 -0.3947  1.4309  0.4465
   62MOL   H32023622   3.692   7.302   1.265 -1.3291 -1.7740 -0.7694
   62MOL   H32123623   3.666   7.459   1.457  0.7541 -0.1821  2.8110
   62MOL   H32223624   3.514   7.400   1.470 -0.3229  0.6212 -0.2891
   62MOL   H32323625   3.565   7.522   1.858  1.0779  2.8834 -1.6782
   62MOL   H32423626   3.639   7.560   1.714 -0.3038  1.7560  1.5807
   62MOL   C32523627   3.773   7.478   1.861  0.2286 -0.2402  0.1393
   62MOL   C32623628   3.775   7.423   2.005 -0.3269  0.2933 -0.0430
   62MOL   C32723629   3.716   7.503   2.118  0.5915 -0.0558 -0.0776
   62MOL   C32823630   3.777   7.445   2.241 -0.2209 -0.4824 -0.5728
   62MOL   C32923631   3.919   7.415   2.207  0.1450  0.1974 -0.6921
   62MOL   C33023632   3.913   7.383   2.059 -0.5043 -0.1036  0.7704
   62MOL   C33123633   3.844   7.615   1.861 -0.2117 -0.2282 -0.0569
   62MOL   H33223634   3.834   7.408   1.804  2.0468  0.4235  1.1954
   62MOL   H33323635   3.712   7.334   2.000 -2.3734  1.6030  1.4178
   62MOL   H33423636   3.607   7.504   2.113  0.5838  1.1233  0.0889
   62MOL   H33523637   3.744   7.608   2.103 -1.3899  0.7497  1.5025
   62MOL   H33623638   3.726   7.356   2.277 -0.3397 -1.2167 -2.5161
   62MOL   H33723639   3.763   7.520   2.319 -1.1448 -0.5567 -0.6591
   62MOL   H33823640   3.968   7.335   2.262  2.2922 -0.1541 -3.0077
   62MOL   H33923641   3.975   7.506   2.230  0.9008 -0.4798  0.1824
   62MOL   H34023642   3.939   7.277   2.051 -1.4968 -0.3242  0.3597
   62MOL   H34123643   3.989   7.434   2.000 -1.5021  1.4110  0.7791
   62MOL   H34223644   3.922   7.616   1.938  0.7139 -0.0450 -0.9943
   62MOL   H34323645   3.776   0.004   1.893  0.3470  0.5826 -0.8476
   62MOL   C34423646   3.913   7.639   1.726  0.1391 -0.0126  0.1218
   62MOL   C34523647   4.053   7.575   1.719  0.2911 -0.1004  0.9517
   62MOL   C34623648   4.172   7.639   1.797  0.2311 -0.2167  0.4378
   62MOL   C34723649   4.303   7.599   1.717 -0.2461 -0.1395 -0.1822
   62MOL   C34823650   4.258   7.612   1.575 -0.2998  0.0225  0.0142
   62MOL   C34923651   4.106   7.579   1.575  0.8112 -0.2490  0.7205
   62MOL   C35023652   3.916   0.101   1.698 -0.2018 -0.7143 -0.3139
   62MOL   H35123653   3.855   7.580   1.656 -1.1415  1.0106  0.2921
   62MOL   H35223654   4.068   7.470   1.741 -0.1341 -0.6256 -1.2034
   62MOL   H35323655   4.177   7.590   1.894  0.6041  1.2904  1.1900
   62MOL   H35423656   4.152   0.056   1.797 -0.6837 -0.3743  1.9563
   62MOL   H35523657   4.388   7.662   1.740  0.9179 -1.6444 -0.2824
   62MOL   H35623658   4.334   7.496   1.732 -2.8440 -0.7724  1.2421
   62MOL   H35723659   4.319   7.553   1.507 -1.4642 -0.3002 -0.7671
   62MOL   H35823660   4.278   0.025   1.543 -0.4075  0.4094  1.1692
   62MOL   H35923661   4.053   7.645   1.506  1.4301 -0.5805 -0.0890
   62MOL   H36023662   4.096   7.480   1.530 -0.4377  0.2093 -0.0560
   62MOL   H36123663   3.995   0.142   1.636 -0.1758 -0.7821 -0.3261
   62MOL   H36223664   3.939   0.157   1.788  1.7443  0.3392 -1.4279
   62MOL   C36323665   3.782   0.154   1.646 -0.1599  0.3714 -0.0070
   62MOL   C36423666   3.747   0.303   1.672 -0.3184  0.2454  0.0361
   62MOL   C36523667   3.762   0.347   1.819 -0.2052 -0.0693  0.8026
   62MOL   C36623668   3.653   0.446   1.848 -0.2913 -0.2047 -0.6709
   62MOL   C36723669   3.583   0.474   1.715  0.3270 -0.4131 -0.0706
   62MOL   C36823670   3.606   0.349   1.627  0.8569  0.3368  0.2615
   62MOL   C36923671   3.764   0.116   1.493  0.8110  0.2519  0.2580
   62MOL   H37023672   3.704   0.097   1.697  1.0701 -1.0700  0.2859
   62MOL   H37123673   3.827   0.349   1.613 -0.2322 -1.6477 -1.3612
   62MOL   H37223674   3.752   0.261   1.885  0.9297 -1.0902 -0.3235
   62MOL   H37323675   3.860   0.395   1.826 -0.3384  0.5555 -1.2843
   62MOL   H37423676   3.588   0.411   1.928 -0.7101  1.7227 -0.1508
   62MOL   H37523677   3.692   0.542   1.881 -0.6260  0.3478 -1.8856
   62MOL   H37623678   3.474   0.479   1.725  0.4549  0.5143  0.9629
   62MOL   H37723679   3.606   0.570   1.670 -3.0437  1.4054  1.8247
   62MOL   H37823680   3.620   0.369   1.521 -1.7860  0.5181 -0.0722
   62MOL   H37923681   3.530   0.277   1.655 -0.0229  0.4788 -1.6942
   62MOL   H38023682   3.830   0.174   1.428  0.1654 -2.0514 -2.5568
   62MOL   H38123683   3.664   0.149   1.464  0.1723  0.0292  2.1367
   62MOL   H38223684   3.763   0.011   1.466  1.2459  0.3803 -0.2502
   63MOL     C123685   4.076   7.062   7.443 -0.8643 -0.1566 -0.7960
   63MOL     C223686   4.024   7.198   7.399  0.1471 -0.5286  0.0461
   63MOL     C323687   4.138   7.289   7.338  0.2144 -0.5021  0.4683
   63MOL     C423688   4.066   7.427   7.336 -0.0703  0.1180 -0.0732
   63MOL     C523689   3.951   7.428   7.437 -0.7039 -0.0555 -0.5205
   63MOL     C623690   3.963   7.291   7.504 -0.0900 -0.2837 -0.4155
   63MOL     C723691   4.152   6.988   7.335  0.1762  0.2822 -0.2934
   63MOL     H823692   4.133   7.071   7.535 -0.9997  3.8766 -1.0283
   63MOL     H923693   3.942   7.183   7.328  0.1424 -2.5472  0.4603
   63MOL    H1023694   4.218   7.284   7.412  0.6859  2.4780  0.1888
   63MOL    H1123695   4.174   7.264   7.238  0.8239  1.6366  0.1449
   63MOL    H1223696   4.136   7.506   7.365 -0.4349 -0.0570  1.3455
   63MOL    H1323697   4.034   7.448   7.234 -1.9023  0.4433  0.5371
   63MOL    H1423698   3.952   7.513   7.504  1.4522  0.0611 -0.6605
   63MOL    H1523699   3.856   7.432   7.384 -2.5213  2.0097  2.7579
   63MOL    H1623700   3.867   7.261   7.544  0.8439 -2.0885  0.5248
   63MOL    H1723701   4.033   7.294   7.588 -1.3740  1.3352  0.6153
   63MOL    H1823702   4.095   6.984   7.242  3.4666  0.3658 -2.3952
   63MOL    H1923703   4.244   7.040   7.308  1.5615 -2.4491 -0.9200
   63MOL    H2023704   3.979   7.025   7.475 -1.3977  1.0676 -0.9712
   63MOL    C2123705   4.209   6.861   7.399 -0.7379  0.1448 -0.0089
   63MOL    C2223706   4.188   6.731   7.313 -0.6294  0.1619  0.6637
   63MOL    C2323707   4.252   6.715   7.176 -0.9386 -0.9563  0.7804
   63MOL    C2423708   4.154   6.628   7.091 -0.5662  0.3584  0.2702
   63MOL    C2523709   4.021   6.669   7.156  0.2189  0.4871 -0.2788
   63MOL    C2623710   4.041   6.691   7.297 -0.3016  0.1371  0.0182
   63MOL    C2723711   4.352   6.881   7.457 -0.6404  0.0017  0.4051
   63MOL    H2823712   4.142   6.835   7.480 -1.0392 -1.6880 -0.8012
   63MOL    H2923713   4.232   6.656   7.378 -1.1013 -0.6744  0.0183
   63MOL    H3023714   4.355   6.681   7.184 -0.1804  0.8352 -0.8154
   63MOL    H3123715   4.252   6.808   7.119 -2.8748 -1.8272 -0.6921
   63MOL    H3223716   4.146   6.650   6.985 -0.8058 -1.1398 -0.0358
   63MOL    H3323717   4.173   6.521   7.105  0.5635  0.4108 -0.7088
   63MOL    H3423718   3.945   6.592   7.144  0.8789 -0.3050  0.6881
   63MOL    H3523719   3.999   6.771   7.123  2.9594  1.5836  1.1321
   63MOL    H3623720   4.023   6.593   7.342  0.5483  0.0673  0.2139
   63MOL    H3723721   3.969   6.759   7.341  0.7689  0.0614  1.9775
   63MOL    H3823722   4.426   6.856   7.382  1.4112 -1.6483  2.9281
   63MOL    H3923723   4.373   6.983   7.489 -2.0839  0.3175  0.3842
   63MOL    C4023724   4.387   6.797   7.586  0.1633  0.0611  0.8452
   63MOL    C4123725   4.528   6.731   7.578  0.2203 -0.7234  0.2992
   63MOL    C4223726   4.648   6.827   7.557  0.1379 -0.4436  0.1487
   63MOL    C4323727   4.762   6.725   7.534 -0.0302 -0.6272 -0.1986
   63MOL    C4423728   4.700   6.627   7.433  0.7309  0.7089 -0.0297
   63MOL    C4523729   4.547   6.638   7.456  0.6770  0.7843  0.2950
   63MOL    C4623730   4.371   6.891   0.020 -0.3293 -0.1963  0.0576
   63MOL    H4723731   4.315   6.715   7.596 -1.2361  1.1698 -0.0061
   63MOL    H4823732   4.544   6.661   7.660  2.9532 -2.2978 -1.4890
   63MOL    H4923733   4.658   6.898   7.639 -0.2548  1.6111 -1.5499
   63MOL    H5023734   4.626   6.882   7.466 -0.7064  0.9694  1.1831
   63MOL    H5123735   4.783   6.681   7.631 -2.4430  2.2095  1.6731
   63MOL    H5223736   4.857   6.765   7.498  0.7903 -2.0405  0.3330
   63MOL    H5323737   4.712   6.658   7.329  0.4556  0.3463 -0.1716
   63MOL    H5423738   4.741   6.527   7.444 -0.6065 -0.0742 -1.8853
   63MOL    H5523739   4.504   6.661   7.358 -0.0191  0.5576  0.5458
   63MOL    H5623740   4.507   6.542   7.487 -1.8818  2.5156  2.6593
   63MOL    H5723741   4.455   6.961   0.016 -0.3567 -0.1215  0.6610
   63MOL    H5823742   4.284   6.955   0.005  1.0736  1.9263  0.6546
   63MOL    C5923743   4.371   6.815   0.155  0.7495  0.3821 -0.4065
   63MOL    C6023744   4.413   6.898   0.272 -0.9218  0.7447 -0.1460
   63MOL    C6123745   4.361   7.043   0.282 -0.1994 -0.1793 -0.4164
   63MOL    C6223746   4.476   7.137   0.301 -0.0969  0.2836 -0.1127
   63MOL    C6323747   4.592   7.047   0.351  0.1560  0.6833 -0.1509
   63MOL    C6423748   4.570   6.912   0.286 -0.1089  0.7831 -0.0633
   63MOL    C6523749   4.236   6.748   0.180 -0.1553 -0.0845  0.5048
   63MOL    H6623750   4.443   6.734   0.140 -0.7542 -1.3274  1.4145
   63MOL    H6723751   4.379   6.850   0.364  1.8847 -0.8780  0.1204
   63MOL    H6823752   4.284   7.055   0.358 -0.5388  0.5432 -0.8668
   63MOL    H6923753   4.299   7.074   0.198 -1.4413 -1.1898  0.1120
   63MOL    H7023754   4.455   7.217   0.372  1.1499  2.2984 -1.9417
   63MOL    H7123755   4.503   7.201   0.217 -0.3920  0.3814 -0.1343
   63MOL    H7223756   4.589   7.035   0.460 -0.6823  1.4736 -0.0757
   63MOL    H7323757   4.684   7.102   0.334 -1.1991  2.6873 -1.2050
   63MOL    H7423758   4.612   6.917   0.185 -2.3667 -0.8163 -1.1302
   63MOL    H7523759   4.625   6.836   0.341 -2.2800 -0.5218  0.3501
   63MOL    H7623760   4.190   6.748   0.081  2.2264  1.3612 -0.6533
   63MOL    H7723761   4.162   6.810   0.231 -0.3115 -1.0189  1.4247
   63MOL    C7823762   4.233   6.602   0.239  0.3177  0.7424  0.2779
   63MOL    C7923763   4.284   6.594   0.386 -0.4612  0.0641  0.1101
   63MOL    C8023764   4.309   6.453   0.442 -0.9497  0.4268  0.8340
   63MOL    C8123765   4.278   6.454   0.591  0.2375 -0.3411 -0.5061
   63MOL    C8223766   4.177   6.572   0.611 -0.1538 -0.7075  0.5192
   63MOL    C8323767   4.207   6.676   0.499 -0.2808  0.3551 -0.6623
   63MOL    C8423768   4.090   6.547   0.219  0.0749  0.1102  0.0999
   63MOL    H8523769   4.295   6.528   0.188 -1.1701 -0.5687  0.3361
   63MOL    H8623770   4.383   6.638   0.373 -0.0592 -0.7608  0.3479
   63MOL    H8723771   4.414   6.426   0.432 -0.6423  2.0020 -0.3584
   63MOL    H8823772   4.235   6.389   0.394 -1.4589  0.8152  1.0953
   63MOL    H8923773   4.371   6.485   0.639  0.4872  0.3270 -1.3953
   63MOL    H9023774   4.242   6.356   0.624 -0.1936  0.5342  1.7228
   63MOL    H9123775   4.078   6.532   0.588 -0.1582 -1.0586  1.1298
   63MOL    H9223776   4.181   6.614   0.712  3.3682 -0.8820  0.5196
   63MOL    H9323777   4.113   6.725   0.473 -0.0730  0.2901 -1.5376
   63MOL    H9423778   4.267   6.754   0.546 -0.4429  2.2830 -3.5303
   63MOL    H9523779   4.022   6.621   0.262  0.2654  0.2899  0.0938
   63MOL    H9623780   4.057   6.464   0.282 -1.3285  0.0246 -0.7163
   63MOL    C9723781   4.046   6.522   0.079 -0.1844  0.5321  0.5317
   63MOL    C9823782   3.907   6.580   0.045  0.1462 -1.1774  0.3328
   63MOL    C9923783   3.905   6.731   0.028 -0.0299  0.2399  0.6272
   63MOL   C10023784   3.779   6.765   7.635 -0.4954 -0.3776  0.1196
   63MOL   C10123785   3.745   6.642   7.558 -0.5606 -0.2905 -0.0466
   63MOL   C10223786   3.840   6.531   7.607 -0.5333 -0.0261 -0.7198
   63MOL   C10323787   4.046   6.371   0.035  0.1511  0.5079 -0.3636
   63MOL   H10423788   4.117   6.568   0.009 -1.4280  2.1097  0.2783
   63MOL   H10523789   3.844   6.546   0.127 -0.8618  0.3586  0.2163
   63MOL   H10623790   3.905   6.792   0.119 -0.1339  1.0523  0.0911
   63MOL   H10723791   3.989   6.766   7.658  0.4218 -2.8894 -0.6466
   63MOL   H10823792   3.784   6.860   7.580  1.0345  0.0691  0.9958
   63MOL   H10923793   3.691   6.786   0.006  0.3279  0.5556  1.0148
   63MOL   H11023794   3.765   6.652   7.451 -0.2427  1.6072  0.1717
   63MOL   H11123795   3.638   6.619   7.563 -0.9817  1.7593  0.9420
   63MOL   H11223796   3.782   6.442   7.631 -2.7303  1.1299 -1.5905
   63MOL   H11323797   3.911   6.510   7.527 -0.3026 -0.5390 -0.3865
   63MOL   H11423798   3.968   6.324   0.095 -0.3680  1.0417 -0.6090
   63MOL   H11523799   4.006   6.346   7.626  0.0428 -0.9416  0.0470
   63MOL   C11623800   4.173   6.280   0.055 -0.0234 -0.2508  0.5990
   63MOL   C11723801   4.136   6.131   0.101  0.1176  0.2141  0.0815
   63MOL   C11823802   4.075   6.129   0.240 -0.3034 -0.0521 -0.7670
   63MOL   C11923803   3.994   5.994   0.254 -0.4405  0.0107 -0.3689
   63MOL   C12023804   3.987   5.934   0.112  0.4388  0.6143 -0.6278
   63MOL   C12123805   4.028   6.051   0.020  0.1735  0.7901 -0.6575
   63MOL   C12223806   4.272   6.288   7.625 -0.4989 -0.5995  0.0940
   63MOL   H12323807   4.234   6.327   0.131  0.7037 -0.2390  0.0188
   63MOL   H12423808   4.220   6.063   0.110  0.9300  1.6323  4.0098
   63MOL   H12523809   4.145   6.143   0.323 -0.8652  0.3781 -0.3610
   63MOL   H12623810   4.007   6.212   0.261  0.2388  0.3385 -0.5614
   63MOL   H12723811   3.898   6.016   0.301  0.0710  0.1724  0.6144
   63MOL   H12823812   4.043   5.920   0.318  1.9409  0.9679 -1.0055
   63MOL   H12923813   3.891   5.889   0.091  1.0511 -0.9619 -0.0960
   63MOL   H13023814   4.049   5.845   0.101  0.2175  0.5484 -1.3361
   63MOL   H13123815   4.073   6.023   7.614 -0.1086  0.6920 -0.7625
   63MOL   H13223816   3.947   6.122   7.689  0.7079  1.1811 -1.4510
   63MOL   H13323817   4.290   6.393   7.601 -2.7777 -0.1816  0.0464
   63MOL   H13423818   4.219   6.239   7.543  0.7002 -0.4111 -0.8047
   63MOL   C13523819   4.401   6.200   7.633  0.1368 -1.2164  0.0383
   63MOL   C13623820   4.486   6.250   0.066 -0.6077  0.9443 -0.0039
   63MOL   C13723821   4.536   6.394   0.067  0.7858  0.1166 -0.5866
   63MOL   C13823822   4.622   6.399   0.193  0.5988 -0.1403 -0.1100
   63MOL   C13923823   4.673   6.258   0.214  0.2458  0.0273 -0.3469
   63MOL   C14023824   4.610   6.165   0.108 -0.1862 -0.1989  0.8656
   63MOL   C14123825   4.480   6.183   7.504  0.6025 -0.0688  0.8969
   63MOL   H14223826   4.364   6.099   7.646 -1.9028 -0.4316  0.4958
   63MOL   H14323827   4.420   6.242   0.152 -0.2771  0.3463  0.2041
   63MOL   H14423828   4.600   6.407   7.669 -0.3241 -0.3574 -1.4681
   63MOL   H14523829   4.450   6.461   0.071 -0.5221 -1.6559  2.6170
   63MOL   H14623830   4.559   6.419   0.279  0.1089 -1.2179 -0.2041
   63MOL   H14723831   4.697   6.477   0.191 -0.0561  0.5549  1.7378
   63MOL   H14823832   4.637   6.227   0.312  0.7607 -0.9439 -0.4650
   63MOL   H14923833   4.781   6.245   0.209  0.3140  0.4779 -0.1179
   63MOL   H15023834   4.682   6.162   0.026 -0.6604  1.7722  0.3376
   63MOL   H15123835   4.598   6.059   0.130  0.2984 -0.2891  0.6962
   63MOL   H15223836   4.582   6.147   7.517  0.3653 -0.8370  0.6273
   63MOL   H15323837   4.512   6.285   7.480 -0.0344  0.3918  1.9824
   63MOL   C15423838   4.420   6.115   7.377 -0.0187  0.6633 -0.2880
   63MOL   C15523839   4.427   6.199   7.241  0.8100  0.3309  0.1525
   63MOL   C15623840   4.567   6.214   7.182 -0.1150 -0.4953 -0.7390
   63MOL   C15723841   4.564   6.333   7.092 -0.0417 -0.0709  0.0890
   63MOL   C15823842   4.424   6.398   7.111 -0.2683 -0.2035  0.6052
   63MOL   C15923843   4.375   6.340   7.245 -0.0039 -0.5136  0.1752
   63MOL   C16023844   4.499   5.982   7.356 -0.3007 -0.0960 -0.6402
   63MOL   H16123845   4.315   6.095   7.400  0.0084  1.2236  0.3449
   63MOL   H16223846   4.371   6.146   7.163 -1.4112  1.2226  1.1057
   63MOL   H16323847   4.649   6.206   7.253 -1.9781 -1.1993  1.4314
   63MOL   H16423848   4.570   6.129   7.115 -1.4218 -2.1970  1.2695
   63MOL   H16523849   4.644   6.397   7.128 -0.9079  1.2562 -0.3150
   63MOL   H16623850   4.586   6.289   6.994 -0.9604 -0.9685  0.2816
   63MOL   H16723851   4.348   6.361   7.041 -1.0575  2.8930 -0.2600
   63MOL   H16823852   4.436   6.506   7.103  2.5870 -0.5424  0.0327
   63MOL   H16923853   4.268   6.337   7.263 -0.2180  2.1319 -0.5055
   63MOL   H17023854   4.413   6.396   7.331 -1.3823  0.4144  0.1994
   63MOL   H17123855   4.511   5.942   7.456 -1.2830  0.5921 -0.2398
   63MOL   H17223856   4.602   6.007   7.332  0.2533 -0.8861  0.8597
   63MOL   C17323857   4.450   5.880   7.258 -0.0424  0.5820  0.2368
   63MOL   C17423858   4.294   5.855   7.264 -0.8817 -0.0442  0.1671
   63MOL   C17523859   4.248   5.783   7.392  0.0916  0.7115  0.3949
   63MOL   C17623860   4.122   5.696   7.356  0.0198 -0.0418 -0.9191
   63MOL   C17723861   4.146   5.654   7.211  0.2920 -0.7307  0.8439
   63MOL   C17823862   4.233   5.765   7.155  0.3775 -0.2228  0.4967
   63MOL   C17923863   4.540   5.751   7.267  0.3143  0.3377  0.4563
   63MOL   H18023864   4.469   5.928   7.162  1.3599  0.9836  0.6998
   63MOL   H18123865   4.233   5.945   7.262  1.5767  1.6509 -2.1019
   63MOL   H18223866   4.226   5.847   7.477  0.9086  1.9909 -0.3613
   63MOL   H18323867   4.318   5.706   7.424 -0.1468  0.7361  0.9789
   63MOL   H18423868   4.103   5.618   7.430  0.4415 -0.1083 -0.8806
   63MOL   H18523869   4.027   5.748   7.368  0.2444 -0.1386  1.5638
   63MOL   H18623870   4.054   5.633   7.156  1.2920  0.1162 -1.1981
   63MOL   H18723871   4.202   5.561   7.203  0.3994 -0.6382  0.5120
   63MOL   H18823872   4.310   5.717   7.094  3.0319  1.9547  2.0107
   63MOL   H18923873   4.193   5.823   7.073  1.0481 -0.4027  0.0313
   63MOL   H19023874   4.546   5.722   7.372 -0.2785  2.1085  1.0029
   63MOL   H19123875   4.491   5.658   7.239  1.1755  0.1046 -0.2892
   63MOL   C19223876   4.676   5.758   7.192 -0.9079 -0.0638 -0.1637
   63MOL   C19323877   4.662   5.714   7.043  0.1237 -0.1535 -0.6287
   63MOL   C19423878   4.793   5.713   6.966 -0.1909 -0.3886  0.1246
   63MOL   C19523879   4.763   5.711   6.814 -0.6718 -0.0455  0.0225
   63MOL   C19623880   4.632   5.788   6.801  0.4082 -0.3539  0.1726
   63MOL   C19723881   4.582   5.806   6.945  0.6101  0.1011  0.3488
   63MOL   C19823882   4.783   5.677   7.273 -0.0729  0.2296 -0.7993
   63MOL   H19923883   4.723   5.857   7.187 -2.1794  0.5265 -0.5175
   63MOL   H20023884   4.617   5.614   7.046 -1.7000  0.6785  0.2656
   63MOL   H20123885   4.841   5.617   6.986 -2.7273 -1.2728  2.3302
   63MOL   H20223886   4.867   5.787   6.995 -0.0072  0.0100 -1.3542
   63MOL   H20323887   4.842   5.753   6.752 -1.8888  1.1897 -0.7162
   63MOL   H20423888   4.748   5.611   6.774  0.9821 -0.6470  0.8640
   63MOL   H20523889   4.557   5.743   6.736 -0.7303  1.2733  0.3503
   63MOL   H20623890   4.656   5.881   6.749 -0.5577 -0.5293 -0.6001
   63MOL   H20723891   4.478   5.787   6.970  0.7830 -1.1939  0.1517
   63MOL   H20823892   4.603   5.911   6.962 -0.0601 -0.0146  1.9328
   63MOL   H20923893   4.752   5.683   7.377  0.9936  0.8085 -0.5018
   63MOL   H21023894   4.772   5.572   7.247  1.0201  0.3579 -1.8225
   63MOL   C21123895   4.939   5.715   7.267  0.4560 -0.1417  0.3948
   63MOL   C21223896   4.983   5.835   7.369  0.0512 -0.8070  0.7288
   63MOL   C21323897   5.116   5.915   7.328  0.3326  0.0581  0.6437
   63MOL   C21423898   5.101   6.038   7.419 -0.3063  0.0502  0.8425
   63MOL   C21523899   4.955   6.055   7.453  0.3222  0.3699  0.4975
   63MOL   C21623900   4.879   5.950   7.379  0.0463  1.4522  0.7128
   63MOL   C21723901   5.022   5.589   7.304 -0.1955 -0.1673 -0.0862
   63MOL   H21823902   4.951   5.740   7.161  0.1463 -2.5459 -0.2329
   63MOL   H21923903   4.993   5.777   7.462 -0.1065 -1.4614  0.3399
   63MOL   H22023904   5.219   5.880   7.339  0.0088 -1.1196 -0.0229
   63MOL   H22123905   5.101   5.953   7.227  0.2469  1.8832  1.3241
   63MOL   H22223906   5.152   6.011   7.512  0.2868  0.4736  0.6404
   63MOL   H22323907   5.131   6.134   7.376 -1.7783 -0.5456 -1.5976
   63MOL   H22423908   4.915   6.152   7.421 -2.1095 -0.1354  1.9408
   63MOL   H22523909   4.941   6.047   7.560  1.9948  0.9195  0.7729
   63MOL   H22623910   4.795   5.921   7.442  0.5256  1.7707  1.5224
   63MOL   H22723911   4.847   5.988   7.283  0.9711 -0.3739 -0.3536
   63MOL   H22823912   4.978   5.511   7.242  0.7370 -0.7143 -0.0822
   63MOL   H22923913   4.985   5.569   7.404 -0.5319 -2.2723 -0.6072
   63MOL   C23023914   5.180   5.589   7.302  0.6935  0.8191 -0.0005
   63MOL   C23123915   5.234   5.586   7.155 -0.2972 -0.1122 -0.9055
   63MOL   C23223916   5.388   5.594   7.137 -0.3651 -0.5636 -0.3919
   63MOL   C23323917   5.441   5.460   7.093 -0.7222 -0.2365  0.2427
   63MOL   C23423918   5.322   5.412   7.002  0.5401 -0.4053 -0.6715
   63MOL   C23523919   5.189   5.464   7.070 -0.0268  0.0714 -0.1296
   63MOL   C23623920   5.239   5.462   7.386  0.5408  0.2839  0.1978
   63MOL   H23723921   5.234   5.671   7.349 -0.4834  2.6930 -1.8434
   63MOL   H23823922   5.188   5.667   7.098 -0.8087 -0.2509 -0.6921
   63MOL   H23923923   5.415   5.655   7.051 -0.0087 -1.9852 -1.3074
   63MOL   H24023924   5.448   5.637   7.217 -0.2869 -0.1482 -0.6739
   63MOL   H24123925   5.539   5.472   7.045 -1.4331  0.9828 -0.9314
   63MOL   H24223926   5.455   5.393   7.178  0.5922 -2.0607 -1.3768
   63MOL   H24323927   5.318   5.303   6.995 -1.3584 -0.3187 -0.9918
   63MOL   H24423928   5.327   5.442   6.897 -2.2051 -1.3041 -1.1002
   63MOL   H24523929   5.150   5.388   7.138 -1.6241  2.4412  1.6927
   63MOL   H24623930   5.106   5.476   7.001 -1.7227  0.8973  1.9704
   63MOL   H24723931   5.347   5.450   7.383  0.6301  0.1495  2.6614
   63MOL   H24823932   5.210   5.370   7.334  1.6634 -0.7246  1.3159
   63MOL   C24923933   5.192   5.445   7.532 -0.1352  0.1210  0.0645
   63MOL   C25023934   5.263   5.526   7.635 -1.2449 -0.5358 -0.6177
   63MOL   C25123935   5.210   5.522   0.089  0.5218 -0.2740 -1.2081
   63MOL   C25223936   5.197   5.668   0.139 -0.0950 -0.3310 -0.0485
   63MOL   C25323937   5.286   5.756   0.045  0.0217  0.1008 -0.5028
   63MOL   C25423938   5.268   5.677   7.604  0.0415 -0.3161  0.0254
   63MOL   C25523939   5.195   5.295   7.569 -0.5211 -0.3561  0.8030
   63MOL   H25623940   5.085   5.460   7.548 -0.5175 -0.0579 -2.1144
   63MOL   H25723941   5.366   5.493   7.646 -1.4843 -1.5070 -1.2480
   63MOL   H25823942   5.273   5.463   0.155  1.0541  1.2014 -0.3762
   63MOL   H25923943   5.105   5.492   0.093 -0.7057  3.9025  2.0219
   63MOL   H26023944   5.233   5.683   0.241 -1.3098  0.7806  0.2290
   63MOL   H26123945   5.091   5.693   0.130  0.3341  1.4577 -0.3856
   63MOL   H26223946   5.390   5.766   0.075  0.1367  2.0785 -1.5133
   63MOL   H26323947   5.246   5.854   0.019  1.3098  0.1579 -2.4049
   63MOL   H26423948   5.353   5.694   7.538 -1.0025  0.6832 -1.0848
   63MOL   H26523949   5.175   5.711   7.558 -0.3561 -0.2209  0.8743
   63MOL   H26623950   5.273   5.258   7.503 -0.5858  3.2448 -1.4581
   63MOL   H26723951   5.239   5.290   7.668 -0.4214  0.9962  0.8418
   63MOL   C26823952   5.068   5.210   7.571  0.2289 -0.4591  0.5954
   63MOL   C26923953   5.083   5.076   7.647 -0.1650  0.3880  0.5279
   63MOL   C27023954   5.094   5.072   0.112 -0.4026  0.1671  0.4294
   63MOL   C27123955   5.147   4.928   0.130  0.2747  0.0471 -0.1758
   63MOL   C27223956   5.237   4.897   0.010  0.2649 -0.4138  0.0786
   63MOL   C27323957   5.206   4.995   7.595 -0.3873  0.0508 -0.3494
   63MOL   C27423958   5.008   5.207   7.430  0.2837 -0.0086 -0.5292
   63MOL   H27523959   4.995   5.265   7.631  0.5854  0.0111  0.5977
   63MOL   H27623960   4.986   5.030   7.629  0.0497  0.3853 -0.6614
   63MOL   H27723961   5.165   5.140   0.159 -0.0738 -1.1248  1.8499
   63MOL   H27823962   4.991   5.084   0.146 -1.6115 -1.9066 -2.3364
   63MOL   H27923963   5.198   4.904   0.224  2.4710 -0.1352 -1.3796
   63MOL   H28023964   5.066   4.855   0.128 -0.2182  0.6053 -0.8392
   63MOL   H28123965   5.217   4.795   7.668  0.6885 -0.3740 -0.3204
   63MOL   H28223966   5.340   4.905   0.047  0.1265  0.0410  0.3627
   63MOL   H28323967   5.180   4.950   7.499  2.0777  1.3195 -1.6582
   63MOL   H28423968   5.290   5.062   7.575 -0.2463 -0.5317 -1.7649
   63MOL   H28523969   5.092   5.170   7.371 -1.3256  1.4228 -3.8269
   63MOL   H28623970   4.992   5.310   7.397 -0.6064 -0.3055 -1.0338
   63MOL   C28723971   4.869   5.137   7.410  0.3246  0.5503  0.2611
   63MOL   C28823972   4.760   5.224   7.472 -0.2317  0.6635 -0.4882
   63MOL   C28923973   4.737   5.352   7.401 -0.9236 -0.0939 -0.2427
   63MOL   C29023974   4.594   5.387   7.433 -0.0663  0.4548 -0.0540
   63MOL   C29123975   4.517   5.258   7.443  0.0365  0.6201  0.2079
   63MOL   C29223976   4.621   5.153   7.479 -0.2902 -0.2216 -0.3655
   63MOL   C29323977   4.844   5.103   7.255  0.3493 -0.5247  0.6476
   63MOL   H29423978   4.866   5.044   7.467  2.5252 -0.6005 -1.4393
   63MOL   H29523979   4.792   5.260   7.569 -0.8400  0.9690 -0.3977
   63MOL   H29623980   4.813   5.422   7.437  0.5675 -1.8850  0.2061
   63MOL   H29723981   4.749   5.350   7.293 -2.0436  3.0173 -0.4517
   63MOL   H29823982   4.586   5.431   7.533  1.8976 -2.1560  1.3362
   63MOL   H29923983   4.549   5.453   7.360 -2.1619  0.2730  1.0345
   63MOL   H30023984   4.496   5.249   7.337 -0.4820  3.2958  0.0362
   63MOL   H30123985   4.417   5.260   7.486 -0.0851  0.1862 -0.0566
   63MOL   H30223986   4.608   5.070   7.409 -1.1268 -0.1680 -0.2761
   63MOL   H30323987   4.600   5.115   7.579  0.1764 -1.0790 -0.5872
   63MOL   H30423988   4.893   5.175   7.189 -0.5575 -0.9470 -0.5100
   63MOL   H30523989   4.737   5.114   7.234  0.5717 -0.8798 -0.7249
   63MOL   C30623990   4.904   4.961   7.207 -0.3960 -0.2713  0.1899
   63MOL   C30723991   4.811   4.858   7.259 -0.3533 -0.2347  0.6936
   63MOL   C30823992   4.669   4.849   7.192 -0.2757  0.0148 -0.7828
   63MOL   C30923993   4.646   4.715   7.148  0.7240 -0.1513  0.1177
   63MOL   C31023994   4.747   4.621   7.218  0.3418  0.2696  0.0412
   63MOL   C31123995   4.869   4.712   7.244  0.0305 -0.0686  0.0362
   63MOL   C31223996   4.930   4.959   7.050 -0.0059  0.4934  0.4973
   63MOL   H31323997   4.991   4.947   7.272 -0.5108  0.6068  0.5477
   63MOL   H31423998   4.789   4.879   7.364 -0.7975 -1.4667  0.8512
   63MOL   H31523999   4.646   4.905   7.101 -0.6295  3.1751  1.1667
   63MOL   H31624000   4.589   4.881   7.259  0.0657  1.6529 -1.1251
   63MOL   H31724001   4.542   4.685   7.164  1.4003 -1.3897  2.2551
   63MOL   H31824002   4.670   4.705   7.042  0.0545  0.5026 -0.1012
   63MOL   H31924003   4.765   4.526   7.166 -1.0472 -0.6822  1.2609
   63MOL   H32024004   4.705   4.585   7.312  2.1832  0.3606  0.9275
   63MOL   H32124005   4.916   4.683   7.339 -0.5635  1.3782  0.7885
   63MOL   H32224006   4.939   4.703   7.161 -0.7009 -1.2757 -0.4437
   63MOL   H32324007   4.833   4.996   7.017 -0.1199  0.0992  0.3771
   63MOL   H32424008   4.911   4.859   7.011 -2.3002  0.5294  1.4389
   63MOL   C32524009   5.056   5.028   6.988 -0.0694 -0.1606  0.1987
   63MOL   C32624010   5.002   5.104   6.868  0.8277 -0.7234 -0.0884
   63MOL   C32724011   4.934   5.031   6.745  0.0917 -0.2794 -0.5881
   63MOL   C32824012   4.920   5.151   6.647  0.3249 -0.0503 -0.4591
   63MOL   C32924013   5.044   5.234   6.661 -0.0971 -0.4121  0.5258
   63MOL   C33024014   5.096   5.212   6.803  1.2163 -0.1396 -0.9517
   63MOL   C33124015   5.159   4.927   6.938  0.5983  0.0191  0.1956
   63MOL   H33224016   5.097   5.095   7.064 -2.1613  0.2645  0.9801
   63MOL   H33324017   4.920   5.164   6.908 -0.3013 -2.5178  0.3347
   63MOL   H33424018   4.836   4.990   6.772  0.5810 -0.2804  1.2470
   63MOL   H33524019   4.987   4.944   6.706  0.1222 -0.4598 -0.1454
   63MOL   H33624020   4.840   5.217   6.680  1.0700  1.7593 -2.1649
   63MOL   H33724021   4.906   5.113   6.546 -0.9659 -0.1183 -0.2688
   63MOL   H33824022   5.010   5.337   6.647 -0.8618 -1.0299 -2.6675
   63MOL   H33924023   5.111   5.208   6.579 -1.4392 -0.5667 -0.5406
   63MOL   H34024024   5.078   5.303   6.861 -2.1093 -0.3829 -1.5212
   63MOL   H34124025   5.204   5.194   6.802  1.5497  1.5794  1.1153
   63MOL   H34224026   5.231   4.971   6.869  0.7294 -1.4491 -0.6182
   63MOL   H34324027   5.106   4.853   6.878 -2.5705  2.0151  0.4212
   63MOL   C34424028   5.240   4.849   7.049 -1.0774  0.6333 -0.0844
   63MOL   C34524029   5.344   4.948   7.113 -0.7718 -0.4694  0.8031
   63MOL   C34624030   5.445   5.011   7.017 -0.0886  0.2913 -0.9595
   63MOL   C34724031   5.559   5.068   7.103 -0.7202 -0.0624  0.3442
   63MOL   C34824032   5.542   5.003   7.241 -0.2323 -0.9374 -0.3894
   63MOL   C34924033   5.421   4.904   7.233  0.2002 -0.0007  0.3034
   63MOL   C35024034   5.301   4.722   6.992  0.2123  0.4123 -0.5220
   63MOL   H35124035   5.169   4.822   7.127 -0.3381 -1.6700 -0.1693
   63MOL   H35224036   5.288   5.036   7.143 -0.0765  0.5649 -0.8964
   63MOL   H35324037   5.400   5.091   6.958 -1.6840 -0.5874 -0.9816
   63MOL   H35424038   5.492   4.941   6.947  1.0911 -0.1734  0.2904
   63MOL   H35524039   5.654   5.038   7.059  0.1156  0.7975  1.5471
   63MOL   H35624040   5.549   5.176   7.104  5.2386  0.6997 -1.6883
   63MOL   H35724041   5.510   5.080   7.311  1.0904 -0.8836  0.1729
   63MOL   H35824042   5.634   4.958   7.277  0.1906  1.1062  1.1544
   63MOL   H35924043   5.465   4.805   7.217  1.4874  0.9127 -1.9799
   63MOL   H36024044   5.347   4.898   7.313  1.1265  0.3723  1.1902
   63MOL   H36124045   5.401   4.709   7.032 -0.5410  1.0017  1.5758
   63MOL   H36224046   5.311   4.739   6.884 -1.7357 -0.8911 -0.9346
   63MOL   C36324047   5.209   4.598   7.014 -0.0500  0.4858  0.4187
   63MOL   C36424048   5.269   4.486   6.931  0.6992  0.1617  0.0883
   63MOL   C36524049   5.270   4.515   6.777  0.1735  0.4728  0.2669
   63MOL   C36624050   5.290   4.375   6.714 -0.3836 -0.7278  0.2495
   63MOL   C36724051   5.206   4.276   6.796 -0.0808 -0.4900 -0.2338
   63MOL   C36824052   5.189   4.351   6.928 -0.3803 -0.4770  0.4192
   63MOL   C36924053   5.194   4.555   7.161  0.1931  0.1266  0.5133
   63MOL   H37024054   5.107   4.621   6.981  0.7143  1.9435 -1.0242
   63MOL   H37124055   5.371   4.477   6.968  0.1517  1.9428  2.1486
   63MOL   H37224056   5.179   4.561   6.740 -0.0300  0.2579  0.5007
   63MOL   H37324057   5.353   4.581   6.749 -0.1538  0.4537 -0.7509
   63MOL   H37424058   5.287   4.373   6.605 -0.6926  2.0968  0.1797
   63MOL   H37524059   5.397   4.359   6.728 -0.3672 -0.3970  0.5149
   63MOL   H37624060   5.108   4.245   6.760 -0.3535 -1.1123  1.0050
   63MOL   H37724061   5.262   4.185   6.817  1.9649  0.9292  0.6258
   63MOL   H37824062   5.224   4.297   7.015  0.5955 -1.1705 -0.3964
   63MOL   H37924063   5.083   4.377   6.933 -0.5853 -1.5574  2.0074
   63MOL   H38024064   5.170   4.642   7.222  1.8158  0.7070  0.3414
   63MOL   H38124065   5.286   4.521   7.209  0.3701  0.0403  0.1157
   63MOL   H38224066   5.122   4.474   7.174  0.8554 -0.8634 -1.7533
   64MOL     C124067   3.299   4.986   4.786  0.0519 -0.1691  0.7581
   64MOL     C224068   3.171   4.904   4.826 -0.4297 -0.0481 -0.1363
   64MOL     C324069   3.188   4.749   4.817  0.3337 -0.5751 -0.0484
   64MOL     C424070   3.044   4.700   4.821  0.6470  0.3362 -0.4085
   64MOL     C524071   2.967   4.803   4.742 -0.1414  0.7985 -0.3370
   64MOL     C624072   3.052   4.924   4.739 -1.0426 -0.3110  0.8568
   64MOL     C724073   3.296   5.130   4.834  0.3267 -0.6575 -0.1595
   64MOL     H824074   3.386   4.929   4.819 -0.4189 -2.1979 -1.3404
   64MOL     H924075   3.155   4.937   4.929  1.7624  2.8265 -0.6579
   64MOL    H1024076   3.230   4.741   4.717  2.6634 -0.6397  0.9009
   64MOL    H1124077   3.255   4.710   4.894  0.7234 -1.9145 -1.0563
   64MOL    H1224078   3.031   4.599   4.784  0.9657 -1.0095  2.9522
   64MOL    H1324079   3.002   4.706   4.922  1.3791  2.4834 -0.2002
   64MOL    H1424080   2.946   4.775   4.638 -1.6497 -0.3365  0.2544
   64MOL    H1524081   2.861   4.818   4.767 -0.6199 -2.4459 -0.2037
   64MOL    H1624082   2.998   5.012   4.773 -1.6027 -0.6462  0.8410
   64MOL    H1724083   3.086   4.937   4.637 -1.7646 -1.0742  0.5179
   64MOL    H1824084   3.201   5.181   4.818  0.0073 -1.1835  0.0197
   64MOL    H1924085   3.283   5.111   4.941 -0.8928 -1.3561 -0.4242
   64MOL    H2024086   3.307   4.978   4.677  1.2203 -1.2785  0.9060
   64MOL    C2124087   3.412   5.217   4.790 -0.2514 -1.0550 -0.3918
   64MOL    C2224088   3.437   5.231   4.640  0.7403  0.1702 -0.6488
   64MOL    C2324089   3.580   5.269   4.593 -0.5765  0.0414 -0.1397
   64MOL    C2424090   3.573   5.346   4.461 -0.6295 -0.4872 -0.1174
   64MOL    C2524091   3.423   5.368   4.434 -0.0214 -0.3374 -0.2048
   64MOL    C2624092   3.339   5.314   4.550 -0.0710 -0.1670 -0.2817
   64MOL    C2724093   3.398   5.360   4.854  0.0398 -0.2584  0.4633
   64MOL    H2824094   3.500   5.166   4.829  1.0983  0.4355 -1.4212
   64MOL    H2924095   3.426   5.131   4.597 -1.9594  1.2550 -2.6446
   64MOL    H3024096   3.639   5.178   4.597 -0.9754 -0.1375  2.1372
   64MOL    H3124097   3.620   5.335   4.671 -1.3762 -0.1694  0.4491
   64MOL    H3224098   3.617   5.443   4.482 -0.8119 -0.5248  0.4499
   64MOL    H3324099   3.615   5.299   4.372 -3.5428  0.1355 -1.8993
   64MOL    H3424100   3.396   5.309   4.346 -0.8346 -1.6930  0.9378
   64MOL    H3524101   3.406   5.474   4.419  0.1579 -0.3610 -0.5948
   64MOL    H3624102   3.249   5.264   4.514 -2.1715  4.6024 -2.1259
   64MOL    H3724103   3.313   5.410   4.596  0.5564 -0.4645  0.7199
   64MOL    H3824104   3.457   5.428   4.793  1.2672 -2.0622 -0.3924
   64MOL    H3924105   3.296   5.398   4.844 -0.3900 -1.4095  0.4518
   64MOL    C4024106   3.431   5.367   5.002 -0.2401  0.3314 -0.9612
   64MOL    C4124107   3.581   5.424   5.028  0.6419  0.0848  0.9931
   64MOL    C4224108   3.700   5.339   4.975  0.0953 -0.4675 -0.1356
   64MOL    C4324109   3.822   5.388   5.054 -0.0111 -0.5133 -0.2914
   64MOL    C4424110   3.774   5.492   5.161  0.1879  0.5880  0.0574
   64MOL    C4524111   3.623   5.456   5.168  0.2577  0.6787 -1.3559
   64MOL    C4624112   3.316   5.432   5.087 -0.3784 -0.4105  0.0058
   64MOL    H4724113   3.438   5.263   5.033  1.7382  0.0622 -2.1655
   64MOL    H4824114   3.600   5.517   4.975 -2.5700  1.0149  1.3480
   64MOL    H4924115   3.714   5.347   4.867 -0.0443  1.8050 -0.0153
   64MOL    H5024116   3.680   5.233   4.989 -2.2463  0.1167  0.9927
   64MOL    H5124117   3.914   5.412   5.000  0.7078 -1.4369  0.4970
   64MOL    H5224118   3.867   5.311   5.117  1.4669  0.5857  0.0220
   64MOL    H5324119   3.825   5.484   5.257  0.5065  0.0433 -0.1493
   64MOL    H5424120   3.796   5.584   5.107  0.7368 -1.1232 -2.7748
   64MOL    H5524121   3.603   5.373   5.236  0.2218  1.4246 -0.4497
   64MOL    H5624122   3.555   5.536   5.198 -0.6735 -0.2958 -0.8271
   64MOL    H5724123   3.245   5.350   5.091 -3.4280  2.1405  0.7424
   64MOL    H5824124   3.347   5.434   5.192 -2.2310 -0.8405  0.5821
   64MOL    C5924125   3.234   5.559   5.058  0.3122 -0.3559  0.7412
   64MOL    C6024126   3.094   5.570   5.123 -0.7899  0.2210 -0.1863
   64MOL    C6124127   3.007   5.443   5.117  0.8125  0.2636 -0.2604
   64MOL    C6224128   2.858   5.496   5.108  0.2248  0.1524  0.2036
   64MOL    C6324129   2.864   5.646   5.139 -0.7710  0.1666 -1.0461
   64MOL    C6424130   3.004   5.683   5.079  0.3527 -0.1364 -0.0622
   64MOL    C6524131   3.311   5.693   5.087 -0.8110  0.4500 -0.2838
   64MOL    H6624132   3.205   5.560   4.953  0.2337  1.0907  0.7682
   64MOL    H6724133   3.121   5.573   5.229  1.3438  1.4756 -0.7302
   64MOL    H6824134   3.018   5.394   5.213 -0.4799 -1.5293 -1.0159
   64MOL    H6924135   3.034   5.373   5.039 -0.9613 -0.9908  0.2223
   64MOL    H7024136   2.796   5.431   5.170  0.2356 -0.6901 -0.6446
   64MOL    H7124137   2.825   5.500   5.004  0.0933  1.2705  0.2805
   64MOL    H7224138   2.859   5.669   5.246 -0.9802  1.0729 -1.2478
   64MOL    H7324139   2.782   5.700   5.091 -0.6288 -0.8185 -2.4133
   64MOL    H7424140   2.979   5.704   4.975  0.7694  1.1628  0.0963
   64MOL    H7524141   3.030   5.783   5.111 -3.0953  0.2064  1.9266
   64MOL    H7624142   3.409   5.675   5.133 -0.9738  0.3358  0.0161
   64MOL    H7724143   3.261   5.745   5.168  0.3062 -0.3940  0.9702
   64MOL    C7824144   3.318   5.793   4.969 -0.4093  0.5196 -0.2271
   64MOL    C7924145   3.358   5.948   5.002  0.3751  0.1879 -0.4412
   64MOL    C8024146   3.487   5.962   5.085 -0.1411  0.9545 -0.3064
   64MOL    C8124147   3.481   6.109   5.132  0.1711  0.3514  0.0980
   64MOL    C8224148   3.330   6.136   5.166  0.2131 -0.6070 -0.3396
   64MOL    C8324149   3.262   6.026   5.093  0.7689 -0.4745  0.0661
   64MOL    C8424150   3.413   5.732   4.867 -0.1648  0.4417  0.7473
   64MOL    H8524151   3.223   5.790   4.916  0.1433  2.6539 -1.3859
   64MOL    H8624152   3.383   6.010   4.915 -0.0655  1.7431  0.5188
   64MOL    H8724153   3.580   5.941   5.032 -0.0472  0.4492  0.0485
   64MOL    H8824154   3.497   5.892   5.168  0.7610 -1.4066 -2.3540
   64MOL    H8924155   3.508   6.165   5.042  1.8756  1.0590  1.0201
   64MOL    H9024156   3.535   6.145   5.219 -2.6888 -0.4123  2.2685
   64MOL    H9124157   3.319   6.137   5.275 -1.6274  1.4893 -0.5250
   64MOL    H9224158   3.296   6.237   5.143  1.7802  0.0103 -0.0356
   64MOL    H9324159   3.214   5.964   5.169  1.2041  1.7053  2.1919
   64MOL    H9424160   3.188   6.083   5.038  0.7810 -0.9895 -0.4862
   64MOL    H9524161   3.391   5.627   4.846  0.0408  0.6610 -0.6031
   64MOL    H9624162   3.511   5.718   4.912  0.3769 -0.8140 -0.7912
   64MOL    C9724163   3.437   5.811   4.738  0.5135 -0.1305  0.6255
   64MOL    C9824164   3.303   5.838   4.658  1.0923  0.7993 -0.0936
   64MOL    C9924165   3.323   5.881   4.513  0.1709  0.1801  0.7903
   64MOL   C10024166   3.191   5.881   4.438  0.1959 -0.3953  0.7328
   64MOL   C10124167   3.116   5.771   4.511  0.0827 -0.9383  0.4086
   64MOL   C10224168   3.204   5.722   4.626  0.7879  0.6033  0.1487
   64MOL   C10324169   3.556   5.752   4.657  0.0314 -0.0902 -0.3192
   64MOL   H10424170   3.470   5.911   4.765 -0.4088  0.9334 -2.0264
   64MOL   H10524171   3.247   5.921   4.703  1.4431  0.3572  1.1491
   64MOL   H10624172   3.382   5.973   4.506  0.6414 -0.1967 -0.2323
   64MOL   H10724173   3.385   5.808   4.461  1.2696  2.3570 -1.0855
   64MOL   H10824174   3.205   5.853   4.334 -2.2177 -0.7574  0.4840
   64MOL   H10924175   3.132   5.973   4.446  0.5107 -0.2586  1.5411
   64MOL   H11024176   3.093   5.687   4.446  0.5663  0.8252 -2.1150
   64MOL   H11124177   3.023   5.820   4.540  0.0475  0.1428 -1.4240
   64MOL   H11224178   3.147   5.688   4.712  2.1305 -0.7647  0.5244
   64MOL   H11324179   3.259   5.636   4.589 -1.0161  0.2291 -1.7295
   64MOL   H11424180   3.611   5.695   4.732 -1.6905 -2.1184 -0.5506
   64MOL   H11524181   3.508   5.668   4.606 -1.7510  0.4486  0.4519
   64MOL   C11624182   3.641   5.849   4.562 -0.0121  1.1353  0.1444
   64MOL   C11724183   3.765   5.898   4.641  0.1824  0.0534  0.2931
   64MOL   C11824184   3.742   5.977   4.778 -0.9607 -0.4083  0.3678
   64MOL   C11924185   3.851   5.944   4.866 -0.2577 -0.7916  0.1356
   64MOL   C12024186   3.888   5.801   4.842 -1.1685 -0.1350 -0.6017
   64MOL   C12124187   3.862   5.786   4.695  0.3585 -0.5772 -0.7119
   64MOL   C12224188   3.678   5.780   4.426 -0.6474  0.9115  0.0563
   64MOL   H12324189   3.578   5.935   4.539  0.3488  1.1741 -0.7305
   64MOL   H12424190   3.829   5.961   4.579 -1.2552  1.4494  0.2072
   64MOL   H12524191   3.744   6.086   4.774 -0.0570 -0.4572 -1.0666
   64MOL   H12624192   3.647   5.961   4.829 -1.1797 -0.1522  0.0483
   64MOL   H12724193   3.830   5.975   4.968  2.3734  0.3331  0.4025
   64MOL   H12824194   3.937   6.001   4.830 -0.9763  0.9311  1.0831
   64MOL   H12924195   3.821   5.734   4.896 -0.5299 -1.1229 -1.0249
   64MOL   H13024196   3.985   5.769   4.878 -1.8363 -0.9796  0.4831
   64MOL   H13124197   3.964   5.792   4.657  0.6898 -0.2303  0.2036
   64MOL   H13224198   3.814   5.690   4.678 -0.8212 -0.4575  1.6476
   64MOL   H13324199   3.613   5.695   4.407 -1.8676  1.9272 -0.3453
   64MOL   H13424200   3.778   5.735   4.432 -1.6343 -1.4707 -0.5724
   64MOL   C13524201   3.679   5.884   4.314 -0.2180 -0.0930  0.2709
   64MOL   C13624202   3.662   5.807   4.169  0.5549  0.0187 -0.0207
   64MOL   C13724203   3.526   5.738   4.140 -0.0176 -0.0119  0.4665
   64MOL   C13824204   3.551   5.582   4.155 -0.3181  0.3190 -0.3624
   64MOL   C13924205   3.704   5.563   4.166  0.2894  0.0842  0.1824
   64MOL   C14024206   3.768   5.698   4.151  0.6414 -1.5701 -0.2711
   64MOL   C14124207   3.800   5.987   4.324 -0.2225  0.9019 -0.3920
   64MOL   H14224208   3.583   5.936   4.316 -0.4291 -0.5118  1.9211
   64MOL   H14324209   3.669   5.880   4.089 -2.3169  1.3926  0.9019
   64MOL   H14424210   3.442   5.757   4.206 -1.3458  1.1256 -1.5215
   64MOL   H14524211   3.492   5.753   4.037  2.0570  0.1333 -0.2280
   64MOL   H14624212   3.509   5.535   4.067  0.8402 -0.8570 -0.3001
   64MOL   H14724213   3.506   5.526   4.238 -0.5450 -0.5751 -1.0776
   64MOL   H14824214   3.732   5.492   4.088 -2.5435  0.5704 -1.3720
   64MOL   H14924215   3.731   5.509   4.256 -0.9314 -2.7019 -1.0636
   64MOL   H15024216   3.854   5.709   4.217 -0.5259  0.1326  1.0323
   64MOL   H15124217   3.802   5.701   4.048  2.3046 -2.6709  0.2333
   64MOL   H15224218   3.886   5.928   4.356 -2.5508 -2.7942 -0.6652
   64MOL   H15324219   3.770   6.049   4.409 -1.1641  0.5642 -0.4722
   64MOL   C15424220   3.830   6.072   4.201  0.5313  0.1589  0.0281
   64MOL   C15524221   3.710   6.167   4.174 -0.0463  0.1061 -0.0159
   64MOL   C15624222   3.688   6.199   4.026 -0.2340 -0.0688  0.3619
   64MOL   C15724223   3.611   6.329   4.015  0.3649 -0.3330  0.0802
   64MOL   C15824224   3.614   6.394   4.154 -0.0841 -0.3955 -0.2818
   64MOL   C15924225   3.709   6.310   4.233 -0.2229  0.2514  0.5210
   64MOL   C16024226   3.957   6.150   4.225  0.2484 -0.7234  0.1353
   64MOL   H16124227   3.847   6.008   4.114  0.9967 -0.7069  0.7570
   64MOL   H16224228   3.617   6.120   4.204  0.8660 -3.3589 -2.3331
   64MOL   H16324229   3.782   6.198   3.971  0.7346 -2.5962  1.9587
   64MOL   H16424230   3.637   6.111   3.987 -0.0903  0.1249 -0.2545
   64MOL   H16524231   3.654   6.402   3.945  1.1517 -1.2071 -0.3599
   64MOL   H16624232   3.511   6.308   3.977 -0.0811 -0.4340  1.3010
   64MOL   H16724233   3.513   6.394   4.194 -0.8393 -0.5535 -2.1347
   64MOL   H16824234   3.652   6.494   4.133 -0.0742 -0.4984 -0.7744
   64MOL   H16924235   3.697   6.317   4.342  0.2281 -3.0829  0.8410
   64MOL   H17024236   3.804   6.357   4.210  0.4699 -1.1956  0.3866
   64MOL   H17124237   3.953   6.211   4.315  2.5740 -1.1371  0.5624
   64MOL   H17224238   3.970   6.225   4.147 -1.3051 -1.1379 -0.5396
   64MOL   C17324239   4.090   6.073   4.219 -0.4672 -0.4494  0.8862
   64MOL   C17424240   4.212   6.151   4.276 -0.0720 -0.1152 -0.5788
   64MOL   C17524241   4.198   6.209   4.420 -0.3340 -0.4711  0.2630
   64MOL   C17624242   4.322   6.299   4.441 -0.0050  0.3580 -0.4072
   64MOL   C17724243   4.355   6.350   4.301  0.1836  0.3291  0.0704
   64MOL   C17824244   4.263   6.273   4.203 -0.3478 -0.0320  0.4029
   64MOL   C17924245   4.127   6.027   4.077  0.2245  0.2298 -0.6704
   64MOL   H18024246   4.084   5.983   4.281 -0.2319 -0.3292  1.0828
   64MOL   H18124247   4.297   6.085   4.291  0.2509  0.7599  1.5527
   64MOL   H18224248   4.194   6.130   4.495  1.3477 -0.2477  0.6108
   64MOL   H18324249   4.122   6.286   4.425 -0.4733 -0.4880 -1.3139
   64MOL   H18424250   4.297   6.379   4.511  0.2922  1.2497 -1.3066
   64MOL   H18524251   4.404   6.240   4.482 -0.7268 -0.7007 -0.4680
   64MOL   H18624252   4.455   6.345   4.260  0.6476  4.0905  0.5307
   64MOL   H18724253   4.323   6.454   4.293  0.5919  0.4499  0.0143
   64MOL   H18824254   4.183   6.331   4.158 -0.9668 -0.7444  0.5724
   64MOL   H18924255   4.323   6.236   4.120 -0.7904  2.4433 -1.0533
   64MOL   H19024256   4.040   5.976   4.037  1.2208 -0.8058 -1.5574
   64MOL   H19124257   4.126   6.115   4.013 -0.5647 -0.7116 -1.9879
   64MOL   C19224258   4.240   5.915   4.055  0.5317 -0.1614  0.1170
   64MOL   C19324259   4.262   5.883   3.901 -0.7320  0.3062  0.5021
   64MOL   C19424260   4.337   5.998   3.831  0.2963  0.6319 -0.0738
   64MOL   C19524261   4.312   5.987   3.679 -0.6745 -0.3935  0.2313
   64MOL   C19624262   4.207   5.870   3.668  0.7295 -0.0379 -0.0664
   64MOL   C19724263   4.150   5.861   3.808 -0.8602  0.3565 -0.3802
   64MOL   C19824264   4.203   5.776   4.126 -0.9741 -0.4999 -0.1082
   64MOL   H19924265   4.333   5.952   4.099 -0.0379  1.0129  0.3432
   64MOL   H20024266   4.325   5.794   3.900  0.7635  1.3063  1.8938
   64MOL   H20124267   4.443   5.989   3.855  0.2747  1.4507  0.3609
   64MOL   H20224268   4.311   6.099   3.862 -0.6270  0.7878 -1.2984
   64MOL   H20324269   4.269   6.076   3.632 -1.5457 -1.5033 -1.1246
   64MOL   H20424270   4.402   5.960   3.623 -1.2095  1.1302 -1.4200
   64MOL   H20524271   4.267   5.780   3.653 -0.0319 -0.6690  0.6112
   64MOL   H20624272   4.130   5.873   3.591  0.6844 -0.8735 -0.0557
   64MOL   H20724273   4.098   5.765   3.811  1.3654 -0.8974 -0.4893
   64MOL   H20824274   4.075   5.939   3.812 -2.5655 -1.2639  0.0626
   64MOL   H20924275   4.139   5.792   4.213 -0.4005  2.2973 -0.1582
   64MOL   H21024276   4.134   5.731   4.054 -1.4415  0.3073 -0.1776
   64MOL   C21124277   4.319   5.669   4.157  0.2565  0.1692  1.1550
   64MOL   C21224278   4.394   5.725   4.282 -0.1606  0.7894 -0.2278
   64MOL   C21324279   4.318   5.720   4.420  0.1181 -0.2814  0.4465
   64MOL   C21424280   4.389   5.622   4.509 -0.2177 -0.7537 -0.2715
   64MOL   C21524281   4.531   5.654   4.469 -0.1015 -0.4363 -0.2786
   64MOL   C21624282   4.528   5.661   4.313 -0.1897  0.2356 -0.0764
   64MOL   C21724283   4.256   5.524   4.183 -0.4635 -0.8354 -0.3038
   64MOL   H21824284   4.394   5.666   4.078 -0.2064 -0.0567  0.7124
   64MOL   H21924285   4.415   5.832   4.271  2.2466  0.4437  0.8254
   64MOL   H22024286   4.314   5.819   4.466  3.6170  0.5212 -0.7843
   64MOL   H22124287   4.213   5.699   4.400  0.2607 -0.7482  0.1759
   64MOL   H22224288   4.358   5.648   4.610 -0.0270  2.3740 -0.9653
   64MOL   H22324289   4.366   5.516   4.492 -0.7637 -1.1364  2.5972
   64MOL   H22424290   4.607   5.583   4.500  1.0226  1.3815  1.2518
   64MOL   H22524291   4.551   5.749   4.519 -0.1039  0.1270 -1.3272
   64MOL   H22624292   4.606   5.724   4.270 -0.3074 -0.0865 -0.7586
   64MOL   H22724293   4.539   5.560   4.273 -1.2654  0.9087 -2.1720
   64MOL   H22824294   4.162   5.523   4.237  0.7845 -1.8796  1.9208
   64MOL   H22924295   4.323   5.474   4.254  0.8892  0.6545 -0.5137
   64MOL   C23024296   4.249   5.435   4.058 -0.4363 -0.3928  0.2797
   64MOL   C23124297   4.162   5.485   3.940 -0.4478  0.1240 -0.6689
   64MOL   C23224298   4.183   5.409   3.801 -0.0515 -0.1738  0.0013
   64MOL   C23324299   4.055   5.451   3.732 -0.1014  0.9466 -0.4794
   64MOL   C23424300   3.943   5.465   3.828 -0.4016 -0.3363 -0.9353
   64MOL   C23524301   4.011   5.467   3.968 -0.6970 -0.0197  0.9065
   64MOL   C23624302   4.225   5.298   4.107  0.3477 -0.2375  0.2365
   64MOL   H23724303   4.354   5.441   4.028  0.0891  0.0133  2.1060
   64MOL   H23824304   4.181   5.590   3.916 -3.8059  1.4333  2.0077
   64MOL   H23924305   4.273   5.447   3.752  0.0432  1.0672  1.1190
   64MOL   H24024306   4.196   5.300   3.801 -2.8887 -0.5646  2.8893
   64MOL   H24124307   4.076   5.551   3.695  1.1982  0.7024 -0.4138
   64MOL   H24224308   4.030   5.392   3.644  2.3619  0.6071 -0.9978
   64MOL   H24324309   3.863   5.393   3.812 -1.0211  0.3965 -1.1477
   64MOL   H24424310   3.911   5.567   3.806  0.8365 -0.1477 -1.9358
   64MOL   H24524311   3.990   5.372   4.017  1.8654 -2.0556 -1.7949
   64MOL   H24624312   3.976   5.552   4.026  0.5727  0.5261  0.8864
   64MOL   H24724313   4.169   5.240   4.034  0.1951  0.5319 -0.2717
   64MOL   H24824314   4.157   5.302   4.192  0.9461 -1.9748  0.8151
   64MOL   C24924315   4.358   5.221   4.135 -0.8797 -0.0349 -0.1212
   64MOL   C25024316   4.409   5.155   4.004 -0.5190 -0.2796  0.3733
   64MOL   C25124317   4.326   5.052   3.929 -0.0173 -0.1169 -0.2133
   64MOL   C25224318   4.420   4.964   3.843  0.0465  0.9695 -0.7579
   64MOL   C25324319   4.554   5.024   3.867 -0.1473  0.4839 -0.2640
   64MOL   C25424320   4.548   5.100   3.994 -0.2728 -0.4173 -0.1889
   64MOL   C25524321   4.331   5.113   4.241  0.4609 -0.0509 -0.0777
   64MOL   H25624322   4.430   5.289   4.179  0.8235 -1.2168 -1.0523
   64MOL   H25724323   4.411   5.235   3.930  0.4555  0.0838  0.7833
   64MOL   H25824324   4.256   5.110   3.870  0.0611  1.3017  1.0631
   64MOL   H25924325   4.277   4.982   3.998  0.8900 -0.6239 -0.0759
   64MOL   H26024326   4.384   4.959   3.740 -3.8411  1.6576  0.4838
   64MOL   H26124327   4.414   4.862   3.879  1.9386  1.0096 -0.2598
   64MOL   H26224328   4.575   5.098   3.790  1.1859  0.3525 -0.0293
   64MOL   H26324329   4.627   4.945   3.880 -0.7839 -0.3572 -1.7015
   64MOL   H26424330   4.622   5.179   4.007 -1.7489  0.8540  0.7595
   64MOL   H26524331   4.564   5.024   4.070  0.0983 -0.6759 -0.5279
   64MOL   H26624332   4.250   5.044   4.214 -1.0608  1.6736 -0.0051
   64MOL   H26724333   4.420   5.051   4.239  0.4473 -0.0739  0.0886
   64MOL   C26824334   4.293   5.165   4.389  0.2892 -0.0110  0.1521
   64MOL   C26924335   4.410   5.163   4.487 -0.3480  0.0625  0.5418
   64MOL   C27024336   4.539   5.229   4.455  0.4416  0.3173  0.2697
   64MOL   C27124337   4.632   5.172   4.557  0.3688 -0.1399 -0.5721
   64MOL   C27224338   4.567   5.041   4.619  0.8020  0.1836  0.0967
   64MOL   C27324339   4.446   5.019   4.532 -0.0823 -0.1390  0.0217
   64MOL   C27424340   4.163   5.093   4.446  0.9472 -0.1032 -0.0115
   64MOL   H27524341   4.262   5.269   4.375  1.0891  0.0588 -1.2042
   64MOL   H27624342   4.376   5.217   4.576  0.6075 -3.5451  3.2196
   64MOL   H27724343   4.586   5.203   4.360  0.8559  1.7293  0.0800
   64MOL   H27824344   4.532   5.337   4.451 -0.4937  0.2512  0.0614
   64MOL   H27924345   4.724   5.147   4.503  0.1278  0.0954 -1.0954
   64MOL   H28024346   4.651   5.242   4.639  1.6983 -1.4707  0.2798
   64MOL   H28124347   4.541   5.061   4.723  0.4121  0.0739  0.0192
   64MOL   H28224348   4.634   4.955   4.626 -0.3970 -0.8177 -0.4506
   64MOL   H28324349   4.363   4.967   4.581  0.2516 -0.5956  0.1119
   64MOL   H28424350   4.484   4.965   4.445  3.4014  2.0120  0.1366
   64MOL   H28524351   4.169   4.985   4.437 -1.1205 -0.2639  0.2427
   64MOL   H28624352   4.087   5.111   4.369  0.3595 -0.5158  0.4674
   64MOL   C28724353   4.099   5.134   4.585 -0.1393  0.3182 -0.8586
   64MOL   C28824354   4.088   5.293   4.599  0.7550  0.3782 -0.5075
   64MOL   C28924355   3.998   5.361   4.501 -0.0135 -0.1926 -0.1048
   64MOL   C29024356   3.961   5.492   4.560  0.5281 -0.7314 -0.7547
   64MOL   C29124357   3.987   5.475   4.711  0.0845 -0.3513 -0.2077
   64MOL   C29224358   4.037   5.336   4.734  0.7195 -0.3873 -0.4864
   64MOL   C29324359   3.981   5.042   4.620 -0.1917  0.1403 -0.0090
   64MOL   H29424360   4.176   5.113   4.659 -0.4863  3.2622  0.3851
   64MOL   H29524361   4.192   5.326   4.588  1.2740 -0.8437  0.6661
   64MOL   H29624362   4.019   5.358   4.394  1.3028  1.0520  0.1076
   64MOL   H29724363   3.907   5.301   4.502 -1.1157  1.3910 -2.4704
   64MOL   H29824364   4.021   5.571   4.515  0.3109 -0.8213 -1.1972
   64MOL   H29924365   3.858   5.518   4.536  0.2407 -1.2748 -0.1192
   64MOL   H30024366   3.895   5.494   4.766 -0.6591  1.1332 -1.9243
   64MOL   H30124367   4.052   5.557   4.741 -2.3395  1.5963 -0.0519
   64MOL   H30224368   3.952   5.273   4.759  1.2594 -0.5967  0.8823
   64MOL   H30324369   4.113   5.334   4.812  1.6145  3.0747 -1.1942
   64MOL   H30424370   3.921   5.045   4.529 -0.8078  2.2773  0.4364
   64MOL   H30524371   3.908   5.085   4.689  0.6891  1.2201  0.2716
   64MOL   C30624372   4.015   4.898   4.658 -0.1046 -0.2908  0.0576
   64MOL   C30724373   4.064   4.894   4.805 -0.5032  1.1580 -0.1468
   64MOL   C30824374   3.950   4.924   4.907 -0.7303 -0.0237  0.7554
   64MOL   C30924375   4.025   4.875   5.030  0.3957  0.3289  0.4353
   64MOL   C31024376   4.091   4.738   4.999 -0.8294  0.0933  0.1070
   64MOL   C31124377   4.121   4.749   4.847  0.0880 -0.5799  0.0292
   64MOL   C31224378   3.897   4.802   4.632 -0.3826 -0.4950  0.5207
   64MOL   H31324379   4.099   4.867   4.595 -0.0553 -2.1188  0.9800
   64MOL   H31424380   4.135   4.972   4.830  1.1356 -0.2392 -0.3781
   64MOL   H31524381   3.854   4.876   4.890 -0.3756 -0.3945 -0.2311
   64MOL   H31624382   3.929   5.031   4.905 -1.5838 -0.1958  0.0791
   64MOL   H31724383   4.106   4.944   5.057  1.8513 -1.0247 -0.3836
   64MOL   H31824384   3.960   4.878   5.118  0.8109  1.8285  0.7202
   64MOL   H31924385   4.022   4.659   5.028  1.4366 -1.3511  1.7062
   64MOL   H32024386   4.181   4.734   5.059 -0.4933 -0.1925 -0.4137
   64MOL   H32124387   4.227   4.733   4.823  0.5312  0.4526  1.2536
   64MOL   H32224388   4.076   4.666   4.793 -1.3694  1.4442 -1.9795
   64MOL   H32324389   3.807   4.829   4.688  0.9623 -0.8192  2.9490
   64MOL   H32424390   3.913   4.703   4.675  2.5251 -0.6801 -0.9195
   64MOL   C32524391   3.854   4.775   4.488  0.5981 -0.2129  0.3784
   64MOL   C32624392   3.719   4.844   4.454  0.3226 -0.0613  0.1620
   64MOL   C32724393   3.590   4.778   4.498 -1.1239 -0.2069 -0.1729
   64MOL   C32824394   3.489   4.851   4.415  0.2592  0.4068 -0.1026
   64MOL   C32924395   3.552   4.896   4.282 -0.8116 -1.2393 -0.3950
   64MOL   C33024396   3.699   4.859   4.298 -0.6520 -0.3413 -0.2756
   64MOL   C33124397   3.874   4.630   4.439 -0.6701 -0.0323 -0.1793
   64MOL   H33224398   3.927   4.831   4.429 -0.0768 -0.6832 -0.9185
   64MOL   H33324399   3.713   4.948   4.485  0.2074 -0.3485  1.1357
   64MOL   H33424400   3.567   4.791   4.604  1.5016 -0.3912  0.4432
   64MOL   H33524401   3.581   4.671   4.483  0.1978 -0.1952 -1.1421
   64MOL   H33624402   3.468   4.937   4.478 -1.4179  1.1203 -1.5886
   64MOL   H33724403   3.397   4.798   4.391  0.5406 -0.2887  0.3286
   64MOL   H33824404   3.545   5.002   4.261 -2.0814 -0.9700  1.2798
   64MOL   H33924405   3.528   4.835   4.195 -1.3554  1.5683 -2.2638
   64MOL   H34024406   3.776   4.930   4.267  2.8527 -3.9964 -0.4295
   64MOL   H34124407   3.725   4.769   4.243  0.0836 -1.6236  2.1057
   64MOL   H34224408   3.856   4.607   4.334 -0.7521  0.6919 -0.3246
   64MOL   H34324409   3.802   4.564   4.488 -1.1313  2.4870  2.6861
   64MOL   C34424410   4.023   4.575   4.450  0.3066  0.2271  0.0431
   64MOL   C34524411   4.130   4.654   4.370  1.1904  0.3808 -0.4661
   64MOL   C34624412   4.110   4.671   4.224  0.3910 -0.4347  0.3371
   64MOL   C34724413   4.246   4.730   4.171  0.9925  0.4136  0.0937
   64MOL   C34824414   4.350   4.654   4.258 -0.5168  0.0576 -0.4939
   64MOL   C34924415   4.282   4.620   4.389 -0.2512 -0.0913  0.4156
   64MOL   C35024416   4.023   4.425   4.401  0.8145 -0.0433 -0.6867
   64MOL   H35124417   4.063   4.598   4.549  0.6026 -0.1227  0.0070
   64MOL   H35224418   4.119   4.751   4.417 -3.4914 -0.4191  0.3069
   64MOL   H35324419   4.023   4.731   4.195 -0.9422 -1.9384  1.1964
   64MOL   H35424420   4.099   4.572   4.180 -0.6289 -1.2493  2.3686
   64MOL   H35524421   4.255   4.736   4.063  1.4778 -3.7402 -0.1641
   64MOL   H35624422   4.251   4.833   4.207 -1.8664  0.4878  0.4091
   64MOL   H35724423   4.434   4.722   4.274 -1.8175  1.4221  0.6883
   64MOL   H35824424   4.391   4.566   4.208 -0.0784 -0.5866  0.9759
   64MOL   H35924425   4.300   4.522   4.434  2.8792  0.5691  0.7475
   64MOL   H36024426   4.332   4.681   4.465  0.8811  0.9470 -1.1392
   64MOL   H36124427   4.126   4.391   4.389  0.3909 -1.5252 -0.1768
   64MOL   H36224428   3.976   4.417   4.303 -0.3931  2.0799 -0.3109
   64MOL   C36324429   3.959   4.314   4.502 -1.1837 -0.9523  0.1529
   64MOL   C36424430   3.966   4.178   4.443  0.7029 -0.1012  0.2296
   64MOL   C36524431   3.867   4.157   4.322  0.0317  0.3455 -0.0082
   64MOL   C36624432   3.851   4.006   4.311  0.2050  0.0912 -0.3274
   64MOL   C36724433   3.868   3.942   4.451 -0.5791  0.2334  0.1213
   64MOL   C36824434   3.922   4.064   4.535 -0.0364  0.6279  0.5078
   64MOL   C36924435   4.039   4.318   4.630 -0.1219  0.2235  0.7338
   64MOL   H37024436   3.855   4.343   4.518 -1.2567  0.5631 -2.7551
   64MOL   H37124437   4.071   4.166   4.416  0.4880  1.8988 -1.6500
   64MOL   H37224438   3.776   4.202   4.360  0.6525  0.7166  1.0699
   64MOL   H37324439   3.901   4.200   4.227  0.1807  2.0451  0.7949
   64MOL   H37424440   3.749   3.997   4.276  0.4370 -3.0638 -0.3126
   64MOL   H37524441   3.919   3.964   4.237  0.7471  0.1346  0.1369
   64MOL   H37624442   3.766   3.913   4.479 -0.3977 -0.5094  0.0200
   64MOL   H37724443   3.940   3.861   4.464  0.1894  0.7169 -1.0547
   64MOL   H37824444   4.004   4.019   4.591  0.5446  1.5204  0.3809
   64MOL   H37924445   3.860   4.099   4.617  0.6717 -1.6488  2.0736
   64MOL   H38024446   4.032   4.413   4.684  2.3962  0.4469  0.7242
   64MOL   H38124447   4.141   4.294   4.599 -0.5729  0.6534 -1.1658
   64MOL   H38224448   4.023   4.246   4.710 -1.3229  0.9093  1.1209
   65MOL     C124449   2.414   3.439   5.389  0.0110  0.0310 -0.0099
   65MOL     C224450   2.552   3.407   5.325  0.3737  0.0601 -0.2344
   65MOL     C324451   2.533   3.315   5.212  0.3153  0.3692 -0.0087
   65MOL     C424452   2.669   3.241   5.189  0.2659 -0.0342 -0.2207
   65MOL     C524453   2.737   3.250   5.323  0.1507 -0.4583  0.7932
   65MOL     C624454   2.646   3.328   5.414 -0.6773  0.3739 -0.2620
   65MOL     C724455   2.415   3.563   5.478  0.6017 -0.3072  0.0824
   65MOL     H824456   2.349   3.456   5.303  1.0434  3.4336 -0.2196
   65MOL     H924457   2.597   3.495   5.279  1.4367 -0.2968  0.1121
   65MOL    H1024458   2.449   3.247   5.221  1.0563 -0.5782 -0.1143
   65MOL    H1124459   2.520   3.380   5.125 -0.3348 -0.7777 -0.7820
   65MOL    H1224460   2.660   3.134   5.168 -0.8412  0.0165 -0.0663
   65MOL    H1324461   2.731   3.289   5.114  1.9277  2.9425  2.9112
   65MOL    H1424462   2.769   3.159   5.373  0.1629  0.1753  1.9483
   65MOL    H1524463   2.827   3.310   5.318  0.1853 -0.3254  2.5752
   65MOL    H1624464   2.695   3.405   5.474  1.2275 -0.7853 -0.2863
   65MOL    H1724465   2.589   3.260   5.478  0.5841  0.1442  0.6399
   65MOL    H1824466   2.494   3.555   5.552 -0.4964  2.8907  1.7249
   65MOL    H1924467   2.448   3.646   5.415  2.8957 -0.0436  1.5758
   65MOL    H2024468   2.368   3.357   5.443 -0.6732 -0.0266 -0.6729
   65MOL    C2124469   2.281   3.588   5.550 -0.1775  0.1733  0.3408
   65MOL    C2224470   2.291   3.709   5.652  0.1547  0.1509 -0.3857
   65MOL    C2324471   2.381   3.670   5.772  0.1537 -0.0580  0.1428
   65MOL    C2424472   2.344   3.767   5.878 -0.7739  0.0023 -0.2783
   65MOL    C2524473   2.198   3.813   5.852  0.6792 -0.0438  0.3243
   65MOL    C2624474   2.159   3.751   5.715 -0.0468  0.0938 -0.1489
   65MOL    C2724475   2.173   3.622   5.434  0.8006  0.3067 -0.0900
   65MOL    H2824476   2.250   3.500   5.606  2.6943 -0.0636  1.6678
   65MOL    H2924477   2.337   3.792   5.598 -2.1181  0.7584 -1.4185
   65MOL    H3024478   2.489   3.677   5.754  0.4015 -0.0500  1.5610
   65MOL    H3124479   2.349   3.570   5.803  0.6938 -0.0008  0.8865
   65MOL    H3224480   2.352   3.704   5.967  0.5910 -0.9083 -1.0362
   65MOL    H3324481   2.417   3.847   5.886  0.1210 -0.6448 -1.8120
   65MOL    H3424482   2.189   3.921   5.855  1.4378  0.0023  1.3565
   65MOL    H3524483   2.121   3.788   5.926 -1.6954  1.1303 -1.6711
   65MOL    H3624484   2.098   3.815   5.651 -0.7088  0.0978  0.4862
   65MOL    H3724485   2.107   3.659   5.740  2.2116 -1.3844 -0.8224
   65MOL    H3824486   2.122   3.718   5.448 -0.8581 -0.5154 -0.4678
   65MOL    H3924487   2.233   3.648   5.347 -0.8390 -2.2592 -2.0189
   65MOL    C4024488   2.069   3.510   5.408 -0.2461 -0.2276  0.4008
   65MOL    C4124489   1.971   3.487   5.527 -0.2528  0.4025 -0.0855
   65MOL    C4224490   1.876   3.375   5.503 -0.1097 -0.4763 -0.3992
   65MOL    C4324491   1.753   3.400   5.587  1.0354 -0.3592 -0.2337
   65MOL    C4424492   1.731   3.546   5.580  0.4178  0.2291  0.8295
   65MOL    C4524493   1.873   3.597   5.576 -0.0064  0.2118 -0.2038
   65MOL    C4624494   1.992   3.551   5.278 -0.7815 -0.0005  0.7213
   65MOL    H4724495   2.122   3.419   5.381 -0.8669 -0.7346  0.8654
   65MOL    H4824496   2.023   3.454   5.617 -1.8530  1.8073  1.3796
   65MOL    H4924497   1.924   3.281   5.529  1.4997  0.0527 -1.4135
   65MOL    H5024498   1.839   3.366   5.400  0.4422  2.8356 -0.9326
   65MOL    H5124499   1.784   3.377   5.689 -0.4493  1.7143  0.7250
   65MOL    H5224500   1.660   3.349   5.566  1.1398 -0.8895  0.5598
   65MOL    H5324501   1.683   3.572   5.486  1.9481 -0.2131 -0.0984
   65MOL    H5424502   1.676   3.591   5.663 -2.0315 -3.6530  1.3972
   65MOL    H5524503   1.876   3.682   5.507 -0.7186 -0.2287 -0.7794
   65MOL    H5624504   1.909   3.629   5.674  1.5763  2.2779 -1.4015
   65MOL    H5724505   1.888   3.518   5.282 -0.6441 -0.2387  3.1425
   65MOL    H5824506   1.984   3.660   5.276 -3.9073 -0.1919 -0.1331
   65MOL    C5924507   2.056   3.498   5.147 -0.3855  0.2318 -0.1309
   65MOL    C6024508   2.042   3.340   5.130 -0.0563 -0.0083 -0.1366
   65MOL    C6124509   2.136   3.282   5.020  0.3940 -0.8791  0.1866
   65MOL    C6224510   2.052   3.187   4.930 -0.5303 -0.1142 -0.7280
   65MOL    C6324511   1.922   3.166   5.006  0.1460 -0.1240 -0.3393
   65MOL    C6424512   1.901   3.297   5.083 -0.6127  0.7541  0.1131
   65MOL    C6524513   2.011   3.585   5.022  0.1471  0.1829 -0.5114
   65MOL    H6624514   2.162   3.524   5.155  0.1985 -1.4338 -1.9717
   65MOL    H6724515   2.070   3.283   5.219  1.7636  1.3019  0.1793
   65MOL    H6824516   2.222   3.233   5.067  0.9439  2.3026  2.6858
   65MOL    H6924517   2.181   3.354   4.952  3.6469 -1.4745  1.5812
   65MOL    H7024518   2.101   3.090   4.920 -0.7508 -0.0851 -2.2120
   65MOL    H7124519   2.033   3.238   4.836 -0.8112 -0.3903 -0.8259
   65MOL    H7224520   1.947   3.097   5.087  2.2806 -0.0666 -0.9061
   65MOL    H7324521   1.838   3.137   4.943 -0.3202  0.0071  0.2115
   65MOL    H7424522   1.845   3.364   5.017 -1.3472  1.6170  1.5627
   65MOL    H7524523   1.823   3.275   5.157 -0.0594 -2.1242 -0.1200
   65MOL    H7624524   1.923   3.643   5.051  0.4387  2.2638 -3.5637
   65MOL    H7724525   1.983   3.512   4.945  0.2583 -0.5381  0.1295
   65MOL    C7824526   2.109   3.689   4.971 -0.7737  0.2830  0.1198
   65MOL    C7924527   2.070   3.743   4.829  0.3767  0.3538  0.6430
   65MOL    C8024528   1.918   3.775   4.809  0.3638  0.1205  0.6813
   65MOL    C8124529   1.878   3.695   4.676 -0.2749  0.6385 -0.1017
   65MOL    C8224530   2.012   3.675   4.606  1.0036 -0.0465 -0.2547
   65MOL    C8324531   2.111   3.643   4.711 -0.4537 -0.0785  0.1110
   65MOL    C8424532   2.139   3.808   5.070  0.2553  0.2533 -0.4122
   65MOL    H8524533   2.206   3.639   4.963 -0.5348  0.1996  3.0953
   65MOL    H8624534   2.112   3.843   4.815 -0.6619  0.5526 -1.1351
   65MOL    H8724535   1.904   3.882   4.794  4.1149  0.8256  1.6307
   65MOL    H8824536   1.854   3.748   4.893 -0.2506  0.8169  0.4479
   65MOL    H8924537   1.796   3.749   4.628  0.4112  2.1061  0.3537
   65MOL    H9024538   1.842   3.597   4.710  0.9276  0.0793 -0.4435
   65MOL    H9124539   2.010   3.587   4.541 -0.9807  1.1823 -1.9311
   65MOL    H9224540   2.042   3.763   4.549 -0.9124  1.0515  0.3766
   65MOL    H9324541   2.103   3.541   4.747 -1.8427  0.1940  0.6134
   65MOL    H9424542   2.210   3.663   4.672  0.1597 -1.3824  0.9813
   65MOL    H9524543   2.150   3.758   5.166  1.9428 -0.5245 -0.9861
   65MOL    H9624544   2.049   3.867   5.086 -0.2352 -1.2257  2.7168
   65MOL    C9724545   2.251   3.907   5.037  0.2192  0.1556  0.3543
   65MOL    C9824546   2.388   3.841   5.018  0.1388  0.6285  0.8640
   65MOL    C9924547   2.500   3.940   4.984 -0.9350  0.4656 -0.2094
   65MOL   C10024548   2.632   3.876   5.030 -0.1010  0.7530 -0.1358
   65MOL   C10124549   2.597   3.755   5.116  0.3187 -0.0283  0.7683
   65MOL   C10224550   2.444   3.770   5.145  0.0086  0.4648  0.1991
   65MOL   C10324551   2.251   4.034   5.129  0.1888  0.3661  0.5370
   65MOL   H10424552   2.231   3.951   4.939  2.5912 -1.7226 -1.0326
   65MOL   H10524553   2.397   3.769   4.936  1.8513  0.2052  1.4089
   65MOL   H10624554   2.513   3.949   4.876  1.0787 -1.3028 -0.1441
   65MOL   H10724555   2.494   4.041   5.025 -1.9333  0.9827 -1.5864
   65MOL   H10824556   2.682   3.945   5.098  0.1603  1.3775 -0.9511
   65MOL   H10924557   2.700   3.855   4.948 -0.6559 -0.0250 -0.4011
   65MOL   H11024558   2.650   3.761   5.211  0.8835  2.4613  0.3285
   65MOL   H11124559   2.606   3.659   5.065 -2.4582 -0.0066  0.1862
   65MOL   H11224560   2.403   3.672   5.168  1.0510  0.4355  2.0252
   65MOL   H11324561   2.423   3.836   5.230  0.4629  0.1173  0.5838
   65MOL   H11424562   2.237   3.998   5.231  1.7796  0.3936  0.7674
   65MOL   H11524563   2.346   4.082   5.150  0.8209  0.3179 -1.9697
   65MOL   C11624564   2.154   4.142   5.088  0.3376  0.6619 -0.1530
   65MOL   C11724565   2.115   4.223   5.215 -0.1695 -0.1300  0.5729
   65MOL   C11824566   2.033   4.158   5.325 -0.4417  0.3508  0.1334
   65MOL   C11924567   2.074   4.239   5.452 -0.0951  0.2477 -0.1286
   65MOL   C12024568   2.193   4.329   5.417 -0.1201 -0.0647  0.0316
   65MOL   C12124569   2.233   4.304   5.278  1.2313 -0.2015  0.6491
   65MOL   C12224570   2.217   4.216   4.963  0.7366  0.0076  0.3041
   65MOL   H12324571   2.068   4.087   5.050  0.1588 -0.1893  1.4682
   65MOL   H12424572   2.047   4.299   5.176 -1.6388 -1.4347  0.5431
   65MOL   H12524573   1.928   4.187   5.316 -0.0055  1.7176 -0.8707
   65MOL   H12624574   2.058   4.052   5.330  2.0990  0.8318 -1.2130
   65MOL   H12724575   2.094   4.173   5.536  0.7107  0.0468 -0.4683
   65MOL   H12824576   1.997   4.308   5.486 -0.5547  0.5027 -1.6646
   65MOL   H12924577   2.272   4.318   5.492 -1.1432 -0.1925  1.1174
   65MOL   H13024578   2.145   4.427   5.414 -0.8956 -0.4737 -0.8262
   65MOL   H13124579   2.265   4.395   5.227 -3.7383  1.2798 -0.0388
   65MOL   H13224580   2.324   4.245   5.292  2.4100  0.5731 -3.1672
   65MOL   H13324581   2.232   4.140   4.886  3.1081  1.5592 -0.8000
   65MOL   H13424582   2.316   4.255   4.987  1.0163  0.5848 -1.7318
   65MOL   C13524583   2.140   4.332   4.894 -0.5154  0.9590 -0.6360
   65MOL   C13624584   2.004   4.290   4.855 -0.3194  0.4336  0.4749
   65MOL   C13724585   1.984   4.180   4.747  0.2577 -0.3047 -0.7442
   65MOL   C13824586   1.837   4.184   4.712  0.1855 -0.6257  0.2657
   65MOL   C13924587   1.789   4.330   4.741 -0.3873  0.0869 -0.6663
   65MOL   C14024588   1.903   4.397   4.812  0.2657  0.9755  0.6343
   65MOL   C14124589   2.227   4.407   4.793 -0.3084 -0.3042  0.0394
   65MOL   H14224590   2.133   4.402   4.977  0.4206  1.2359 -0.7766
   65MOL   H14324591   1.959   4.248   4.945  0.3150 -1.8910 -0.2576
   65MOL   H14424592   2.047   4.190   4.659  1.4056 -1.0949 -0.0371
   65MOL   H14524593   2.008   4.079   4.782 -0.3953  0.0136  0.6932
   65MOL   H14624594   1.777   4.120   4.777 -0.9109 -0.3079 -0.4208
   65MOL   H14724595   1.827   4.168   4.604  3.1873 -1.1242  0.0180
   65MOL   H14824596   1.703   4.332   4.808 -0.0909 -1.1199 -0.2334
   65MOL   H14924597   1.760   4.391   4.656 -2.4540  1.4956  0.9919
   65MOL   H15024598   1.951   4.467   4.744 -1.1155 -1.2256 -2.8040
   65MOL   H15124599   1.869   4.456   4.896 -0.2954  2.4342 -0.5948
   65MOL   H15224600   2.179   4.419   4.695 -0.4325  0.7784  0.2266
   65MOL   H15324601   2.302   4.338   4.755  1.8429  1.6727  0.5751
   65MOL   C15424602   2.294   4.530   4.855 -0.1773  0.3665 -0.3330
   65MOL   C15524603   2.421   4.566   4.770  0.2927  0.1368 -0.5361
   65MOL   C15624604   2.412   4.570   4.616 -0.0980 -0.5390 -0.3565
   65MOL   C15724605   2.556   4.557   4.572 -0.3528  1.1548 -0.8702
   65MOL   C15824606   2.618   4.461   4.676 -1.1523 -0.4527  0.7269
   65MOL   C15924607   2.534   4.467   4.801  0.0755  0.4820  0.4995
   65MOL   C16024608   2.207   4.650   4.867 -0.3481 -0.0008  1.0054
   65MOL   H16124609   2.331   4.511   4.955 -0.4716  0.4232 -0.2145
   65MOL   H16224610   2.460   4.663   4.803  1.6157  0.3357 -2.6085
   65MOL   H16324611   2.359   4.490   4.565  0.6202 -0.9799 -0.4151
   65MOL   H16424612   2.372   4.667   4.585 -0.5647 -0.4617  0.4888
   65MOL   H16524613   2.566   4.533   4.466  1.3605  2.5047 -1.0199
   65MOL   H16624614   2.599   4.656   4.579  0.9906  0.7055 -2.4254
   65MOL   H16724615   2.716   4.504   4.699 -0.3694 -1.6407 -0.3484
   65MOL   H16824616   2.640   4.359   4.645 -1.6678  0.1438 -1.6466
   65MOL   H16924617   2.586   4.505   4.889  1.1518 -0.8621  0.4483
   65MOL   H17024618   2.497   4.368   4.829  0.0787  0.7366  1.4075
   65MOL   H17124619   2.102   4.620   4.870 -1.1019  1.7562 -3.2789
   65MOL   H17224620   2.211   4.696   4.768 -0.2042 -2.3469 -0.1002
   65MOL   C17324621   2.237   4.744   4.990  0.8023  0.1948  0.2979
   65MOL   C17424622   2.159   4.690   5.123 -0.8443  0.4922 -0.3376
   65MOL   C17524623   2.004   4.699   5.116  0.0596  0.1011 -0.0730
   65MOL   C17624624   1.967   4.680   5.260 -0.8574  0.0916  0.3214
   65MOL   C17724625   2.071   4.757   5.336  0.1835 -0.2341 -0.2985
   65MOL   C17824626   2.207   4.739   5.257  0.1284  0.0659 -0.1566
   65MOL   C17924627   2.213   4.893   4.953  0.3252  0.1751 -0.3010
   65MOL   H18024628   2.345   4.739   5.004  0.5491 -4.3310  1.4199
   65MOL   H18124629   2.188   4.585   5.125  1.3951  1.0839 -0.4648
   65MOL   H18224630   1.951   4.626   5.054  0.8176 -0.1152 -0.4580
   65MOL   H18324631   1.984   4.799   5.078  2.6531  1.3763  1.8012
   65MOL   H18424632   1.869   4.719   5.284 -0.1960  0.2162  2.9824
   65MOL   H18524633   1.965   4.575   5.291 -0.8484 -1.2733 -3.8746
   65MOL   H18624634   2.072   4.721   5.439 -0.3720  0.5196 -0.0193
   65MOL   H18724635   2.033   4.859   5.329  3.1082  0.9759  0.7580
   65MOL   H18824636   2.258   4.833   5.240 -0.7113  0.3308 -1.2476
   65MOL   H18924637   2.286   4.672   5.290  1.2495  0.0082 -2.8441
   65MOL   H19024638   2.109   4.910   4.925  0.2504  2.9089  1.4794
   65MOL   H19124639   2.217   4.957   5.041  2.7895 -0.8742  0.3976
   65MOL   C19224640   2.305   4.956   4.844 -0.1100  0.0399  0.3831
   65MOL   C19324641   2.454   4.968   4.887  0.1927  0.9189  0.5035
   65MOL   C19424642   2.473   5.086   4.984 -0.5104 -0.1656  0.1941
   65MOL   C19524643   2.589   5.172   4.931 -0.1006  0.4275 -0.1965
   65MOL   C19624644   2.661   5.081   4.833  0.0522  0.5699  0.2524
   65MOL   C19724645   2.545   5.001   4.764 -0.2043 -0.3848 -0.1455
   65MOL   C19824646   2.247   5.085   4.790  0.0156 -0.7903 -0.0572
   65MOL   H19924647   2.299   4.886   4.761 -0.0764  0.7201 -0.1983
   65MOL   H20024648   2.495   4.880   4.938  0.8541  0.6593 -0.4610
   65MOL   H20124649   2.488   5.044   5.083 -1.8051 -0.1254  0.4086
   65MOL   H20224650   2.388   5.153   4.997 -2.5178 -2.6403  0.0946
   65MOL   H20324651   2.553   5.256   4.873 -0.7500 -0.2964 -0.8483
   65MOL   H20424652   2.663   5.204   5.005  0.5866 -0.9311 -0.2796
   65MOL   H20524653   2.725   5.007   4.881  0.2419  2.4305  2.9938
   65MOL   H20624654   2.721   5.135   4.761 -1.2533 -0.0899 -1.3615
   65MOL   H20724655   2.586   4.909   4.723  0.1205 -0.4879  0.4188
   65MOL   H20824656   2.508   5.062   4.681 -1.6551 -3.0737 -1.5279
   65MOL   H20924657   2.179   5.135   4.859 -0.3352  0.5104 -1.2986
   65MOL   H21024658   2.324   5.162   4.784  0.1192 -0.9787 -1.3418
   65MOL   C21124659   2.174   5.073   4.654 -0.4429 -0.1889  0.3243
   65MOL   C21224660   2.059   4.967   4.640  0.1837 -1.1302  0.0954
   65MOL   C21324661   1.928   4.986   4.722  0.0178 -0.5055 -0.0355
   65MOL   C21424662   1.819   4.910   4.651  0.5597  0.3526  0.7852
   65MOL   C21524663   1.872   4.854   4.517  0.5084  0.0612 -0.5734
   65MOL   C21624664   2.003   4.941   4.501  0.0494  0.1775  0.1420
   65MOL   C21724665   2.145   5.216   4.595 -0.5981  0.8000  0.1018
   65MOL   H21824666   2.257   5.044   4.590 -0.5579  2.9942 -1.4103
   65MOL   H21924667   2.112   4.880   4.678 -1.9992 -1.9758  1.2808
   65MOL   H22024668   1.934   4.977   4.830  3.7822 -1.5951 -0.2399
   65MOL   H22124669   1.911   5.093   4.708 -1.8454 -0.5138  1.9771
   65MOL   H22224670   1.788   4.837   4.726 -0.7627  1.6340  1.5093
   65MOL   H22324671   1.733   4.971   4.628  0.1270 -1.0213 -1.4627
   65MOL   H22424672   1.820   4.869   4.423 -0.8788 -1.5992 -0.0911
   65MOL   H22524673   1.904   4.751   4.535 -0.1835 -0.1234 -0.3876
   65MOL   H22624674   2.074   4.900   4.428 -1.2504 -1.4277 -0.2552
   65MOL   H22724675   1.980   5.034   4.450  2.0422  0.8132  0.3577
   65MOL   H22824676   2.077   5.261   4.668 -1.0619 -1.4463  1.1208
   65MOL   H22924677   2.082   5.206   4.506 -1.8600  0.4924  1.0030
   65MOL   C23024678   2.262   5.327   4.565  0.4196 -0.2519  0.9511
   65MOL   C23124679   2.208   5.465   4.536 -0.6161  0.2220 -0.2505
   65MOL   C23224680   2.117   5.469   4.412  0.3853  0.0654 -0.2474
   65MOL   C23324681   1.987   5.537   4.460  0.4533 -0.3901  0.6912
   65MOL   C23424682   1.989   5.521   4.610  0.5072 -1.0796 -0.3988
   65MOL   C23524683   2.128   5.530   4.649  0.8057  0.3132  0.4166
   65MOL   C23624684   2.357   5.283   4.453  0.4313  0.1868  0.0709
   65MOL   H23724685   2.319   5.333   4.657 -0.2560  0.6063  1.3248
   65MOL   H23824686   2.297   5.526   4.521  0.8528 -2.1941 -1.8430
   65MOL   H23924687   2.159   5.528   4.331  0.7643  0.2525  0.0835
   65MOL   H24024688   2.096   5.378   4.357  1.1280  1.6685 -3.2717
   65MOL   H24124689   1.999   5.643   4.438 -0.1550 -1.0038 -3.0034
   65MOL   H24224690   1.896   5.512   4.405  1.5499 -1.3055 -0.7352
   65MOL   H24324691   1.945   5.425   4.637 -0.7721 -0.1260  0.9253
   65MOL   H24424692   1.924   5.594   4.658  1.9493  2.1402 -3.1166
   65MOL   H24524693   2.148   5.481   4.744  0.0987 -0.7018  0.0493
   65MOL   H24624694   2.157   5.634   4.663 -0.5218  0.6098  0.9392
   65MOL   H24724695   2.289   5.249   4.375  0.5496 -0.4525  0.2444
   65MOL   H24824696   2.408   5.190   4.476 -1.6583 -1.0762 -0.3309
   65MOL   C24924697   2.466   5.377   4.393  0.3470 -0.4355  0.0780
   65MOL   C25024698   2.513   5.310   4.259 -0.2075  0.7836 -0.2522
   65MOL   C25124699   2.645   5.353   4.202  0.1074  0.3826  0.8419
   65MOL   C25224700   2.653   5.282   4.072 -0.0210 -0.4665 -0.7598
   65MOL   C25324701   2.510   5.290   4.022  0.8850 -0.8417  0.1099
   65MOL   C25424702   2.424   5.337   4.134  0.5208 -0.0856 -0.7027
   65MOL   C25524703   2.577   5.409   4.494 -0.5651 -0.2161 -0.0646
   65MOL   H25624704   2.410   5.465   4.362 -0.7991 -1.0339  0.4102
   65MOL   H25724705   2.519   5.201   4.270 -0.4553  0.7673 -0.2834
   65MOL   H25824706   2.727   5.330   4.270  0.7833 -0.6966 -0.3130
   65MOL   H25924707   2.645   5.460   4.183 -0.7824  0.4196  1.0622
   65MOL   H26024708   2.696   5.182   4.077  1.1373  0.0913  1.4229
   65MOL   H26124709   2.722   5.326   4.000 -1.9184 -0.3032 -2.5216
   65MOL   H26224710   2.470   5.188   4.012 -1.1384 -0.0506 -0.1803
   65MOL   H26324711   2.500   5.335   3.923  0.6975  2.4657  1.5937
   65MOL   H26424712   2.324   5.296   4.149 -0.8672  2.4974 -2.4836
   65MOL   H26524713   2.410   5.445   4.126  0.0007 -0.2357 -1.8356
   65MOL   H26624714   2.533   5.421   4.593 -0.3326 -0.3029  0.0480
   65MOL   H26724715   2.645   5.325   4.499 -0.8590 -0.3530  1.9390
   65MOL   C26824716   2.660   5.538   4.473  0.2976 -0.0585  0.4254
   65MOL   C26924717   2.794   5.530   4.554 -0.2411  0.7204 -0.2056
   65MOL   C27024718   2.900   5.429   4.494 -0.1909 -0.0983  0.0207
   65MOL   C27124719   2.999   5.410   4.611 -0.6432 -0.5847 -0.5122
   65MOL   C27224720   2.930   5.444   4.740 -0.0646 -0.1061  0.5353
   65MOL   C27324721   2.788   5.487   4.698  0.8054  0.6303  0.2898
   65MOL   C27424722   2.570   5.668   4.493 -0.3210 -0.2302  0.1155
   65MOL   H27524723   2.686   5.537   4.367 -0.6551 -0.9396  0.1939
   65MOL   H27624724   2.834   5.632   4.558 -0.3428  0.6679  2.9713
   65MOL   H27724725   2.854   5.334   4.470  0.1488 -0.1400 -0.4643
   65MOL   H27824726   2.937   5.466   4.399 -1.7126 -1.2535 -1.0337
   65MOL   H27924727   3.030   5.305   4.609  0.2881 -0.3609  1.6927
   65MOL   H28024728   3.088   5.471   4.600 -1.2714  0.2601 -0.9880
   65MOL   H28124729   2.989   5.518   4.794  2.0430 -0.1980 -1.5566
   65MOL   H28224730   2.914   5.359   4.807 -1.2985  0.0127  0.4075
   65MOL   H28324731   2.761   5.565   4.770 -1.8083  0.8647 -0.8822
   65MOL   H28424732   2.720   5.403   4.712 -1.1072  1.8522 -1.2518
   65MOL   H28524733   2.562   5.685   4.600  2.2660 -2.7566  0.7568
   65MOL   H28624734   2.467   5.649   4.463  0.7852 -2.7319 -2.3394
   65MOL   C28724735   2.621   5.806   4.428  0.0654  0.9023  0.0304
   65MOL   C28824736   2.604   5.810   4.270  0.7980  0.7160  0.4211
   65MOL   C28924737   2.464   5.800   4.212 -0.1629 -0.9608 -0.4941
   65MOL   C29024738   2.491   5.870   4.073 -0.6085  0.2917  1.1756
   65MOL   C29124739   2.586   5.987   4.102  0.2531 -0.3359  0.1854
   65MOL   C29224740   2.683   5.930   4.205 -0.4738 -0.1527  0.6977
   65MOL   C29324741   2.564   5.929   4.503 -0.1289 -0.4904 -0.0832
   65MOL   H29424742   2.729   5.807   4.440  0.1300 -0.1644 -0.4609
   65MOL   H29524743   2.650   5.722   4.226 -0.8168  1.1645 -2.2375
   65MOL   H29624744   2.433   5.696   4.210  0.6876 -1.2659  1.1833
   65MOL   H29724745   2.394   5.846   4.282 -0.5528 -2.5338  0.1590
   65MOL   H29824746   2.537   5.799   4.003 -1.0178 -1.7303  2.9008
   65MOL   H29924747   2.394   5.902   4.035 -0.2158  0.8180  0.6042
   65MOL   H30024748   2.540   6.080   4.137  1.6820  1.0369 -1.4760
   65MOL   H30124749   2.641   6.012   4.011 -2.3567 -0.0215 -1.3637
   65MOL   H30224750   2.721   6.011   4.268 -1.8256  0.2425  1.0174
   65MOL   H30324751   2.770   5.897   4.148 -0.9140 -1.3153  0.6837
   65MOL   H30424752   2.456   5.918   4.507 -0.2405  0.8200  1.0649
   65MOL   H30524753   2.571   6.016   4.437  0.0913 -0.3606  0.1085
   65MOL   C30624754   2.603   5.956   4.650  0.0693  0.1799  0.5646
   65MOL   C30724755   2.754   5.962   4.672 -0.5638 -0.0123  0.2527
   65MOL   C30824756   2.826   6.085   4.633  0.2206  0.2836 -0.3707
   65MOL   C30924757   2.961   6.061   4.700 -0.2035  0.2492  0.3701
   65MOL   C31024758   2.946   5.953   4.808  0.0068  0.7903  0.2435
   65MOL   C31124759   2.793   5.919   4.819 -0.1864 -0.3964  0.4744
   65MOL   C31224760   2.515   6.075   4.700 -0.2403 -0.0319  0.4574
   65MOL   H31324761   2.574   5.868   4.706  0.2310  0.6297  1.3707
   65MOL   H31424762   2.805   5.889   4.610 -2.3414 -0.8219 -0.2907
   65MOL   H31524763   2.768   6.167   4.676 -3.1518 -1.7382 -0.9140
   65MOL   H31624764   2.840   6.089   4.525  1.7038 -1.1781 -0.2389
   65MOL   H31724765   3.025   6.026   4.619 -1.9607  0.7182 -1.2572
   65MOL   H31824766   3.003   6.154   4.737  1.7521 -0.2684 -0.4900
   65MOL   H31924767   2.992   5.990   4.899 -1.2454 -0.2457  1.3214
   65MOL   H32024768   3.000   5.863   4.776  1.1017  1.6838 -0.4641
   65MOL   H32124769   2.774   5.812   4.830 -0.3598 -0.2919  1.2277
   65MOL   H32224770   2.743   5.980   4.895  1.9495  0.0690  1.5382
   65MOL   H32324771   2.411   6.052   4.678  0.3291 -1.7040 -0.5896
   65MOL   H32424772   2.546   6.152   4.630  0.3134  0.0575  0.7933
   65MOL   C32524773   2.523   6.127   4.843 -0.3344  0.4282  0.0184
   65MOL   C32624774   2.479   6.018   4.950  0.2983  1.0988 -0.1680
   65MOL   C32724775   2.331   5.995   4.959  0.5479  0.6785 -0.2557
   65MOL   C32824776   2.292   5.974   5.105  0.1147  0.5404  0.0318
   65MOL   C32924777   2.391   6.063   5.176  0.1067 -0.3815  0.2540
   65MOL   C33024778   2.520   6.054   5.095 -0.3614 -0.4024 -0.4656
   65MOL   C33124779   2.445   6.264   4.854 -0.4254  0.5859  0.1052
   65MOL   H33224780   2.627   6.144   4.869  0.1664 -2.2503 -0.1385
   65MOL   H33324781   2.529   5.922   4.936 -1.7215 -0.6515  3.7726
   65MOL   H33424782   2.296   5.925   4.883 -2.4833  3.1035 -1.1842
   65MOL   H33524783   2.284   6.089   4.929  0.1525  0.8331  0.8286
   65MOL   H33624784   2.314   5.875   5.145  2.8602  0.6786 -1.0588
   65MOL   H33724785   2.186   5.995   5.122 -0.1815 -1.8640  1.3400
   65MOL   H33824786   2.397   6.042   5.283 -1.6624 -1.6860  0.1118
   65MOL   H33924787   2.355   6.166   5.174  1.7648  0.2381  1.3500
   65MOL   H34024788   2.577   5.978   5.149 -1.6413 -1.3661 -0.4556
   65MOL   H34124789   2.583   6.142   5.107 -1.8306  0.4198  1.3571
   65MOL   H34224790   2.408   6.284   4.954 -0.2965 -0.0365  0.2816
   65MOL   H34324791   2.352   6.249   4.799 -0.1785 -0.6744  0.0156
   65MOL   C34424792   2.514   6.385   4.802 -0.0291 -0.0618 -0.3178
   65MOL   C34524793   2.619   6.425   4.902 -0.3331 -0.1067 -0.3924
   65MOL   C34624794   2.561   6.487   5.028 -0.0894  0.4459  0.8991
   65MOL   C34724795   2.637   6.617   5.035  0.1738 -0.2563  0.1089
   65MOL   C34824796   2.764   6.603   4.960  0.0935  0.3324  0.1172
   65MOL   C34924797   2.725   6.514   4.837 -0.2526 -0.6658  0.2399
   65MOL   C35024798   2.419   6.502   4.757  0.5668 -0.0959 -0.0475
   65MOL   H35124799   2.568   6.360   4.710  0.9685  0.5946  0.0795
   65MOL   H35224800   2.679   6.340   4.935 -0.4972  0.7567  2.2154
   65MOL   H35324801   2.588   6.416   5.107 -1.8832  1.3461  2.3656
   65MOL   H35424802   2.452   6.497   5.029 -0.0782  0.9752 -1.1926
   65MOL   H35524803   2.587   6.703   4.990  0.0458 -0.6961 -0.5981
   65MOL   H35624804   2.658   6.635   5.141  1.1929  0.0004 -0.1309
   65MOL   H35724805   2.841   6.558   5.022  0.0455  0.5160  0.3084
   65MOL   H35824806   2.816   6.695   4.931  0.7518  0.1784  0.8322
   65MOL   H35924807   2.674   6.570   4.759 -1.1159  1.0285  1.9631
   65MOL   H36024808   2.812   6.460   4.799 -0.8407 -0.6898 -1.0967
   65MOL   H36124809   2.478   6.593   4.748 -0.2413  0.5369  0.8548
   65MOL   H36224810   2.358   6.539   4.839 -1.8896 -2.3634 -0.7665
   65MOL   C36324811   2.328   6.463   4.632 -0.3425 -0.2166 -0.5945
   65MOL   C36424812   2.208   6.559   4.613  0.0067 -0.2288 -0.5582
   65MOL   C36524813   2.239   6.711   4.613  0.6495 -0.5691 -0.7466
   65MOL   C36624814   2.109   6.771   4.658 -0.2392  0.6961 -0.0191
   65MOL   C36724815   2.036   6.670   4.752 -0.5141 -0.9558 -0.3369
   65MOL   C36824816   2.100   6.538   4.716 -0.0641 -0.3068 -0.0194
   65MOL   C36924817   2.418   6.455   4.512  0.5521 -0.7094  0.1934
   65MOL   H37024818   2.283   6.364   4.642 -1.9124  0.6541  1.1124
   65MOL   H37124819   2.172   6.536   4.513 -0.8629 -2.0410  0.1488
   65MOL   H37224820   2.321   6.729   4.684 -0.6964  1.7389  0.3020
   65MOL   H37324821   2.249   6.763   4.518 -1.5684 -0.8607 -1.1716
   65MOL   H37424822   2.124   6.856   4.725  0.5889  0.4698  0.0930
   65MOL   H37524823   2.044   6.798   4.575 -0.8271 -0.9450 -0.1123
   65MOL   H37624824   2.066   6.691   4.855  0.0999  1.3488 -0.9529
   65MOL   H37724825   1.933   6.679   4.719 -0.0561  0.1046 -1.5193
   65MOL   H37824826   2.035   6.456   4.685 -0.5250  0.0707 -0.0620
   65MOL   H37924827   2.148   6.484   4.798  2.1914  1.2162 -0.2914
   65MOL   H38024828   2.496   6.379   4.505 -0.2984 -1.5538 -0.0903
   65MOL   H38124829   2.469   6.550   4.497  1.9596 -1.5691 -0.6118
   65MOL   H38224830   2.354   6.454   4.424 -3.4870  3.0052  2.9039
   66MOL     C124831   5.618   5.319   2.281 -0.1962 -0.4761 -0.3983
   66MOL     C224832   5.577   5.464   2.236  0.6860 -0.3098 -0.0537
   66MOL     C324833   5.698   5.534   2.199  0.4152 -0.3631 -0.0725
   66MOL     C424834   5.667   5.683   2.202 -0.4036  0.7536 -0.1081
   66MOL     C524835   5.553   5.693   2.300 -0.5358 -0.2774  0.6264
   66MOL     C624836   5.518   5.552   2.344  0.4697 -0.7170  0.7104
   66MOL     C724837   5.495   5.226   2.319 -0.3472  0.6630 -0.7886
   66MOL     H824838   5.668   5.273   2.195 -0.8612  1.6892 -1.9746
   66MOL     H924839   5.511   5.467   2.150 -0.2118 -1.5075  0.5873
   66MOL    H1024840   5.780   5.531   2.271  0.4496  1.7572 -0.0009
   66MOL    H1124841   5.743   5.484   2.114 -0.1616 -3.5814  1.4376
   66MOL    H1224842   5.749   5.748   2.230 -0.0483 -0.2952  1.3039
   66MOL    H1324843   5.622   5.716   2.108 -0.6580  0.5830 -0.0489
   66MOL    H1424844   5.582   5.739   2.394  0.8679 -1.6371  0.8784
   66MOL    H1524845   5.462   5.732   2.255  0.4417  1.0112 -0.2750
   66MOL    H1624846   5.411   5.549   2.361  0.4660  0.1466  0.8608
   66MOL    H1724847   5.559   5.526   2.442 -0.2090  0.6336  1.3696
   66MOL    H1824848   5.410   5.282   2.360 -0.9098 -0.5987 -0.2297
   66MOL    H1924849   5.445   5.190   2.229 -1.2840 -0.4747  0.1853
   66MOL    H2024850   5.689   5.318   2.364  0.7173 -1.1638 -1.1724
   66MOL    C2124851   5.524   5.108   2.415 -0.0032  0.0754  0.4363
   66MOL    C2224852   5.653   5.024   2.367 -0.0452 -0.7847 -0.6654
   66MOL    C2324853   5.642   4.978   2.221  0.3410  1.1860  0.0828
   66MOL    C2424854   5.696   4.835   2.212 -0.1212 -0.7649  0.3051
   66MOL    C2524855   5.754   4.803   2.347 -0.5229 -0.6369  0.0134
   66MOL    C2624856   5.686   4.899   2.446 -0.3494 -0.2278  0.9766
   66MOL    C2724857   5.534   5.132   2.559  0.1984  0.0738  0.5418
   66MOL    H2824858   5.441   5.039   2.399  0.1450 -0.4521  1.8061
   66MOL    H2924859   5.738   5.090   2.352 -1.1600  0.6471 -0.8209
   66MOL    H3024860   5.696   5.036   2.147  1.4889 -0.4439 -0.3850
   66MOL    H3124861   5.543   4.985   2.176 -0.4696 -2.8466  1.0453
   66MOL    H3224862   5.611   4.767   2.206 -1.3514  0.8858 -1.2142
   66MOL    H3324863   5.764   4.813   2.130 -3.1837 -1.9315 -2.0293
   66MOL    H3424864   5.861   4.825   2.346 -0.6236 -0.1073 -2.4222
   66MOL    H3524865   5.744   4.704   2.391 -0.1323 -0.7688 -0.1998
   66MOL    H3624866   5.757   4.915   2.528  1.0693 -0.3230 -0.2102
   66MOL    H3724867   5.594   4.853   2.481 -0.0678 -1.0927  0.5719
   66MOL    H3824868   5.548   5.033   2.603  2.1056  0.2899  0.4486
   66MOL    H3924869   5.629   5.180   2.579  1.4453 -2.0966 -0.0567
   66MOL    C4024870   5.433   5.218   2.628 -0.2496  0.0264  0.1481
   66MOL    C4124871   5.288   5.165   2.608  0.2815  0.3212  0.4917
   66MOL    C4224872   5.168   5.247   2.649  0.6843  0.2130 -0.2774
   66MOL    C4324873   5.063   5.146   2.699 -0.8029 -0.0423  0.3106
   66MOL    C4424874   5.117   5.013   2.641  0.1350  0.6634 -0.3303
   66MOL    C4524875   5.268   5.026   2.663 -0.4407  0.4135  0.3950
   66MOL    C4624876   5.474   5.240   2.774  0.5109  0.5131  0.2430
   66MOL    H4724877   5.432   5.316   2.580  0.0648  0.3534  0.7998
   66MOL    H4824878   5.268   5.163   2.501  0.4958 -2.0733  0.4687
   66MOL    H4924879   5.135   5.306   2.564 -1.0884  0.6098  0.6689
   66MOL    H5024880   5.202   5.313   2.729 -0.0740 -0.4363  0.5933
   66MOL    H5124881   4.960   5.176   2.676  0.7415  2.6194 -3.6017
   66MOL    H5224882   5.061   5.136   2.807  0.4287 -0.1057  0.3359
   66MOL    H5324883   5.064   4.932   2.692 -0.5424  0.4772 -1.2922
   66MOL    H5424884   5.084   5.001   2.537 -0.2836 -0.7895 -0.0486
   66MOL    H5524885   5.293   5.014   2.768 -2.4411  1.2386  0.9793
   66MOL    H5624886   5.314   4.947   2.603  0.7614  1.6132 -0.2801
   66MOL    H5724887   5.389   5.248   2.841  1.3407  0.2960  1.3497
   66MOL    H5824888   5.497   5.142   2.815 -2.1456 -0.4644 -0.4855
   66MOL    C5924889   5.585   5.344   2.799  0.2150 -1.2150  0.3095
   66MOL    C6024890   5.533   5.477   2.869 -0.6007 -0.2799  0.6290
   66MOL    C6124891   5.467   5.464   3.009  0.3276  0.1717 -0.2049
   66MOL    C6224892   5.409   5.607   3.032  0.4722  0.5239  0.2598
   66MOL    C6324893   5.361   5.644   2.892  0.0968  0.1389  0.8175
   66MOL    C6424894   5.429   5.560   2.797 -0.0882 -0.7436 -0.3431
   66MOL    C6524895   5.706   5.283   2.875 -0.4661 -0.5915 -0.8353
   66MOL    H6624896   5.621   5.363   2.697 -2.9354  0.0883 -0.6323
   66MOL    H6724897   5.618   5.544   2.880 -0.0033 -1.2759  2.2962
   66MOL    H6824898   5.531   5.436   3.092 -0.7472 -2.0137 -0.0793
   66MOL    H6924899   5.392   5.385   3.009  2.6141 -2.0937 -1.2928
   66MOL    H7024900   5.486   5.681   3.051  0.0406  1.2410 -0.7073
   66MOL    H7124901   5.335   5.611   3.112 -0.2122 -0.1029 -0.3217
   66MOL    H7224902   5.386   5.749   2.876  4.1548 -0.6059  1.5561
   66MOL    H7324903   5.254   5.642   2.872  0.5046 -0.7576 -1.4113
   66MOL    H7424904   5.364   5.507   2.727 -1.6708  1.0324 -0.2621
   66MOL    H7524905   5.479   5.629   2.730 -0.3458  0.1986  0.4270
   66MOL    H7624906   5.725   5.180   2.848  2.1812 -0.4412  0.3392
   66MOL    H7724907   5.680   5.276   2.981  2.0529 -0.4453 -0.1900
   66MOL    C7824908   5.839   5.367   2.861 -0.3030  0.2371 -0.1710
   66MOL    C7924909   5.917   5.379   2.999 -0.8461 -0.4102  0.1540
   66MOL    C8024910   5.935   5.237   3.062 -0.5970  0.5296  0.5628
   66MOL    C8124911   5.931   5.264   3.208 -0.6308  0.1631 -0.8605
   66MOL    C8224912   5.817   5.373   3.217  0.1622 -1.0834  0.1698
   66MOL    C8324913   5.855   5.466   3.106 -0.0264  0.6262  0.4567
   66MOL    C8424914   5.924   5.308   2.748  0.3235  0.6898  0.3135
   66MOL    H8524915   5.819   5.470   2.831  1.0306  0.6054  0.1931
   66MOL    H8624916   6.015   5.420   2.978 -0.8502  0.6299  2.1235
   66MOL    H8724917   6.030   5.192   3.034  0.1262  1.1205  2.0190
   66MOL    H8824918   5.855   5.168   3.036 -1.6035  1.9019 -0.0703
   66MOL    H8924919   6.024   5.311   3.241  0.1540 -0.4976 -2.1143
   66MOL    H9024920   5.917   5.179   3.275  0.9385 -0.1550 -0.9269
   66MOL    H9124921   5.719   5.328   3.201  1.1699 -3.7187  1.1294
   66MOL    H9224922   5.830   5.420   3.314  0.2129 -0.1325 -0.2907
   66MOL    H9324923   5.771   5.525   3.069 -1.2098 -0.6220  1.1170
   66MOL    H9424924   5.933   5.532   3.143  0.5998 -0.7063  1.5419
   66MOL    H9524925   5.851   5.291   2.669 -1.9580  0.0168  2.5210
   66MOL    H9624926   5.949   5.205   2.772 -2.5797 -0.3408 -0.8699
   66MOL    C9724927   6.047   5.391   2.696  0.2713  0.1344  0.4832
   66MOL    C9824928   6.009   5.537   2.655  0.1662 -0.4722  0.0784
   66MOL    C9924929   6.123   5.641   2.645  0.4012  0.6563 -0.4514
   66MOL   C10024930   6.100   5.713   2.511 -0.2726  0.7361 -0.3521
   66MOL   C10124931   5.959   5.683   2.466  0.8589 -0.2056 -0.6861
   66MOL   C10224932   5.927   5.542   2.527  0.2573  0.3045 -0.2459
   66MOL   C10324933   6.112   5.320   2.578 -0.3450  0.4639 -0.2623
   66MOL   H10424934   6.115   5.406   2.780 -1.2928  2.7130  1.3516
   66MOL   H10524935   5.935   5.584   2.719  1.0183  0.0963  0.6467
   66MOL   H10624936   6.107   5.703   2.733  1.3566 -0.8469  0.8156
   66MOL   H10724937   6.224   5.602   2.660  0.9056  1.6808 -1.0934
   66MOL   H10824938   6.171   5.672   2.439  0.4159 -1.0567  1.2758
   66MOL   H10924939   6.124   5.819   2.521 -1.3467  0.8936  0.6772
   66MOL   H11024940   5.947   5.691   2.358 -2.5045  0.9764 -0.2875
   66MOL   H11124941   5.885   5.753   2.507  2.0800  1.2571 -0.9474
   66MOL   H11224942   5.822   5.513   2.525 -0.0073  1.3041 -1.4615
   66MOL   H11324943   5.958   5.468   2.452  0.9643  0.8300 -0.4768
   66MOL   H11424944   6.031   5.282   2.517 -0.3733 -3.3870  2.0464
   66MOL   H11524945   6.163   5.385   2.507 -1.8630  2.5816  0.5187
   66MOL   C11624946   6.198   5.202   2.625  0.4565  0.4266  0.3696
   66MOL   C11724947   6.126   5.063   2.610 -0.0534  0.3289  0.2019
   66MOL   C11824948   6.103   5.028   2.461  0.0438 -0.0262 -0.6729
   66MOL   C11924949   6.147   4.883   2.444  0.8381 -1.1656 -0.4431
   66MOL   C12024950   6.236   4.849   2.571  0.5036 -0.4492  0.1236
   66MOL   C12124951   6.192   4.941   2.679  0.2690 -0.3098 -0.1308
   66MOL   C12224952   6.335   5.201   2.556 -0.5493 -0.7854 -0.4692
   66MOL   H12324953   6.221   5.206   2.732 -0.9811 -1.3810  0.7894
   66MOL   H12424954   6.026   5.078   2.650 -0.0674  2.3492 -0.5170
   66MOL   H12524955   6.001   5.042   2.426 -0.8872 -0.6051  1.7451
   66MOL   H12624956   6.157   5.096   2.394 -2.4366  0.9794 -1.7168
   66MOL   H12724957   6.204   4.867   2.353  1.3020 -0.5764 -0.2631
   66MOL   H12824958   6.055   4.825   2.432 -0.7573  1.5796 -2.2158
   66MOL   H12924959   6.341   4.875   2.559  1.0427 -2.1585  1.0650
   66MOL   H13024960   6.233   4.741   2.587  1.9950 -0.3488  1.2694
   66MOL   H13124961   6.113   4.891   2.735 -0.8658 -0.0091 -1.4099
   66MOL   H13224962   6.277   4.957   2.744 -0.9002 -0.1396  1.3730
   66MOL   H13324963   6.326   5.199   2.448  0.4611 -0.7634 -0.5610
   66MOL   H13424964   6.390   5.108   2.576 -0.3026 -0.8331 -1.3668
   66MOL   C13524965   6.432   5.314   2.603 -0.0918 -0.3763 -0.0120
   66MOL   C13624966   6.512   5.369   2.481 -0.3126  0.1608  0.2739
   66MOL   C13724967   6.437   5.471   2.393  0.2731 -0.1311 -0.0608
   66MOL   C13824968   6.531   5.493   2.278 -0.4198 -0.1581 -1.1848
   66MOL   C13924969   6.620   5.364   2.261 -0.1073 -0.2273 -0.1022
   66MOL   C14024970   6.580   5.275   2.380  0.2936  0.2194 -0.3031
   66MOL   C14124971   6.511   5.271   2.727 -0.0011 -0.5722 -0.1939
   66MOL   H14224972   6.367   5.394   2.635 -1.0552 -1.3615  0.5147
   66MOL   H14324973   6.600   5.419   2.522  0.2471 -0.5786 -0.0283
   66MOL   H14424974   6.344   5.429   2.354  0.0574 -0.5460  0.8881
   66MOL   H14524975   6.408   5.563   2.442 -2.1047 -0.6528 -0.4467
   66MOL   H14624976   6.605   5.567   2.309 -1.5127  0.3065  0.4092
   66MOL   H14724977   6.495   5.520   2.179 -0.1903 -0.2316 -1.2876
   66MOL   H14824978   6.726   5.386   2.267 -0.1514 -0.3153  1.1355
   66MOL   H14924979   6.606   5.311   2.167  1.4211  1.3480 -1.2477
   66MOL   H15024980   6.511   5.205   2.334  1.2133  0.0640 -1.4526
   66MOL   H15124981   6.657   5.215   2.430  1.4743  2.2872  0.4253
   66MOL   H15224982   6.596   5.214   2.690 -1.0087 -0.8242 -2.1834
   66MOL   H15324983   6.445   5.202   2.781 -0.0873  0.4257  1.0037
   66MOL   C15424984   6.543   5.384   2.829  0.3359 -0.0709 -0.2693
   66MOL   C15524985   6.419   5.434   2.906 -0.0476  0.0157  0.1969
   66MOL   C15624986   6.424   5.573   2.965  0.0179  0.0561  0.3132
   66MOL   C15724987   6.305   5.578   3.062  0.3535  0.7047  0.5026
   66MOL   C15824988   6.307   5.444   3.125  0.1505  1.1237 -0.6279
   66MOL   C15924989   6.351   5.346   3.011 -0.4418  0.6116 -0.1245
   66MOL   C16024990   6.645   5.329   2.937 -0.1954 -0.2287 -0.0599
   66MOL   H16124991   6.570   5.473   2.771 -2.3546 -0.0213 -1.5238
   66MOL   H16224992   6.338   5.440   2.834 -1.1538 -1.0475  1.3348
   66MOL   H16324993   6.514   5.595   3.022  0.4057 -0.8746  0.0647
   66MOL   H16424994   6.413   5.663   2.905  1.0606  0.7996  1.2287
   66MOL   H16524995   6.324   5.654   3.138 -0.1214  1.1213  0.2081
   66MOL   H16624996   6.209   5.584   3.010  0.2331 -1.4089  0.4156
   66MOL   H16724997   6.214   5.415   3.173  1.0626  1.4718  1.3930
   66MOL   H16824998   6.383   5.442   3.203 -1.2068  0.5577  0.7083
   66MOL   H16924999   6.269   5.295   2.961 -0.9291 -1.1516  2.3985
   66MOL   H17025000   6.402   5.257   3.048  0.1451  1.7452  1.8403
   66MOL   H17125001   6.605   5.239   2.983  2.1510 -1.1786  0.1901
   66MOL   H17225002   6.664   5.397   3.019  4.1972 -0.2047 -0.9907
   66MOL   C17325003   6.783   5.315   2.879  0.2482  0.0300 -0.0564
   66MOL   C17425004   6.849   5.185   2.912  1.3806  0.3283 -0.5221
   66MOL   C17525005   6.887   5.166   3.060  0.2579 -0.1609  0.1105
   66MOL   C17625006   7.039   5.158   3.068  0.1545  0.1322  0.4709
   66MOL   C17725007   7.067   5.099   2.931 -0.0728  0.1288  0.3658
   66MOL   C17825008   6.973   5.148   2.828  0.2862  0.3876 -0.6198
   66MOL   C17925009   6.865   5.436   2.930 -0.0650  0.4830 -0.3818
   66MOL   H18025010   6.783   5.315   2.770  1.1517 -0.2175 -0.0535
   66MOL   H18125011   6.774   5.112   2.881  1.8326  0.0047 -0.8607
   66MOL   H18225012   6.851   5.074   3.106  0.0020  0.0768  0.3899
   66MOL   H18325013   6.843   5.239   3.129  2.0001 -0.9259  2.0979
   66MOL   H18425014   7.092   5.253   3.072  1.4866 -0.5736  0.0444
   66MOL   H18525015   7.075   5.093   3.148  0.3633  2.1047  2.0073
   66MOL   H18625016   7.064   4.990   2.929 -1.6711  0.1756 -0.0617
   66MOL   H18725017   7.170   5.124   2.906  0.3503 -0.3507  1.5771
   66MOL   H18825018   7.006   5.235   2.771 -1.2612  1.6572  0.3685
   66MOL   H18925019   6.956   5.065   2.759  2.2272  0.7741 -1.6079
   66MOL   H19025020   6.862   5.437   3.039 -0.0087  0.2994 -0.3788
   66MOL   H19125021   6.969   5.413   2.907 -0.4161 -2.8573  1.0502
   66MOL   C19225022   6.841   5.576   2.872  0.0105 -0.0274  0.0994
   66MOL   C19325023   6.833   5.569   2.715  0.0923  0.1033 -0.5061
   66MOL   C19425024   6.948   5.490   2.650 -0.6976 -0.7687 -0.3932
   66MOL   C19525025   6.978   5.561   2.513  0.5208 -0.5858  0.8273
   66MOL   C19625026   6.864   5.666   2.502 -0.3517  0.6259 -0.4649
   66MOL   C19725027   6.823   5.705   2.642 -0.3710 -0.1137  0.1937
   66MOL   C19825028   6.936   5.677   2.936 -0.1369 -0.0117 -0.2092
   66MOL   H19925029   6.739   5.602   2.901 -0.5434 -0.6972 -1.1878
   66MOL   H20025030   6.751   5.509   2.675 -0.1501  0.0476  0.0698
   66MOL   H20125031   6.926   5.385   2.633  0.9992 -1.4670  1.5230
   66MOL   H20225032   7.039   5.501   2.710 -0.4587  2.8659 -1.2829
   66MOL   H20325033   7.073   5.616   2.516  0.2427  0.0467 -1.1907
   66MOL   H20425034   6.973   5.485   2.436 -0.0581  2.0788 -1.8884
   66MOL   H20525035   6.779   5.617   2.455  1.1902 -0.5568 -2.0770
   66MOL   H20625036   6.896   5.750   2.441  1.6327 -0.3427 -0.8034
   66MOL   H20725037   6.723   5.749   2.640 -0.6438 -0.7732 -1.1350
   66MOL   H20825038   6.884   5.787   2.680  1.7852  0.7081 -4.6597
   66MOL   H20925039   7.036   5.647   2.903  0.1079  0.5073  0.0525
   66MOL   H21025040   6.908   5.773   2.892 -1.7680  0.3207  1.4796
   66MOL   C21125041   6.937   5.707   3.090  0.0058 -0.2510  0.5089
   66MOL   C21225042   7.074   5.762   3.141 -0.1103 -0.7260  0.4568
   66MOL   C21325043   7.199   5.676   3.112  0.0250  0.2448 -0.4088
   66MOL   C21425044   7.284   5.750   3.018  0.5379 -0.3236  0.1748
   66MOL   C21525045   7.258   5.903   3.040  0.1456  0.0398  0.8785
   66MOL   C21625046   7.111   5.908   3.090  0.5218  0.4881 -0.3498
   66MOL   C21725047   6.826   5.793   3.130  0.7683 -0.2939 -0.0701
   66MOL   H21825048   6.911   5.614   3.140  0.5556 -0.8382 -0.3027
   66MOL   H21925049   7.075   5.765   3.250  1.7838  1.0485  0.4303
   66MOL   H22025050   7.255   5.649   3.201  1.0161  2.1689 -0.4187
   66MOL   H22125051   7.168   5.579   3.073  0.1395 -1.1339  2.7877
   66MOL   H22225052   7.387   5.726   3.043  0.4679  1.9695  2.9889
   66MOL   H22325053   7.264   5.716   2.917 -1.3275 -2.3451  1.1794
   66MOL   H22425054   7.273   5.967   2.953 -0.6178 -1.7028 -0.5606
   66MOL   H22525055   7.319   5.927   3.127 -0.8660 -1.2324  1.9627
   66MOL   H22625056   7.102   5.988   3.164  1.8953  0.3511 -0.0241
   66MOL   H22725057   7.046   5.934   3.007  0.3431  0.8910 -0.0820
   66MOL   H22825058   6.736   5.737   3.105  1.4513 -2.2782  1.7121
   66MOL   H22925059   6.834   5.882   3.068  0.3814 -0.2792 -0.1022
   66MOL   C23025060   6.804   5.814   3.283  0.0573 -0.0468  0.1329
   66MOL   C23125061   6.759   5.684   3.361 -0.3648 -1.0380 -0.3804
   66MOL   C23225062   6.760   5.704   3.518  0.0583 -0.6147  0.1984
   66MOL   C23325063   6.637   5.637   3.574 -0.8903 -0.6144  0.4743
   66MOL   C23425064   6.533   5.660   3.469  0.5767  0.1615  0.7667
   66MOL   C23525065   6.611   5.649   3.337  0.4459 -0.2978 -0.7154
   66MOL   C23625066   6.702   5.938   3.315 -0.7820  0.0089  0.0170
   66MOL   H23725067   6.899   5.840   3.331 -0.0961  0.5028  0.1322
   66MOL   H23825068   6.824   5.600   3.336 -0.1371 -0.3785 -2.0606
   66MOL   H23925069   6.856   5.679   3.564  1.0780 -1.6841 -2.4156
   66MOL   H24025070   6.741   5.808   3.545  1.1941 -0.3023 -0.1747
   66MOL   H24125071   6.650   5.529   3.570  0.8337 -0.3998 -0.7603
   66MOL   H24225072   6.617   5.666   3.677 -2.4237 -1.7212  0.4992
   66MOL   H24325073   6.492   5.755   3.504 -1.7151  0.1250 -1.6387
   66MOL   H24425074   6.453   5.586   3.474 -0.7018  1.4158 -0.7943
   66MOL   H24525075   6.560   5.695   3.252  1.6325  2.4443 -0.0111
   66MOL   H24625076   6.599   5.544   3.311 -0.4526 -0.7086  1.2597
   66MOL   H24725077   6.621   5.908   3.381  1.2003 -0.1907  2.4087
   66MOL   H24825078   6.658   5.971   3.221  0.4239  0.5835 -0.3625
   66MOL   C24925079   6.770   6.056   3.392 -0.4257 -0.5826  0.8244
   66MOL   C25025080   6.674   6.140   3.485  0.2483 -0.1543  0.0678
   66MOL   C25125081   6.746   6.235   3.586 -0.6988  0.9258 -0.1454
   66MOL   C25225082   6.659   6.268   3.709  0.8434 -0.7279 -0.3324
   66MOL   C25325083   6.535   6.181   3.684  0.0652  0.1587  0.1175
   66MOL   C25425084   6.583   6.070   3.591 -0.4203  0.2789  0.6956
   66MOL   C25525085   6.866   6.134   3.306  0.3650 -0.1535 -0.3942
   66MOL   H25625086   6.829   5.998   3.464 -1.1461  0.7238  2.4916
   66MOL   H25725087   6.607   6.205   3.428 -0.8249 -2.1324 -0.9604
   66MOL   H25825088   6.796   6.320   3.540  0.4282  1.5962  2.2229
   66MOL   H25925089   6.836   6.185   3.624 -2.2570 -1.2336  0.8140
   66MOL   H26025090   6.624   6.371   3.711 -2.4817 -1.8039  2.0009
   66MOL   H26125091   6.707   6.249   3.805 -0.5611 -0.3531  0.4658
   66MOL   H26225092   6.466   6.237   3.620 -0.3498  0.0285  0.4571
   66MOL   H26325093   6.476   6.163   3.773  0.5880 -1.6011  0.1322
   66MOL   H26425094   6.499   6.016   3.546  1.9646 -2.9826  0.0190
   66MOL   H26525095   6.654   6.002   3.638  1.3735  1.9344  0.4543
   66MOL   H26625096   6.954   6.149   3.368 -1.1487  0.4518  1.6547
   66MOL   H26725097   6.900   6.060   3.234  0.7620  1.2904 -1.7096
   66MOL   C26825098   6.828   6.272   3.241  0.0172  0.0543 -0.5693
   66MOL   C26925099   6.711   6.253   3.142 -0.2044 -0.2285  0.1234
   66MOL   C27025100   6.733   6.172   3.020 -0.0570  0.1293 -0.0908
   66MOL   C27125101   6.630   6.207   2.914  0.2689  0.3414  0.0884
   66MOL   C27225102   6.593   6.354   2.947  0.3640 -0.0487  0.1443
   66MOL   C27325103   6.649   6.384   3.090 -0.1167 -0.8689 -0.2536
   66MOL   C27425104   6.955   6.331   3.171  0.2705 -0.2371 -0.5939
   66MOL   H27525105   6.800   6.335   3.325  0.1288 -0.1560 -0.3737
   66MOL   H27625106   6.624   6.208   3.189 -1.3177  0.4536 -1.2408
   66MOL   H27725107   6.831   6.204   2.984  0.5981  0.0227  1.5594
   66MOL   H27825108   6.742   6.065   3.037  0.8287 -0.0733 -1.6528
   66MOL   H27925109   6.676   6.207   2.815  0.0406 -2.3249 -0.0400
   66MOL   H28025110   6.543   6.141   2.910  1.3962 -1.1734  0.2020
   66MOL   H28125111   6.492   6.391   2.931 -0.1155 -1.3820  0.0552
   66MOL   H28225112   6.641   6.418   2.873 -1.3310 -0.1434 -1.0364
   66MOL   H28325113   6.571   6.415   3.159  0.1865  1.1013 -0.7674
   66MOL   H28425114   6.723   6.464   3.087 -1.1254  0.1185  0.6970
   66MOL   H28525115   6.917   6.391   3.088 -1.4003 -0.4262  0.0218
   66MOL   H28625116   7.017   6.259   3.116  1.0950  0.3129 -0.3970
   66MOL   C28725117   7.043   6.411   3.262 -0.0708  0.1834 -0.4225
   66MOL   C28825118   7.184   6.435   3.203  0.3341 -0.0989  0.2801
   66MOL   C28925119   7.274   6.311   3.186  0.1581 -0.5302 -0.0539
   66MOL   C29025120   7.309   6.298   3.037  0.1737 -0.7249  0.1998
   66MOL   C29125121   7.298   6.438   2.984 -0.2921  0.5518  0.7154
   66MOL   C29225122   7.186   6.499   3.062  0.6392  0.3264  0.0525
   66MOL   C29325123   6.985   6.554   3.290  0.1133  0.0622 -0.0280
   66MOL   H29425124   7.058   6.351   3.351 -1.9690  1.0892  0.5428
   66MOL   H29525125   7.236   6.504   3.270  1.1815  0.1687 -0.6375
   66MOL   H29625126   7.371   6.324   3.233  0.0332 -1.4545  0.4674
   66MOL   H29725127   7.240   6.223   3.239 -3.7255  0.4600 -0.6744
   66MOL   H29825128   7.409   6.256   3.030  0.3246 -0.2212 -0.6817
   66MOL   H29925129   7.241   6.230   2.985  0.3516 -0.0297 -0.9344
   66MOL   H30025130   7.270   6.419   2.880 -0.5272  0.5544  0.7774
   66MOL   H30125131   7.382   6.506   2.992 -1.0177  1.5883 -0.3015
   66MOL   H30225132   7.091   6.494   3.008  0.2551 -0.2777  0.7872
   66MOL   H30325133   7.193   6.607   3.075 -0.5658 -0.0376  4.1707
   66MOL   H30425134   6.879   6.539   3.312  0.3114  0.5707  1.3475
   66MOL   H30525135   6.997   6.607   3.196 -1.5300  2.7154  1.1836
   66MOL   C30625136   7.047   6.635   3.413 -0.2842  0.3590 -0.1904
   66MOL   C30725137   6.975   6.773   3.420  0.7965  0.8650  0.2558
   66MOL   C30825138   7.047   6.872   3.508  0.5785  0.8302  0.7351
   66MOL   C30925139   6.978   7.003   3.480 -0.0995 -1.0829  0.2075
   66MOL   C31025140   6.970   6.996   3.324  0.3674 -0.0546 -0.2236
   66MOL   C31125141   6.967   6.846   3.285 -0.0405  0.1581 -0.2778
   66MOL   C31225142   7.035   6.552   3.549 -0.0531  0.7114 -0.2538
   66MOL   H31325143   7.148   6.655   3.377 -1.1702  1.3740 -2.1994
   66MOL   H31425144   6.877   6.751   3.462  0.7408 -3.5546 -1.9671
   66MOL   H31525145   7.153   6.863   3.486  0.6808 -1.1963  1.9572
   66MOL   H31625146   7.048   6.847   3.615  1.3672 -0.9633  0.3205
   66MOL   H31725147   6.875   7.001   3.517 -0.1626  1.1318  0.1969
   66MOL   H31825148   7.034   7.091   3.511  1.0805 -1.1718 -1.6065
   66MOL   H31925149   7.064   7.032   3.280  0.6163  0.1053  0.4321
   66MOL   H32025150   6.906   7.067   3.272  0.0086 -0.5629 -0.4792
   66MOL   H32125151   6.873   6.815   3.238 -0.4895 -0.5424  1.0631
   66MOL   H32225152   7.049   6.825   3.216 -0.4591  3.1585 -1.7677
   66MOL   H32325153   7.024   6.445   3.531  1.4035  0.4232  0.5628
   66MOL   H32425154   6.938   6.576   3.594 -0.9439  1.7771 -2.6337
   66MOL   C32525155   7.151   6.578   3.652  0.1966  0.2974  0.2724
   66MOL   C32625156   7.275   6.488   3.622 -1.3186  0.1547  0.3634
   66MOL   C32725157   7.262   6.338   3.607  0.5380  0.3841  0.7002
   66MOL   C32825158   7.405   6.286   3.586  0.0089 -0.6088  0.3796
   66MOL   C32925159   7.492   6.398   3.650  0.3292 -0.1056  0.1324
   66MOL   C33025160   7.402   6.506   3.702  0.7431 -0.4296 -0.1912
   66MOL   C33125161   7.091   6.561   3.800 -0.0338  0.7954 -0.3663
   66MOL   H33225162   7.194   6.678   3.650  0.5455  0.1518  0.5127
   66MOL   H33325163   7.315   6.525   3.527  0.7886 -1.8476  0.4336
   66MOL   H33425164   7.187   6.311   3.533 -0.1839 -0.5898  1.7521
   66MOL   H33525165   7.224   6.307   3.705 -1.7262 -0.7846 -0.5070
   66MOL   H33625166   7.422   6.285   3.478  1.1905 -0.9824  0.5607
   66MOL   H33725167   7.422   6.187   3.629  0.9633 -1.0662 -0.9982
   66MOL   H33825168   7.554   6.429   3.566 -0.1291 -1.1349 -0.5894
   66MOL   H33925169   7.556   6.370   3.733 -0.6601 -0.2943  0.8443
   66MOL   H34025170   7.445   6.605   3.686  1.2871 -0.9610 -2.2953
   66MOL   H34125171   7.381   6.497   3.808  0.2866 -0.0636 -0.2551
   66MOL   H34225172   7.168   6.535   3.873 -0.2223  2.2579  0.3794
   66MOL   H34325173   7.017   6.482   3.798 -0.0747  0.7757  1.5041
   66MOL   C34425174   7.028   6.678   3.868  0.2994 -0.0676  0.5132
   66MOL   C34525175   7.111   6.734   3.987  0.0107  0.3001  0.6804
   66MOL   C34625176   7.258   6.768   3.954  0.2053  0.0428  0.4268
   66MOL   C34725177   7.341   6.733   4.077  0.8157 -0.7580  0.2841
   66MOL   C34825178   7.246   6.698   4.190  0.1276 -0.0524  0.2558
   66MOL   C34925179   7.121   6.652   4.120  0.0400  0.2314  0.1060
   66MOL   C35025180   6.876   6.658   3.898  0.3652 -0.2948  0.1140
   66MOL   H35125181   7.033   6.766   3.803 -2.3753  0.4694  0.9660
   66MOL   H35225182   7.069   6.832   4.012 -2.9710 -0.4010 -1.3793
   66MOL   H35325183   7.267   6.870   3.918  2.2777  0.2029  1.2983
   66MOL   H35425184   7.297   6.716   3.866 -1.6207  0.7474 -0.8272
   66MOL   H35525185   7.400   6.642   4.067  3.4850  0.8612  0.6409
   66MOL   H35625186   7.410   6.812   4.107  0.3429 -0.1005 -0.3401
   66MOL   H35725187   7.220   6.790   4.242 -0.3979 -0.5099  0.7927
   66MOL   H35825188   7.280   6.619   4.257 -0.2255 -0.1141  0.3586
   66MOL   H35925189   7.128   6.546   4.096 -0.0299  0.0383  0.9268
   66MOL   H36025190   7.037   6.665   4.188 -1.2164  0.6607 -1.4978
   66MOL   H36125191   6.874   6.590   3.983  1.9040  1.5721  1.7027
   66MOL   H36225192   6.829   6.611   3.812 -1.5204  0.4818  0.7004
   66MOL   C36325193   6.785   6.777   3.921  0.5544  0.4471  0.9060
   66MOL   C36425194   6.750   6.854   3.793 -0.4878 -0.7917 -0.3319
   66MOL   C36525195   6.682   6.987   3.815 -0.4797 -0.3546 -0.0712
   66MOL   C36625196   6.613   7.014   3.676  0.4261  0.2419 -0.5656
   66MOL   C36725197   6.605   6.880   3.603  0.3810  0.2279  0.1126
   66MOL   C36825198   6.656   6.776   3.701 -0.7208 -1.1669  0.0894
   66MOL   C36925199   6.667   6.738   4.010 -0.3591  0.1302  0.1162
   66MOL   H37025200   6.849   6.849   3.973  2.4437  2.1323 -3.5243
   66MOL   H37125201   6.838   6.875   3.732 -1.3151 -1.5208 -1.8047
   66MOL   H37225202   6.611   6.991   3.898  0.4401  1.4106  0.6411
   66MOL   H37325203   6.763   7.054   3.843  1.0165 -1.2864 -2.0212
   66MOL   H37425204   6.518   7.065   3.688 -0.6387 -1.7654 -0.1793
   66MOL   H37525205   6.672   7.087   3.621  0.1286  0.5005 -0.5382
   66MOL   H37625206   6.503   6.849   3.585  0.2231 -0.8123  2.6077
   66MOL   H37725207   6.659   6.886   3.508  0.7753 -3.7661 -0.0093
   66MOL   H37825208   6.694   6.697   3.636 -0.1372 -0.7526 -0.0764
   66MOL   H37925209   6.568   6.730   3.747 -0.4085 -1.2682  0.5901
   66MOL   H38025210   6.590   6.815   4.019 -0.4061 -0.1701  2.4739
   66MOL   H38125211   6.696   6.712   4.112  2.1492 -1.3301 -0.9221
   66MOL   H38225212   6.614   6.651   3.971  0.7028 -0.4202 -0.1371
   67MOL     C125213   2.616   2.738   3.700  0.6980 -0.1097  0.0414
   67MOL     C225214   2.730   2.668   3.629  0.5395  0.5043 -0.1855
   67MOL     C325215   2.725   2.691   3.477  0.2657  0.7103 -0.4435
   67MOL     C425216   2.743   2.549   3.416 -0.6005 -0.3232 -0.0732
   67MOL     C525217   2.815   2.468   3.518 -0.0251 -0.4204 -0.5581
   67MOL     C625218   2.753   2.519   3.651 -0.2286  0.1002  0.2311
   67MOL     C725219   2.600   2.691   3.846 -0.2093 -0.1160 -0.5346
   67MOL     H825220   2.663   2.836   3.699 -2.2528  1.3429  0.3758
   67MOL     H925221   2.822   2.719   3.656  0.2886  0.1045  1.4834
   67MOL    H1025222   2.640   2.749   3.442 -0.1872  0.1516 -0.2684
   67MOL    H1125223   2.814   2.744   3.440  0.7345 -1.3972 -2.4531
   67MOL    H1225224   2.641   2.516   3.395 -0.7828  0.6253 -0.7228
   67MOL    H1325225   2.807   2.546   3.328 -0.7371  0.4717 -0.1995
   67MOL    H1425226   2.804   2.360   3.514 -0.7479 -0.4055  0.7024
   67MOL    H1525227   2.921   2.491   3.507  0.1795 -1.4666 -0.8098
   67MOL    H1625228   2.822   2.489   3.729  0.8783  0.1789 -0.6981
   67MOL    H1725229   2.659   2.464   3.665 -1.8130  2.4917 -0.6480
   67MOL    H1825230   2.582   2.584   3.843 -0.3781 -0.0853 -0.6234
   67MOL    H1925231   2.695   2.690   3.900 -0.3870 -0.7072 -0.2316
   67MOL    H2025232   2.520   2.739   3.649  0.3670  2.5150  0.6492
   67MOL    C2125233   2.483   2.758   3.911  0.2931  0.4854  0.2102
   67MOL    C2225234   2.433   2.660   4.028 -0.0181  0.4918 -0.2689
   67MOL    C2325235   2.352   2.546   3.967 -0.4828 -0.2357  0.5277
   67MOL    C2425236   2.212   2.535   4.030 -0.4793  0.1979  0.3035
   67MOL    C2525237   2.177   2.674   4.072 -0.1143 -0.3720 -0.3094
   67MOL    C2625238   2.321   2.720   4.121 -0.2596  0.8624 -0.7062
   67MOL    C2725239   2.535   2.901   3.965  0.7146  0.2225 -0.1567
   67MOL    H2825240   2.398   2.766   3.842 -1.4229  0.8008  2.3164
   67MOL    H2925241   2.516   2.625   4.088  0.7995 -1.1112 -2.3039
   67MOL    H3025242   2.404   2.452   3.985  0.4836 -0.1408 -1.5772
   67MOL    H3125243   2.345   2.565   3.859  1.2907 -0.3038  0.3815
   67MOL    H3225244   2.138   2.478   3.973  1.7301 -2.6401  0.1696
   67MOL    H3325245   2.238   2.470   4.113 -1.6716 -0.2124  0.3676
   67MOL    H3425246   2.096   2.673   4.144  0.7401 -1.1762  0.6774
   67MOL    H3525247   2.144   2.740   3.993  1.4205  0.6888 -0.0851
   67MOL    H3625248   2.342   2.692   4.224 -0.1191 -0.0673 -0.9864
   67MOL    H3725249   2.328   2.829   4.132  1.9958  0.6955 -0.1526
   67MOL    H3825250   2.574   2.885   4.066  1.4661  1.6359 -0.2179
   67MOL    H3925251   2.627   2.941   3.923  2.5341  1.4210  4.6560
   67MOL    C4025252   2.421   3.011   3.959 -0.6748  0.0414 -0.6226
   67MOL    C4125253   2.452   3.124   4.058 -0.1594  0.6272  1.1306
   67MOL    C4225254   2.587   3.193   4.037 -0.9289  0.4026  0.1301
   67MOL    C4325255   2.621   3.273   4.162 -0.0625  0.1501  0.1117
   67MOL    C4425256   2.517   3.228   4.267 -0.0547 -0.1449  0.1827
   67MOL    C4525257   2.454   3.103   4.202 -0.5852  0.1409 -0.3989
   67MOL    C4625258   2.393   3.055   3.810  0.5686 -0.8976  0.1365
   67MOL    H4725259   2.329   2.979   4.007 -0.9207  2.4789  0.5992
   67MOL    H4825260   2.387   3.210   4.044 -2.2444 -1.1553 -0.6472
   67MOL    H4925261   2.584   3.265   3.955  1.3858 -0.0216 -0.3698
   67MOL    H5025262   2.678   3.134   4.024  0.2168  1.7734  1.6346
   67MOL    H5125263   2.617   3.380   4.142 -1.9269  0.6847  3.0024
   67MOL    H5225264   2.719   3.245   4.200 -1.0358  0.5749  3.0324
   67MOL    H5325265   2.560   3.214   4.366  2.4876  0.2367 -0.8411
   67MOL    H5425266   2.437   3.299   4.289  3.0285  3.0383  1.6037
   67MOL    H5525267   2.510   3.011   4.221 -0.6087 -0.0393 -1.1653
   67MOL    H5625268   2.355   3.083   4.245 -0.7894 -0.6685 -1.2135
   67MOL    H5725269   2.481   3.113   3.782  0.7002 -0.5906  1.1514
   67MOL    H5825270   2.395   2.971   3.741 -1.2397  0.5799 -1.7845
   67MOL    C5925271   2.261   3.131   3.795  0.2734 -0.1659  0.5310
   67MOL    C6025272   2.249   3.235   3.684  0.1424  0.3688  0.0121
   67MOL    C6125273   2.294   3.177   3.548 -0.0630  0.1133 -0.1010
   67MOL    C6225274   2.371   3.290   3.481  0.1418 -1.1797 -0.1606
   67MOL    C6325275   2.450   3.352   3.589  0.9844  0.4322 -0.2040
   67MOL    C6425276   2.345   3.358   3.700  0.1547  0.2986 -0.3178
   67MOL    C6525277   2.143   3.031   3.784  0.2539  0.6040  0.4179
   67MOL    H6625278   2.246   3.187   3.887 -0.5355 -1.2508  1.0802
   67MOL    H6725279   2.147   3.272   3.683 -0.0010 -0.0351 -0.8741
   67MOL    H6825280   2.213   3.137   3.488 -0.5226 -0.5258  0.9353
   67MOL    H6925281   2.354   3.087   3.548  1.2786  0.9866 -0.1943
   67MOL    H7025282   2.310   3.365   3.431 -0.1525 -0.8056  0.7610
   67MOL    H7125283   2.427   3.246   3.398 -0.6291 -2.5221  0.0256
   67MOL    H7225284   2.473   3.456   3.569 -0.4511  0.5539 -1.3046
   67MOL    H7325285   2.538   3.292   3.613 -0.4491 -1.3332  0.8637
   67MOL    H7425286   2.394   3.371   3.796 -2.5564  0.1141  1.1554
   67MOL    H7525287   2.289   3.449   3.678 -2.7732 -1.3045  0.2678
   67MOL    H7625288   2.160   2.960   3.865 -2.2255 -0.2337  0.2634
   67MOL    H7725289   2.158   2.969   3.695 -0.7180  0.8864  0.0519
   67MOL    C7825290   1.998   3.062   3.804  0.1171 -0.5884  0.0961
   67MOL    C7925291   1.982   3.152   3.931 -0.2876 -0.1414  1.0570
   67MOL    C8025292   2.031   3.095   4.071  0.1791 -0.7620  0.0122
   67MOL    C8125293   1.963   3.180   4.177  0.0641 -0.0042  0.1707
   67MOL    C8225294   1.833   3.235   4.112 -0.5031 -0.0867  0.2285
   67MOL    C8325295   1.839   3.198   3.963  0.2486  0.1025  0.3454
   67MOL    C8425296   1.929   3.120   3.680  0.5573 -0.3549  0.0846
   67MOL    H8525297   1.943   2.970   3.819  1.6073 -1.5201 -0.0388
   67MOL    H8625298   2.034   3.247   3.921  0.2419 -0.2956  2.3041
   67MOL    H8725299   2.140   3.107   4.071 -0.0912  2.0032 -1.1773
   67MOL    H8825300   2.018   2.987   4.078 -0.3299 -0.5563  2.6554
   67MOL    H8925301   2.022   3.249   4.237 -0.0165  1.3829 -1.3275
   67MOL    H9025302   1.942   3.117   4.264  1.7519 -1.5232 -0.5002
   67MOL    H9125303   1.750   3.184   4.161 -0.7467  0.7507  0.7011
   67MOL    H9225304   1.828   3.343   4.128  1.2295  0.3646 -1.9551
   67MOL    H9325305   1.779   3.107   3.954  0.2791  0.0425  0.7357
   67MOL    H9425306   1.788   3.278   3.910 -0.8218  0.3164  1.6452
   67MOL    H9525307   1.994   3.140   3.594 -0.0770  1.3319 -0.0309
   67MOL    H9625308   1.875   3.210   3.710  0.4365 -1.0002  1.8226
   67MOL    C9725309   1.816   3.030   3.623  0.8085  0.4262 -0.4215
   67MOL    C9825310   1.874   2.924   3.523 -0.0970 -0.2487  0.9736
   67MOL    C9925311   1.780   2.812   3.463  0.6306 -0.3274 -0.1998
   67MOL   C10025312   1.862   2.770   3.338 -0.4552 -0.2985 -0.0915
   67MOL   C10125313   1.914   2.899   3.283  0.9265  0.4779  0.0454
   67MOL   C10225314   1.949   2.986   3.403  0.0240 -0.3529 -0.4038
   67MOL   C10325315   1.698   3.103   3.562 -0.2959  0.5909 -0.4684
   67MOL   H10425316   1.777   2.965   3.701 -0.4444  3.2797  1.4141
   67MOL   H10525317   1.955   2.873   3.576 -2.0970 -0.5033  3.9318
   67MOL   H10625318   1.753   2.742   3.541 -0.6558 -0.8079 -1.0695
   67MOL   H10725319   1.686   2.843   3.418  1.6191 -0.5097 -2.4728
   67MOL   H10825320   1.791   2.723   3.270 -0.0022 -0.2718 -0.5937
   67MOL   H10925321   1.938   2.697   3.365  0.7336  1.1873  0.7077
   67MOL   H11025322   1.835   2.947   3.224  0.9989  0.3657 -0.1438
   67MOL   H11125323   1.997   2.880   3.215  2.8347  1.1323  2.1465
   67MOL   H11225324   2.057   2.994   3.418  0.1410 -0.8504 -0.9491
   67MOL   H11325325   1.901   3.080   3.379  1.4852  0.8046  1.0944
   67MOL   H11425326   1.748   3.173   3.494  0.7583  0.1827 -0.1339
   67MOL   H11525327   1.643   3.040   3.492  0.9777 -1.1075  0.0080
   67MOL   C11625328   1.594   3.162   3.658  0.3568 -0.5079  0.2035
   67MOL   C11725329   1.568   3.310   3.620 -0.4407  0.7276  0.3145
   67MOL   C11825330   1.471   3.328   3.502 -0.7886 -0.7606 -0.0888
   67MOL   C11925331   1.446   3.474   3.506 -0.7031 -0.2171 -0.5727
   67MOL   C12025332   1.425   3.502   3.652 -0.1554 -0.7654 -0.1041
   67MOL   C12125333   1.496   3.394   3.723 -0.1836 -0.1926  0.8128
   67MOL   C12225334   1.466   3.078   3.682  0.1430  0.7930 -0.4539
   67MOL   H12325335   1.636   3.161   3.758  0.1683 -1.2865  0.2730
   67MOL   H12425336   1.667   3.352   3.605 -0.3753  0.7022  0.6751
   67MOL   H12525337   1.514   3.284   3.411 -2.3303 -0.2033 -1.0957
   67MOL   H12625338   1.374   3.282   3.518 -0.7554 -1.0319 -0.6553
   67MOL   H12725339   1.356   3.508   3.454 -2.2354 -2.6753  0.3932
   67MOL   H12825340   1.533   3.531   3.474  0.5838 -0.8008  1.7618
   67MOL   H12925341   1.323   3.515   3.689 -0.3344 -1.1588 -0.4620
   67MOL   H13025342   1.478   3.593   3.681 -1.9005  0.2116  0.1416
   67MOL   H13125343   1.562   3.420   3.806 -0.7117 -2.8715  2.1053
   67MOL   H13225344   1.429   3.326   3.776  0.3831 -0.8094  0.7445
   67MOL   H13325345   1.425   3.085   3.581  1.2137 -1.5024 -1.0727
   67MOL   H13425346   1.399   3.128   3.751  1.2447 -0.3589  1.5007
   67MOL   C13525347   1.483   2.929   3.715 -0.3386 -0.3143 -0.2477
   67MOL   C13625348   1.353   2.848   3.687 -0.0999  0.6430  0.5448
   67MOL   C13725349   1.313   2.842   3.537 -0.3754 -0.7142 -0.2372
   67MOL   C13825350   1.163   2.825   3.529  0.4434  0.1203  0.0032
   67MOL   C13925351   1.120   2.813   3.675  0.9996 -0.0733  0.3832
   67MOL   C14025352   1.218   2.890   3.748  0.2374  0.5249  0.0493
   67MOL   C14125353   1.538   2.907   3.854  0.0455  0.1585 -0.1991
   67MOL   H14225354   1.562   2.893   3.648  0.9134 -1.1841  1.6618
   67MOL   H14325355   1.359   2.743   3.715  0.5542 -0.0514 -2.0416
   67MOL   H14425356   1.341   2.930   3.479  0.4483 -1.0937 -0.4291
   67MOL   H14525357   1.358   2.754   3.491 -0.7582 -0.0556 -1.9170
   67MOL   H14625358   1.131   2.736   3.474 -0.4786 -0.5751  1.6474
   67MOL   H14725359   1.134   2.917   3.478  0.5025  0.5956  0.8316
   67MOL   H14825360   1.126   2.710   3.711 -0.5465 -0.1217  0.5083
   67MOL   H14925361   1.018   2.849   3.672  0.7975 -0.7541 -2.5769
   67MOL   H15025362   1.208   2.997   3.730  0.0038  0.3971 -0.6190
   67MOL   H15125363   1.204   2.876   3.855  0.5738 -1.6883 -0.1679
   67MOL   H15225364   1.470   2.960   3.920 -0.1038 -0.6610  0.3167
   67MOL   H15325365   1.634   2.954   3.875 -0.3739  0.8158  0.2533
   67MOL   C15425366   1.560   2.761   3.909 -0.4236  0.3602 -0.3320
   67MOL   C15525367   1.661   2.677   3.827  0.7405  0.6922 -0.6058
   67MOL   C15625368   1.650   2.531   3.849 -0.1040 -1.1220  1.0887
   67MOL   C15725369   1.792   2.478   3.819  0.8948  0.5780 -0.2709
   67MOL   C15825370   1.880   2.584   3.877  0.1213  0.5889 -0.2977
   67MOL   C15925371   1.815   2.712   3.832  0.3493 -0.0139 -0.1767
   67MOL   C16025372   1.595   2.767   4.059 -0.0825  0.4661  0.3467
   67MOL   H16125373   1.461   2.715   3.899 -1.0140  1.8033 -1.3214
   67MOL   H16225374   1.629   2.669   3.723 -1.0288 -2.7052  0.1375
   67MOL   H16325375   1.622   2.498   3.949 -0.4236 -1.5104  0.8764
   67MOL   H16425376   1.565   2.495   3.790 -1.3334  2.8161  0.3339
   67MOL   H16525377   1.818   2.380   3.859 -1.0945 -1.0810 -2.8691
   67MOL   H16625378   1.815   2.479   3.713 -0.6528  3.1100 -0.6329
   67MOL   H16725379   1.976   2.571   3.827 -0.1261  2.1855 -1.2512
   67MOL   H16825380   1.880   2.578   3.986  2.2699  0.3649 -0.2953
   67MOL   H16925381   1.856   2.749   3.738  0.1677  1.6036  0.3567
   67MOL   H17025382   1.830   2.789   3.908 -1.3367 -1.5606  1.7553
   67MOL   H17125383   1.676   2.838   4.082  3.3968 -3.7699  1.9258
   67MOL   H17225384   1.640   2.670   4.082 -0.7282 -0.0850 -0.7093
   67MOL   C17325385   1.481   2.798   4.157 -0.6829 -0.6246 -0.1133
   67MOL   C17425386   1.538   2.839   4.296  0.5266  1.2517  0.2167
   67MOL   C17525387   1.620   2.969   4.306 -0.2131  0.1488  0.1910
   67MOL   C17625388   1.673   2.962   4.451 -0.1028 -0.2116 -0.1818
   67MOL   C17725389   1.635   2.821   4.514 -0.7084  0.1529  0.1648
   67MOL   C17825390   1.605   2.741   4.388  0.2325 -0.9384  0.1520
   67MOL   C17925391   1.369   2.693   4.162 -0.2416  0.2479 -0.3096
   67MOL   H18025392   1.454   2.895   4.115  0.7922 -0.1333  0.0378
   67MOL   H18125393   1.445   2.873   4.342 -0.7950 -0.8022 -0.7979
   67MOL   H18225394   1.557   3.057   4.290 -0.1789  0.2627  0.6766
   67MOL   H18325395   1.706   2.970   4.240  0.8622  1.2508  1.5603
   67MOL   H18425396   1.782   2.957   4.454 -0.2004 -2.1793  0.5093
   67MOL   H18525397   1.650   3.043   4.519 -1.3403  1.2068 -2.2261
   67MOL   H18625398   1.549   2.829   4.580  0.0088  0.1769  1.1009
   67MOL   H18725399   1.712   2.773   4.575 -1.1603 -1.1173 -0.2305
   67MOL   H18825400   1.691   2.701   4.334 -0.2110  0.2592 -1.4701
   67MOL   H18925401   1.531   2.662   4.399 -0.0686 -0.3466  2.6139
   67MOL   H19025402   1.331   2.661   4.065  1.2079  0.0965 -0.8383
   67MOL   H19125403   1.416   2.600   4.194 -0.7629  0.3321  0.7292
   67MOL   C19225404   1.244   2.731   4.253 -0.0659  0.3001 -0.3459
   67MOL   C19325405   1.135   2.617   4.265  0.6981  0.4698 -0.3972
   67MOL   C19425406   1.181   2.496   4.352 -0.2673 -0.0422 -0.2176
   67MOL   C19525407   1.095   2.376   4.310 -0.5803 -0.1244 -0.0181
   67MOL   C19625408   1.034   2.406   4.175  0.1840  0.3529 -1.0304
   67MOL   C19725409   1.094   2.543   4.131 -0.4237  0.0506 -0.2575
   67MOL   C19825410   1.192   2.867   4.219  0.5611 -0.2982 -0.1012
   67MOL   H19925411   1.278   2.735   4.356  0.7323 -0.1385 -0.5825
   67MOL   H20025412   1.043   2.651   4.312 -1.7304 -1.4319 -3.6418
   67MOL   H20125413   1.183   2.514   4.459  0.6004  1.6555 -0.5086
   67MOL   H20225414   1.288   2.480   4.341 -0.2523 -0.6573  0.7523
   67MOL   H20325415   1.163   2.291   4.307  0.2720  0.5786 -0.6414
   67MOL   H20425416   1.015   2.362   4.383 -0.3870 -3.3635 -0.3689
   67MOL   H20525417   0.929   2.431   4.182 -0.1657 -1.2060 -0.4776
   67MOL   H20625418   1.046   2.333   4.095 -0.1233 -0.1062 -0.6573
   67MOL   H20725419   1.026   2.598   4.066  0.5637 -0.9376 -2.1753
   67MOL   H20825420   1.185   2.515   4.079  0.5745  0.8837  1.0146
   67MOL   H20925421   1.267   2.942   4.244  1.0661  0.2851 -3.1820
   67MOL   H21025422   1.175   2.866   4.111 -1.1169  0.1322  0.1346
   67MOL   C21125423   1.060   2.914   4.287  0.9559 -0.3987  0.0968
   67MOL   C21225424   1.068   2.914   4.443 -0.0875  0.6703  0.5913
   67MOL   C21325425   1.173   3.000   4.509 -0.0738 -0.2543  0.8153
   67MOL   C21425426   1.132   2.984   4.652 -0.1262  0.0236  0.2977
   67MOL   C21525427   0.979   2.971   4.655  0.3243 -0.2634 -0.1367
   67MOL   C21625428   0.935   2.929   4.512 -0.1191  0.0448  0.6971
   67MOL   C21725429   1.028   3.055   4.223 -0.5572  0.2121 -0.1182
   67MOL   H21825430   0.974   2.853   4.258  0.9056  0.0982 -0.8218
   67MOL   H21925431   1.098   2.815   4.477  2.0714  0.6289 -1.2691
   67MOL   H22025432   1.274   2.969   4.482  1.1748  0.0616  4.7980
   67MOL   H22125433   1.167   3.107   4.491  0.1954  0.1427  2.9295
   67MOL   H22225434   1.172   2.898   4.707  0.3654  1.5907  2.4658
   67MOL   H22325435   1.160   3.070   4.713  2.0875 -0.7242  0.3959
   67MOL   H22425436   0.937   3.068   4.682  2.6866  0.4130  1.2364
   67MOL   H22525437   0.941   2.906   4.735  0.6923 -0.4234 -0.0913
   67MOL   H22625438   0.883   2.834   4.513  0.1341 -0.0842  1.9847
   67MOL   H22725439   0.867   3.002   4.467  0.4027  0.1934  0.1445
   67MOL   H22825440   1.118   3.115   4.232  0.3662 -1.2728  0.6575
   67MOL   H22925441   0.954   3.109   4.282  0.8009  0.8688  1.0026
   67MOL   C23025442   0.965   3.053   4.086 -0.5440  0.7196 -0.0093
   67MOL   C23125443   1.007   3.168   3.992  0.0344 -0.2816  0.5596
   67MOL   C23225444   0.962   3.304   4.035 -0.3305 -0.6818 -0.6183
   67MOL   C23325445   1.085   3.391   4.014 -0.0207 -0.0302  0.4666
   67MOL   C23425446   1.213   3.305   4.014  0.2175 -0.4678 -0.3722
   67MOL   C23525447   1.157   3.173   3.955 -0.0086  0.1296  0.3823
   67MOL   C23625448   0.811   3.048   4.091  0.3862 -0.1028  0.6015
   67MOL   H23725449   0.997   2.973   4.020 -0.7348  1.5716 -1.1429
   67MOL   H23825450   0.958   3.151   3.896  0.3979  1.1848  0.0932
   67MOL   H23925451   0.881   3.343   3.973 -0.1702  1.3994  0.4147
   67MOL   H24025452   0.930   3.315   4.139  0.9991  0.4466 -0.3012
   67MOL   H24125453   1.082   3.439   3.916  0.2113 -1.1914 -0.1254
   67MOL   H24225454   1.093   3.475   4.083 -0.2389 -0.4003  0.9460
   67MOL   H24325455   1.250   3.277   4.113 -1.8449  1.2403  0.9267
   67MOL   H24425456   1.294   3.348   3.955  1.1837 -0.2173  1.1212
   67MOL   H24525457   1.206   3.083   3.992 -0.4919 -0.4240 -0.3073
   67MOL   H24625458   1.185   3.179   3.850 -1.7643  0.6873 -0.0648
   67MOL   H24725459   0.774   3.063   3.990  0.2925  1.7319  0.8890
   67MOL   H24825460   0.768   3.133   4.143 -0.6893 -0.6443  0.6306
   67MOL   C24925461   0.734   2.932   4.162  0.2968 -0.4593 -0.4216
   67MOL   C25025462   0.752   2.801   4.099  0.2231  0.2299  0.2158
   67MOL   C25125463   0.680   2.777   3.962  0.1085 -0.8897 -0.4591
   67MOL   C25225464   0.666   2.626   3.949  0.1067 -0.2432 -0.0498
   67MOL   C25325465   0.639   2.585   4.093  0.6961 -0.2096  0.1896
   67MOL   C25425466   0.715   2.683   4.182 -0.6025  1.1023 -0.4700
   67MOL   C25525467   0.589   2.968   4.189 -0.7815 -0.3729  0.0364
   67MOL   H25625468   0.775   2.921   4.262 -2.2912 -0.5444  0.6666
   67MOL   H25725469   0.859   2.789   4.080  0.6955  1.4416  2.0103
   67MOL   H25825470   0.743   2.809   3.879  0.4357 -1.5576 -0.4690
   67MOL   H25925471   0.579   2.819   3.955 -0.7378 -2.2036  2.9300
   67MOL   H26025472   0.757   2.580   3.912 -0.9641 -0.7347 -2.1437
   67MOL   H26125473   0.587   2.601   3.878  0.0396 -1.0034  0.2930
   67MOL   H26225474   0.661   2.481   4.116 -0.0891 -0.6172 -0.8483
   67MOL   H26325475   0.532   2.599   4.106  0.5379 -0.0359 -1.1865
   67MOL   H26425476   0.804   2.639   4.227 -1.6624  0.8171  1.3654
   67MOL   H26525477   0.653   2.704   4.269  0.2015  0.3698  0.2858
   67MOL   H26625478   0.558   3.039   4.112  0.5840 -0.1316 -0.3076
   67MOL   H26725479   0.530   2.877   4.183  1.9237 -2.2271  0.5380
   67MOL   C26825480   0.568   3.036   4.326 -0.1619 -1.0316 -0.3859
   67MOL   C26925481   0.563   2.925   4.438 -0.1799  0.2231  0.1160
   67MOL   C27025482   0.438   2.837   4.436  0.4419  0.0144  0.5753
   67MOL   C27125483   0.419   2.786   4.576 -0.0042 -0.2421  0.2579
   67MOL   C27225484   0.519   2.854   4.664 -0.9762  0.3651 -0.3841
   67MOL   C27325485   0.565   2.975   4.580 -0.3677  0.2483 -0.0337
   67MOL   C27425486   0.437   3.120   4.332 -0.3830  0.0311  0.2362
   67MOL   H27525487   0.648   3.109   4.340  0.5252 -1.7712 -0.3752
   67MOL   H27625488   0.641   2.850   4.425 -0.7724 -0.2993 -0.4037
   67MOL   H27725489   0.339   2.879   4.416  0.1954 -0.4384  0.8508
   67MOL   H27825490   0.459   2.757   4.365 -1.2563  0.1605 -0.1393
   67MOL   H27925491   0.318   2.812   4.610 -0.6641  0.8738 -2.4416
   67MOL   H28025492   0.441   2.679   4.572 -0.3215 -0.2619 -1.1770
   67MOL   H28125493   0.604   2.787   4.674 -0.7325  0.8354  0.8289
   67MOL   H28225494   0.489   2.881   4.765  0.3942  2.7399 -0.5766
   67MOL   H28325495   0.661   3.016   4.611 -1.1375  1.0858  1.3102
   67MOL   H28425496   0.489   3.050   4.601  0.4603  0.7952  1.0862
   67MOL   H28525497   0.407   3.124   4.437  1.8538  1.8983  0.8454
   67MOL   H28625498   0.359   3.066   4.279  2.8234 -3.4279 -1.1480
   67MOL   C28725499   0.437   3.274   4.287  0.6371  0.4942  0.3521
   67MOL   C28825500   0.544   3.367   4.357  0.0906 -0.2745 -0.2643
   67MOL   C28925501   0.514   3.518   4.338  0.4208  0.0551  0.1208
   67MOL   C29025502   0.603   3.589   4.445  0.1562 -0.0017  0.0780
   67MOL   C29125503   0.596   3.494   4.566  0.0313 -0.4631  0.3528
   67MOL   C29225504   0.548   3.359   4.511 -0.3674  0.4542  0.1861
   67MOL   C29325505   0.456   3.302   4.136 -0.1392  0.0116  0.2047
   67MOL   H29425506   0.334   3.308   4.299  0.2264 -0.2035 -1.0798
   67MOL   H29525507   0.644   3.343   4.323 -0.2084 -0.2986 -1.1370
   67MOL   H29625508   0.521   3.565   4.240 -1.9006 -0.6740 -0.4196
   67MOL   H29725509   0.410   3.542   4.358  0.2084 -1.0118  0.3212
   67MOL   H29825510   0.703   3.600   4.404 -0.1276  0.1665 -0.5767
   67MOL   H29925511   0.579   3.691   4.475 -1.4302  0.2385 -1.8917
   67MOL   H30025512   0.535   3.525   4.651 -0.3476  1.3270 -0.5483
   67MOL   H30125513   0.697   3.472   4.598 -0.6198 -2.3141  1.2056
   67MOL   H30225514   0.448   3.331   4.543 -0.2171  2.2349  2.3499
   67MOL   H30325515   0.617   3.278   4.532 -1.3445 -0.3565  0.3227
   67MOL   H30425516   0.458   3.209   4.079  0.9050 -0.0902  0.3903
   67MOL   H30525517   0.560   3.328   4.117 -0.8903  1.7772 -1.6618
   67MOL   C30625518   0.349   3.401   4.075  0.2542  0.7453  0.1130
   67MOL   C30725519   0.401   3.455   3.932 -0.1697 -0.1874  0.1969
   67MOL   C30825520   0.517   3.561   3.928  0.1024  0.4713  0.7549
   67MOL   C30925521   0.565   3.567   3.784  0.6026  1.0056 -0.3524
   67MOL   C31025522   0.516   3.440   3.713  0.2671  0.6728  0.2613
   67MOL   C31125523   0.437   3.355   3.819  0.7380 -1.5354  0.0068
   67MOL   C31225524   0.209   3.336   4.054 -0.7158 -0.1790 -0.2175
   67MOL   H31325525   0.337   3.496   4.128 -0.9443  0.4560  0.3734
   67MOL   H31425526   0.315   3.512   3.897  2.0174  0.9394 -3.6795
   67MOL   H31525527   0.600   3.516   3.982  3.0406  0.9526 -3.1726
   67MOL   H31625528   0.494   3.657   3.976 -0.2852  1.6774 -1.7558
   67MOL   H31725529   0.510   3.650   3.740 -1.1072  0.1917  0.2064
   67MOL   H31825530   0.671   3.582   3.761  0.7016 -1.0761 -1.3696
   67MOL   H31925531   0.602   3.385   3.674 -1.7444 -2.1447 -0.3569
   67MOL   H32025532   0.447   3.469   3.634 -0.1203 -2.1567 -0.4794
   67MOL   H32125533   0.344   3.321   3.773 -0.9433  0.5578  1.7575
   67MOL   H32225534   0.493   3.269   3.857 -0.0049 -2.3209 -0.6388
   67MOL   H32325535   0.179   3.290   4.148  0.9116 -1.2894 -0.2175
   67MOL   H32425536   0.240   3.253   3.992  0.2924  0.5451 -0.6993
   67MOL   C32525537   0.090   3.420   4.014 -0.6335  0.1447 -0.2714
   67MOL   C32625538   0.068   3.537   4.105  0.6740  0.3168 -0.7607
   67MOL   C32725539   0.046   3.503   4.251  0.6885  0.3991 -0.6015
   67MOL   C32825540   7.672   3.631   4.308  0.5070  0.3039  0.0367
   67MOL   C32925541   7.580   3.683   4.197  0.9171 -0.2622  0.6600
   67MOL   C33025542   7.649   3.640   4.068 -0.3219 -0.2337  0.0134
   67MOL   C33125543   7.656   3.337   3.999  0.0732  0.3138  0.2555
   67MOL   H33225544   0.113   3.460   3.915 -2.5812 -0.3101 -0.9204
   67MOL   H33325545   0.165   3.585   4.117  1.3914 -1.4780  1.0203
   67MOL   H33425546   0.139   3.484   4.304 -0.4380 -1.1356  0.8395
   67MOL   H33525547   7.657   3.430   4.261  0.7455  0.3601 -0.4375
   67MOL   H33625548   0.055   3.711   4.329 -0.6879  1.7947 -1.3820
   67MOL   H33725549   7.621   3.621   4.404 -1.5640 -0.8375 -1.1789
   67MOL   H33825550   7.563   3.790   4.186 -2.7412 -0.9542 -1.3639
   67MOL   H33925551   7.484   3.631   4.208 -0.1749  2.4445  4.8946
   67MOL   H34025552   0.009   3.721   4.015 -0.2513  0.2695  0.8498
   67MOL   H34125553   7.573   3.614   3.995 -1.4268  5.9944 -1.3581
   67MOL   H34225554   7.575   3.384   4.056  0.2563  1.4857 -0.4358
   67MOL   H34325555   7.652   3.240   4.048 -1.3199 -0.8808 -2.1008
   67MOL   C34425556   7.608   3.318   3.853 -0.5718  0.0671 -0.4466
   67MOL   C34525557   7.463   3.260   3.851  0.4503  0.1283 -0.4277
   67MOL   C34625558   7.361   3.343   3.927  0.2509 -0.0947  0.4107
   67MOL   C34725559   7.329   3.269   4.055 -0.8389 -0.1601  0.4292
   67MOL   C34825560   7.330   3.128   4.017 -0.3236 -0.8091 -0.5957
   67MOL   C34925561   7.433   3.117   3.899  0.1866  0.4696 -0.0695
   67MOL   C35025562   0.025   3.244   3.763  0.0683 -0.5783  0.3163
   67MOL   H35125563   7.594   3.418   3.812  3.7029  0.5728 -0.9643
   67MOL   H35225564   7.425   3.246   3.749  1.0434 -1.4766 -0.4414
   67MOL   H35325565   7.266   3.356   3.875  0.8222 -2.5647 -1.3643
   67MOL   H35425566   7.396   3.445   3.938  0.0862  0.0367 -0.2871
   67MOL   H35525567   7.390   3.289   4.143 -0.4441  0.7738 -0.0413
   67MOL   H35625568   7.232   3.312   4.080  0.3049  3.3281 -0.8696
   67MOL   H35725569   7.232   3.088   3.993 -0.7172  0.7775 -1.7053
   67MOL   H35825570   7.375   3.069   4.097  0.5995  3.0570  1.8691
   67MOL   H35925571   7.526   3.072   3.933 -0.6206 -0.3092  1.1538
   67MOL   H36025572   7.382   3.058   3.823  0.3263 -0.5227  0.6019
   67MOL   H36125573   0.038   3.141   3.795 -1.3260 -0.3437  1.7094
   67MOL   H36225574   0.118   3.299   3.776 -1.4763  2.3208 -0.3202
   67MOL   C36325575   0.001   3.233   3.611 -0.1832  0.7699  0.2987
   67MOL   C36425576   0.125   3.274   3.529  0.5761  1.1737  1.0843
   67MOL   C36525577   0.097   3.308   3.383 -0.4878  0.1514  0.1408
   67MOL   C36625578   0.232   3.310   3.308 -0.9441  0.0886 -0.6032
   67MOL   C36725579   0.327   3.224   3.392 -0.1926  0.8761  0.1410
   67MOL   C36825580   0.247   3.172   3.510  0.1820 -0.4080 -0.4372
   67MOL   C36925581   7.628   3.099   3.556  0.2796 -0.1227 -0.4324
   67MOL   H37025582   7.624   3.317   3.589  2.6180  3.1199  0.4377
   67MOL   H37125583   0.160   3.363   3.579  3.3691  0.5760  0.2986
   67MOL   H37225584   0.031   3.237   3.332 -0.5471  0.8966 -0.8265
   67MOL   H37325585   0.045   3.402   3.365 -0.7921  0.0850  0.6407
   67MOL   H37425586   0.208   3.270   3.209 -1.6205  0.0166 -0.4128
   67MOL   H37525587   0.274   3.408   3.283  0.6357 -0.2554  0.6658
   67MOL   H37625588   0.364   3.136   3.338 -2.0205 -1.2307  2.2287
   67MOL   H37725589   0.410   3.279   3.436  0.9160 -2.5924  2.6323
   67MOL   H37825590   0.310   3.162   3.599 -1.6082 -2.9742  0.5853
   67MOL   H37925591   0.227   3.067   3.492  2.0938 -0.8520  0.0169
   67MOL   H38025592   7.601   3.103   3.451  1.2237 -2.1357 -0.7722
   67MOL   H38125593   7.536   3.086   3.615 -1.0640  0.2813 -2.3945
   67MOL   H38225594   0.011   3.020   3.573  0.7762  0.8914  2.3833
   68MOL     C125595   7.621   2.506   4.567 -0.0540 -0.2709 -0.6891
   68MOL     C225596   7.608   2.504   4.720 -0.0402  0.0133  0.0311
   68MOL     C325597   7.488   2.425   4.773 -0.5353 -0.1016  0.0889
   68MOL     C425598   7.458   2.483   4.914 -0.2306  0.0687  1.1455
   68MOL     C525599   7.534   2.618   4.924  0.8311 -0.2381 -0.6246
   68MOL     C625600   7.594   2.639   4.789  0.0326  0.1443 -1.2347
   68MOL     C725601   0.060   2.573   4.511  0.2834  0.7291 -0.6306
   68MOL     H825602   7.619   2.402   4.532  0.2696 -0.7129  0.5729
   68MOL     H925603   0.009   2.455   4.754  0.0691 -0.7704 -1.3672
   68MOL    H1025604   7.404   2.446   4.707 -0.0216  0.2721 -0.4550
   68MOL    H1125605   7.499   2.317   4.773 -1.3662 -0.1888 -0.1535
   68MOL    H1225606   7.353   2.506   4.933  0.1405  2.3788  0.5400
   68MOL    H1325607   7.487   2.413   4.992 -0.3991 -2.3334 -0.9021
   68MOL    H1425608   7.473   2.702   4.958 -0.7518 -0.9505 -1.6760
   68MOL    H1525609   7.616   2.606   4.995  1.3832 -1.5928 -1.4740
   68MOL    H1625610   7.690   2.690   4.787  0.3168 -0.2875  0.9880
   68MOL    H1725611   7.518   2.691   4.729 -1.2824 -0.9966 -0.5949
   68MOL    H1825612   0.056   2.681   4.523  2.0549  0.5573  1.8160
   68MOL    H1925613   0.140   2.534   4.572 -0.1503 -0.0130 -0.5320
   68MOL    H2025614   7.533   2.553   4.524  1.6336  0.9515 -2.9204
   68MOL    C2125615   0.104   2.545   4.362  0.1854  0.1869 -0.0180
   68MOL    C2225616   0.121   2.395   4.336 -0.8153  0.5126  0.3178
   68MOL    C2325617   0.219   2.335   4.441 -0.2491 -0.2489  0.1467
   68MOL    C2425618   0.288   2.221   4.370  0.3402  0.1995 -0.0152
   68MOL    C2525619   0.315   2.275   4.228 -0.6239  0.0482 -0.2280
   68MOL    C2625620   0.184   2.364   4.203  0.0199 -0.6765 -0.1165
   68MOL    C2725621   7.686   2.612   4.266 -0.2331  0.0376 -1.1217
   68MOL    H2825622   0.200   2.592   4.343  0.2041 -0.5368 -1.8165
   68MOL    H2925623   0.029   2.337   4.348  0.3790 -1.5979 -0.4619
   68MOL    H3025624   0.169   2.302   4.532  1.1240 -0.0943  0.9659
   68MOL    H3125625   0.293   2.410   4.470 -0.8378  0.1987  0.5073
   68MOL    H3225626   0.378   2.185   4.420 -0.4691 -1.9797 -0.0903
   68MOL    H3325627   0.223   2.135   4.358  1.7994 -1.0524  0.8410
   68MOL    H3425628   0.310   2.197   4.152 -1.8271  2.2442 -2.4692
   68MOL    H3525629   0.414   2.317   4.214  0.4241 -1.8843  1.2722
   68MOL    H3625630   0.110   2.305   4.149 -1.6366  0.8316  0.4344
   68MOL    H3725631   0.212   2.452   4.145 -1.4404  1.5866  2.4699
   68MOL    H3825632   7.675   2.544   4.181  1.6126 -0.6118 -0.8622
   68MOL    H3925633   7.589   2.594   4.313 -0.2890  1.2418 -0.7512
   68MOL    C4025634   0.013   2.764   4.240  0.0785 -0.1368 -0.4836
   68MOL    C4125635   0.063   2.799   4.096  0.3967 -0.3022 -0.0945
   68MOL    C4225636   0.187   2.723   4.045  0.1563 -0.0064 -0.3949
   68MOL    C4325637   0.243   2.816   3.933  0.5251 -0.1315  0.3292
   68MOL    C4425638   0.232   2.954   3.996 -0.4838 -0.1082  0.0003
   68MOL    C4525639   0.107   2.949   4.091  0.5363 -0.0452  0.6101
   68MOL    C4625640   7.580   2.852   4.259  0.0337  0.0084  0.6645
   68MOL    H4725641   0.099   2.794   4.300  1.9699  0.7055 -3.5108
   68MOL    H4825642   7.669   2.776   4.031  0.2033 -2.2639  0.8124
   68MOL    H4925643   0.171   2.629   3.992 -0.8218  1.4527 -2.7532
   68MOL    H5025644   0.262   2.719   4.123  0.8642 -0.1521 -1.0745
   68MOL    H5125645   0.183   2.801   3.844 -0.2107 -1.6437  1.0604
   68MOL    H5225646   0.346   2.799   3.903  0.1837 -1.4617 -0.1290
   68MOL    H5325647   0.318   2.976   4.059 -1.0951 -0.4419  0.9520
   68MOL    H5425648   0.214   3.030   3.920  0.7861  0.0302 -0.1819
   68MOL    H5525649   0.123   2.993   4.189 -1.2503  1.4480  0.2593
   68MOL    H5625650   0.024   2.987   4.031 -0.5407 -1.4982  1.1438
   68MOL    H5725651   7.575   2.946   4.205  0.5529 -0.2927  0.0885
   68MOL    H5825652   7.495   2.798   4.217 -0.5072  0.4986  1.1293
   68MOL    C5925653   7.552   2.888   4.404 -0.7228 -0.2605  0.4538
   68MOL    C6025654   7.655   2.998   4.447  0.4984  0.3687 -0.3434
   68MOL    C6125655   7.664   3.028   4.599  0.0193  0.5245  0.0904
   68MOL    C6225656   0.048   3.164   4.613  0.5895  0.4842 -0.3217
   68MOL    C6325657   0.044   3.220   4.474 -0.1473  0.3215  0.0366
   68MOL    C6425658   7.630   3.134   4.393  0.7148  0.3598 -0.1248
   68MOL    C6525659   7.405   2.922   4.424  0.6537 -0.6516 -0.6559
   68MOL    H6625660   7.569   2.807   4.475  2.0911 -0.4284 -0.3674
   68MOL    H6725661   0.065   2.960   4.423 -0.5902 -1.8708 -1.4644
   68MOL    H6825662   0.020   2.946   4.655 -0.0376  1.4199  1.4736
   68MOL    H6925663   7.567   3.030   4.647  0.6992 -0.0810  1.5269
   68MOL    H7025664   0.150   3.153   4.648 -0.3332  0.7270  2.5142
   68MOL    H7125665   0.008   3.229   4.691 -1.5960 -0.1953 -0.8167
   68MOL    H7225666   0.144   3.219   4.432  0.4316 -1.2847  1.3951
   68MOL    H7325667   0.009   3.323   4.470 -1.8364 -0.2435 -0.2079
   68MOL    H7425668   7.529   3.171   4.406  0.0048 -1.3981 -0.4293
   68MOL    H7525669   7.653   3.146   4.287  0.6255 -1.5161 -0.3799
   68MOL    H7625670   7.389   3.004   4.355 -0.7246 -0.0417  0.3697
   68MOL    H7725671   7.390   2.954   4.527 -3.7290 -2.0022 -0.7832
   68MOL    C7825672   7.299   2.812   4.395 -0.0427  0.2473  0.0301
   68MOL    C7925673   7.191   2.805   4.501 -0.7622 -0.5748 -0.4566
   68MOL    C8025674   7.104   2.927   4.550  0.2551  0.3506  0.5672
   68MOL    C8125675   7.031   2.893   4.677  0.0900  0.1139  0.0691
   68MOL    C8225676   7.116   2.774   4.734  0.3014 -0.5876  0.6651
   68MOL    C8325677   7.239   2.754   4.638  0.6662 -0.3606  0.6440
   68MOL    C8425678   7.234   2.832   4.251 -0.5503 -0.9262 -0.1838
   68MOL    H8525679   7.344   2.713   4.404  0.0941  0.3065  0.0072
   68MOL    H8625680   7.126   2.727   4.463  1.3903 -1.4742 -2.3968
   68MOL    H8725681   7.029   2.958   4.478  1.0981 -1.6215 -1.2532
   68MOL    H8825682   7.169   3.013   4.566  0.2568  0.7685 -1.5901
   68MOL    H8925683   6.927   2.862   4.664 -0.2764  0.8006  1.2958
   68MOL    H9025684   7.009   2.975   4.745  3.9616  0.9850  0.4063
   68MOL    H9125685   7.160   2.788   4.833  2.1966 -1.5613 -0.0239
   68MOL    H9225686   7.055   2.684   4.741  1.1390 -1.2716 -0.6989
   68MOL    H9325687   7.320   2.816   4.678 -0.7126  2.0639 -0.2519
   68MOL    H9425688   7.268   2.649   4.638 -1.2801 -0.9187  0.3540
   68MOL    H9525689   7.303   2.883   4.182  0.7557 -1.7625  0.4786
   68MOL    H9625690   7.157   2.908   4.257 -1.2980 -1.3408 -3.4047
   68MOL    C9725691   7.168   2.713   4.184 -1.0321 -0.4392  0.1621
   68MOL    C9825692   7.258   2.598   4.148  0.3000  0.1316 -0.0506
   68MOL    C9925693   7.184   2.472   4.113 -0.2905  1.1877  0.2427
   68MOL   C10025694   7.281   2.407   4.014 -0.3037  1.0397  0.0535
   68MOL   C10125695   7.342   2.523   3.930 -0.5413 -0.4662 -0.1670
   68MOL   C10225696   7.364   2.627   4.035  0.4555 -0.1904 -0.2992
   68MOL   C10325697   7.085   2.763   4.060 -0.4346 -0.5138 -0.7804
   68MOL   H10425698   7.105   2.660   4.256  0.3922 -0.6400  1.2886
   68MOL   H10525699   7.317   2.568   4.235  1.6953  1.2959 -0.5814
   68MOL   H10625700   7.167   2.407   4.198  0.8118 -0.3149 -0.6559
   68MOL   H10725701   7.096   2.474   4.048  1.0519 -0.2163 -1.6538
   68MOL   H10825702   7.235   2.338   3.944  0.7342  0.7937 -0.3977
   68MOL   H10925703   7.358   2.349   4.065  0.4500  1.6755 -0.3377
   68MOL   H11025704   7.261   2.551   3.863  0.8808 -1.1789 -2.2120
   68MOL   H11125705   7.434   2.513   3.874  0.8566  1.7450  1.6511
   68MOL   H11225706   7.467   2.628   4.069  0.7481  3.1965 -1.0880
   68MOL   H11325707   7.354   2.724   3.986 -0.0003 -0.6705 -1.1821
   68MOL   H11425708   7.138   2.849   4.019  1.1310 -1.6747 -1.2497
   68MOL   H11525709   7.089   2.695   3.975 -0.0226 -2.1707  0.5508
   68MOL   C11625710   6.936   2.783   4.098 -0.0491  0.1383 -0.0562
   68MOL   C11725711   6.869   2.884   3.996  0.2926 -0.1702 -0.3188
   68MOL   C11825712   6.929   3.030   4.007  0.9828  0.2189 -0.1089
   68MOL   C11925713   6.952   3.065   3.862  0.3370 -0.1381 -0.7122
   68MOL   C12025714   6.873   2.965   3.774 -0.6344  0.5976 -0.6447
   68MOL   C12125715   6.873   2.837   3.853 -0.3499 -0.6761 -0.2325
   68MOL   C12225716   6.855   2.655   4.111 -0.0547  0.2830  0.3000
   68MOL   H12325717   6.927   2.830   4.196  1.4681 -0.1240  0.2201
   68MOL   H12425718   6.762   2.890   4.012  0.4389 -1.4734  1.2640
   68MOL   H12525719   6.856   3.087   4.063 -1.3443 -0.1477 -2.6858
   68MOL   H12625720   7.021   3.034   4.066  0.5059  2.3849  0.5240
   68MOL   H12725721   7.059   3.053   3.844  0.0701  0.4568 -2.9091
   68MOL   H12825722   6.929   3.167   3.833  1.0080  0.4993  0.9298
   68MOL   H12925723   6.904   2.937   3.673  1.4673 -1.8695  0.6264
   68MOL   H13025724   6.769   2.995   3.768 -0.6163  1.0444  1.1833
   68MOL   H13125725   6.795   2.764   3.832  0.5514 -1.9236  0.6346
   68MOL   H13225726   6.963   2.778   3.833  0.8850  1.6716 -1.8558
   68MOL   H13325727   6.908   2.580   4.171  2.0922  2.4064  1.1305
   68MOL   H13425728   6.867   2.614   4.010 -1.9001 -0.0773  0.2168
   68MOL   C13525729   6.709   2.666   4.153  0.1373 -0.5528 -0.3181
   68MOL   C13625730   6.685   2.765   4.275 -0.5272  0.4140  0.2587
   68MOL   C13725731   6.749   2.720   4.405  0.2896 -0.6111 -1.0650
   68MOL   C13825732   6.685   2.813   4.505  0.3266 -0.0052  0.1890
   68MOL   C13925733   6.540   2.840   4.455  0.3444 -0.2045 -0.4102
   68MOL   C14025734   6.538   2.798   4.309  0.6279  0.4110 -0.2058
   68MOL   C14125735   6.643   2.531   4.182 -0.1058  0.0587 -0.0542
   68MOL   H14225736   6.657   2.718   4.073  0.2364 -0.6010 -0.4126
   68MOL   H14325737   6.735   2.860   4.260 -1.0619  0.5999 -0.3521
   68MOL   H14425738   6.721   2.616   4.418 -0.8277 -0.0991  0.9331
   68MOL   H14525739   6.857   2.723   4.418 -0.0040 -0.0887  1.4381
   68MOL   H14625740   6.736   2.910   4.514 -1.6353  0.8939  2.0561
   68MOL   H14725741   6.685   2.782   4.609 -2.2419  3.4903  1.3291
   68MOL   H14825742   6.527   2.944   4.484  1.7549 -0.0549 -0.2657
   68MOL   H14925743   6.463   2.782   4.505 -0.0148  1.5518  1.1146
   68MOL   H15025744   6.473   2.714   4.285  2.1859 -1.3920  1.6792
   68MOL   H15125745   6.518   2.887   4.248  2.3600 -0.0942 -1.5913
   68MOL   H15225746   6.560   2.560   4.247  0.1793  1.5582 -0.3446
   68MOL   H15325747   6.709   2.465   4.238 -0.3304  0.3347  0.5486
   68MOL   C15425748   6.579   2.468   4.056  0.2556  0.2451  0.2332
   68MOL   C15525749   6.566   2.314   4.065 -0.1303 -0.3318 -0.2741
   68MOL   C15625750   6.489   2.264   4.188 -0.6910 -0.3346 -0.1728
   68MOL   C15725751   6.537   2.118   4.195  0.1225 -0.0283  0.2344
   68MOL   C15825752   6.662   2.098   4.108 -0.5417  0.1077 -0.3839
   68MOL   C15925753   6.706   2.238   4.067  0.1390  0.2297 -0.2424
   68MOL   C16025754   6.443   2.532   4.028  0.3464  0.3382  0.6058
   68MOL   H16125755   6.645   2.473   3.969  0.1932  1.4187  0.2500
   68MOL   H16225756   6.512   2.271   3.981 -0.3148 -1.8422  0.5888
   68MOL   H16325757   6.515   2.318   4.279 -0.3163 -1.0107  0.1263
   68MOL   H16425758   6.383   2.267   4.165 -1.5568 -0.2166  3.5186
   68MOL   H16525759   6.552   2.088   4.299  0.4086  0.2803  0.2846
   68MOL   H16625760   6.452   2.056   4.166  0.2134 -0.9447  1.8710
   68MOL   H16725761   6.635   2.039   4.021  0.4215  0.1502 -0.7186
   68MOL   H16825762   6.740   2.038   4.157  2.7193  2.6732 -2.2271
   68MOL   H16925763   6.761   2.251   3.974  0.6204  0.4260  0.0635
   68MOL   H17025764   6.781   2.276   4.137  1.1068 -0.8024 -0.7015
   68MOL   H17125765   6.438   2.637   4.055  1.1643  0.5576 -0.0730
   68MOL   H17225766   6.373   2.488   4.099 -0.8253 -0.0363 -0.7512
   68MOL   C17325767   6.388   2.518   3.884  0.5018  0.0163 -0.3590
   68MOL   C17425768   6.373   2.670   3.825  0.9217 -0.9213 -0.4599
   68MOL   C17525769   6.300   2.684   3.690  0.2982  0.9098  0.8034
   68MOL   C17625770   6.348   2.811   3.641  0.2488  0.6002  0.1521
   68MOL   C17725771   6.490   2.825   3.685  0.0081  0.5602 -0.3029
   68MOL   C17825772   6.497   2.743   3.811 -0.0917 -1.1403 -0.0419
   68MOL   C17925773   6.255   2.451   3.878  0.0993  0.1722  0.6131
   68MOL   H18025774   6.454   2.462   3.818  1.1386  1.7902 -1.2746
   68MOL   H18125775   6.302   2.723   3.890  0.5358  0.8996 -2.3150
   68MOL   H18225776   6.193   2.679   3.706 -0.0103 -2.4673 -1.6980
   68MOL   H18325777   6.334   2.606   3.621  2.4705  4.0804 -1.8865
   68MOL   H18425778   6.327   2.826   3.536  0.1168 -0.6836 -0.0096
   68MOL   H18525779   6.302   2.886   3.706  0.0636  2.4421 -2.0623
   68MOL   H18625780   6.515   2.929   3.709 -1.8881  0.5255  2.1131
   68MOL   H18725781   6.560   2.795   3.608  1.4079 -1.2241  1.6121
   68MOL   H18825782   6.582   2.675   3.810  0.2384 -0.7998  2.1360
   68MOL   H18925783   6.522   2.807   3.896  0.4786 -1.1175 -0.2244
   68MOL   H19025784   6.244   2.388   3.967 -1.3447 -0.4791  0.0007
   68MOL   H19125785   6.176   2.524   3.898 -0.6229  0.3351 -2.4809
   68MOL   C19225786   6.216   2.364   3.755  0.0825  0.4762 -0.5047
   68MOL   C19325787   6.063   2.331   3.760  0.1490 -0.4940 -0.3591
   68MOL   C19425788   5.969   2.452   3.726  0.2990 -0.2732 -0.5291
   68MOL   C19525789   5.831   2.415   3.785  0.3632  0.4698 -0.5969
   68MOL   C19625790   5.852   2.294   3.878  0.6293 -0.7855 -0.0287
   68MOL   C19725791   6.002   2.271   3.889  0.0344 -0.3708  0.0065
   68MOL   C19825792   6.306   2.238   3.741  0.4419  0.3501  0.7280
   68MOL   H19925793   6.221   2.424   3.664 -2.9849  0.7380 -0.5564
   68MOL   H20025794   6.043   2.259   3.680  0.9923 -0.8367 -0.2689
   68MOL   H20125795   5.960   2.477   3.620  0.3174  0.4628 -0.3549
   68MOL   H20225796   5.997   2.542   3.780 -1.2792  0.6607 -1.2222
   68MOL   H20325797   5.788   2.501   3.836 -1.8097 -0.8887 -0.0798
   68MOL   H20425798   5.759   2.376   3.714  0.0420 -0.6710  0.3218
   68MOL   H20525799   5.802   2.203   3.846  0.4160 -1.7428  2.8792
   68MOL   H20625800   5.813   2.308   3.979 -0.2899  3.2136 -0.8783
   68MOL   H20725801   6.015   2.164   3.900 -0.3755 -0.2576  1.7538
   68MOL   H20825802   6.039   2.323   3.978  0.4933  1.9390 -1.4944
   68MOL   H20925803   6.375   2.226   3.824  2.4108 -1.2078 -1.0853
   68MOL   H21025804   6.240   2.152   3.747 -1.8399  1.8512 -1.5901
   68MOL   C21125805   6.390   2.242   3.606  0.0987  0.2852 -0.1431
   68MOL   C21225806   6.526   2.164   3.605  0.2424 -0.1767  0.2639
   68MOL   C21325807   6.634   2.205   3.702  0.7013 -0.3962 -0.3495
   68MOL   C21425808   6.727   2.090   3.707 -0.1305 -0.2906  0.4365
   68MOL   C21525809   6.641   1.969   3.690 -0.1294  0.7366  0.7529
   68MOL   C21625810   6.512   2.010   3.630  0.0933 -0.0038  0.1748
   68MOL   C21725811   6.299   2.218   3.478  0.4329  0.4129 -0.2285
   68MOL   H21825812   6.427   2.345   3.608 -0.5589  0.5273 -0.3555
   68MOL   H21925813   6.568   2.157   3.505 -0.3803 -0.1801  0.0055
   68MOL   H22025814   6.659   2.308   3.678 -2.3300  0.7348  1.0559
   68MOL   H22125815   6.586   2.205   3.800  0.2158  1.0476 -0.5787
   68MOL   H22225816   6.809   2.091   3.635 -0.4651 -0.8933  0.0541
   68MOL   H22325817   6.780   2.097   3.802  0.6607 -0.0793 -0.0062
   68MOL   H22425818   6.626   1.915   3.784 -1.7125 -0.0896  0.0386
   68MOL   H22525819   6.677   1.894   3.620  1.4660  1.9788  0.2103
   68MOL   H22625820   6.478   1.965   3.537 -1.2830  1.3111  0.0302
   68MOL   H22725821   6.433   2.002   3.705 -0.3125  1.1354 -0.1230
   68MOL   H22825822   6.198   2.253   3.497  0.6034  0.3478  0.8503
   68MOL   H22925823   6.281   2.112   3.461  2.4807 -0.1742  1.0380
   68MOL   C23025824   6.353   2.272   3.348 -0.3796 -0.1238  0.0784
   68MOL   C23125825   6.339   2.425   3.352  0.5551 -0.2590  1.0103
   68MOL   C23225826   6.418   2.496   3.240  0.1315 -0.6156  0.1728
   68MOL   C23325827   6.317   2.587   3.167  0.1740 -0.0348  0.8568
   68MOL   C23425828   6.214   2.621   3.272  0.3701 -0.1006  0.1193
   68MOL   C23525829   6.198   2.481   3.329  0.1084  0.0231 -0.7682
   68MOL   C23625830   6.286   2.203   3.218 -0.4376 -0.5810  0.7979
   68MOL   H23725831   6.461   2.262   3.333 -0.7896 -2.2832 -1.7306
   68MOL   H23825832   6.371   2.483   3.440 -0.0884 -0.4098  1.3446
   68MOL   H23925833   6.512   2.541   3.273 -0.2219  0.9100 -0.8607
   68MOL   H24025834   6.449   2.420   3.168 -2.3920 -1.3762 -0.1465
   68MOL   H24125835   6.362   2.680   3.132 -0.9622  0.8358  1.6627
   68MOL   H24225836   6.277   2.530   3.083 -2.9995  2.1307  0.8391
   68MOL   H24325837   6.127   2.648   3.213  0.1270 -2.8964 -0.8746
   68MOL   H24425838   6.259   2.692   3.342  2.1449 -2.3905  1.3607
   68MOL   H24525839   6.144   2.424   3.254 -0.6614 -0.5474  0.2113
   68MOL   H24625840   6.132   2.477   3.415 -0.1622 -0.3694 -0.9950
   68MOL   H24725841   6.289   2.266   3.129 -0.2618  2.9683  3.2377
   68MOL   H24825842   6.179   2.198   3.235 -1.0663  0.3165 -2.5642
   68MOL   C24925843   6.346   2.065   3.192  0.1090 -0.0008 -0.5376
   68MOL   C25025844   6.439   2.060   3.067  0.0707  0.2137  0.8349
   68MOL   C25125845   6.505   1.926   3.033  0.2067  0.4410  0.7727
   68MOL   C25225846   6.596   1.959   2.914  0.1984 -0.0341  0.5067
   68MOL   C25325847   6.657   2.089   2.961  0.1727 -0.6948 -0.4283
   68MOL   C25425848   6.567   2.145   3.076  0.1285  0.3295  0.5146
   68MOL   C25525849   6.237   1.951   3.182  0.6041 -0.0478 -0.7366
   68MOL   H25625850   6.410   2.046   3.279 -0.3326  1.3932  0.0977
   68MOL   H25725851   6.387   2.099   2.979 -0.2340  1.7190  1.6641
   68MOL   H25825852   6.441   1.844   3.000  3.2865 -1.4058 -0.8673
   68MOL   H25925853   6.562   1.889   3.118  1.7841 -0.1808 -0.5337
   68MOL   H26025854   6.542   1.975   2.821 -0.4078 -0.9225  0.6946
   68MOL   H26125855   6.677   1.887   2.904  0.3579  0.3557 -1.2145
   68MOL   H26225856   6.682   2.159   2.881 -2.6732 -1.7498 -2.3019
   68MOL   H26325857   6.755   2.069   3.005 -0.7787 -1.7962  1.2396
   68MOL   H26425858   6.541   2.250   3.063  1.4808  0.4855 -1.1990
   68MOL   H26525859   6.612   2.124   3.173 -0.8565 -0.8105  0.7217
   68MOL   H26625860   6.171   1.981   3.101 -1.8064  0.8832  1.4639
   68MOL   H26725861   6.278   1.852   3.165 -1.0717 -1.6559  3.6960
   68MOL   C26825862   6.137   1.930   3.306  0.3222 -0.1872  0.0085
   68MOL   C26925863   6.201   1.859   3.427 -0.4447  1.1844 -0.0172
   68MOL   C27025864   6.229   1.705   3.417  0.8007 -0.3423 -0.6028
   68MOL   C27125865   6.270   1.663   3.565 -0.2120  0.3317  0.2840
   68MOL   C27225866   6.211   1.782   3.655  0.4186 -0.6557 -0.4335
   68MOL   C27325867   6.131   1.874   3.562 -0.3902  0.4116 -0.5615
   68MOL   C27425868   6.006   1.863   3.257 -0.0779  0.2144 -0.2414
   68MOL   H27525869   6.105   2.026   3.346  0.2093  0.5403 -1.8003
   68MOL   H27625870   6.298   1.907   3.446 -0.7172  1.7620 -0.0806
   68MOL   H27725871   6.139   1.650   3.390  0.6451 -0.2275 -0.3159
   68MOL   H27825872   6.307   1.690   3.342  0.0348 -1.0034 -1.2733
   68MOL   H27925873   6.225   1.568   3.592 -3.4279  1.4769 -0.7271
   68MOL   H28025874   6.378   1.662   3.577 -0.1918  0.3475  0.1117
   68MOL   H28125875   6.301   1.834   3.688  1.4938 -1.9779 -1.2411
   68MOL   H28225876   6.144   1.746   3.733 -0.6935 -0.7446 -1.4090
   68MOL   H28325877   6.121   1.980   3.588  0.7533  0.0573  1.4367
   68MOL   H28425878   6.027   1.841   3.556 -0.5417  0.8431 -0.3808
   68MOL   H28525879   5.949   1.833   3.345  0.0660 -1.2216 -0.6203
   68MOL   H28625880   6.042   1.772   3.208  0.9321 -0.6587  2.0473
   68MOL   C28725881   5.921   1.947   3.164  0.4407 -0.1478 -0.2021
   68MOL   C28825882   5.925   1.871   3.028  0.3612  0.0650 -0.1932
   68MOL   C28925883   5.857   1.734   3.029 -0.1947  0.9832  0.2012
   68MOL   C29025884   5.719   1.752   2.958 -0.3836 -0.8020  0.0327
   68MOL   C29125885   5.730   1.882   2.878  0.1939  0.4249  0.2824
   68MOL   C29225886   5.864   1.948   2.910 -0.5517 -0.2131  0.5432
   68MOL   C29325887   5.780   1.983   3.214  0.1251  0.1246  0.5975
   68MOL   H29425888   5.974   2.040   3.142  0.0708  0.2338  0.4969
   68MOL   H29525889   6.024   1.840   2.995  0.8343  0.4323  0.8436
   68MOL   H29625890   5.909   1.652   2.981 -0.5639  0.4574  0.6858
   68MOL   H29725891   5.840   1.683   3.124 -1.7147 -1.6495 -1.4393
   68MOL   H29825892   5.686   1.667   2.899 -2.2964 -1.0328  1.3665
   68MOL   H29925893   5.643   1.762   3.036  0.7870  2.8461  0.8039
   68MOL   H30025894   5.645   1.944   2.906  0.1304  0.3691  0.2138
   68MOL   H30125895   5.722   1.858   2.772 -0.0078 -0.1810  0.4301
   68MOL   H30225896   5.858   2.056   2.915 -2.1149 -0.3481  2.2103
   68MOL   H30325897   5.940   1.939   2.833 -1.4416 -1.6548 -0.2098
   68MOL   H30425898   5.716   1.895   3.215  1.4353 -0.8655 -0.9626
   68MOL   H30525899   5.733   2.038   3.132 -1.6022 -1.0215  0.7918
   68MOL   C30625900   5.764   2.068   3.342 -0.2076  0.3916  0.1884
   68MOL   C30725901   5.811   2.209   3.301  0.4165 -0.3380 -0.2243
   68MOL   C30825902   5.727   2.286   3.203  0.7285 -0.1239 -0.1201
   68MOL   C30925903   5.776   2.428   3.221 -0.1493  0.2689  0.2408
   68MOL   C31025904   5.795   2.446   3.368  0.4626  1.0302 -0.4113
   68MOL   C31125905   5.845   2.309   3.414 -0.0666 -0.4208 -0.1235
   68MOL   C31225906   5.616   2.053   3.396 -0.3741 -0.0552 -0.4785
   68MOL   H31325907   5.832   2.044   3.424  1.0345  0.3461 -0.8338
   68MOL   H31425908   5.912   2.198   3.262  1.3219  1.1962  1.6099
   68MOL   H31525909   5.626   2.272   3.240  0.9686 -1.3073  0.1262
   68MOL   H31625910   5.745   2.251   3.101  0.8627  0.9507 -0.4624
   68MOL   H31725911   5.876   2.432   3.179  0.4459 -3.2500  1.2305
   68MOL   H31825912   5.719   2.511   3.179 -0.5022 -1.0056 -1.8706
   68MOL   H31925913   5.700   2.468   3.419  0.6451  0.8305  0.0205
   68MOL   H32025914   5.873   2.515   3.398  0.1152  0.6391  1.4949
   68MOL   H32125915   5.953   2.308   3.422  0.0304  0.0383 -1.2196
   68MOL   H32225916   5.815   2.277   3.514 -0.5032 -1.4258 -0.5683
   68MOL   H32325917   5.547   2.061   3.312  1.7451 -2.4658 -2.5377
   68MOL   H32425918   5.606   2.132   3.470  4.2115  1.0512 -0.8837
   68MOL   C32525919   5.577   1.923   3.473 -0.1880 -0.1128  0.4056
   68MOL   C32625920   5.432   1.863   3.442  0.0847  0.3336 -0.0071
   68MOL   C32725921   5.411   1.819   3.296  0.2781  0.3166  0.6805
   68MOL   C32825922   5.256   1.817   3.287  0.3844 -0.0138  0.1807
   68MOL   C32925923   5.212   1.938   3.357  0.0640  0.1793  0.1855
   68MOL   C33025924   5.318   1.963   3.470  0.2832  0.9964 -0.1070
   68MOL   C33125925   5.607   1.923   3.630 -0.3225  0.1127 -0.1452
   68MOL   H33225926   5.638   1.843   3.430 -1.2464 -1.0869  0.6990
   68MOL   H33325927   5.404   1.778   3.505 -0.3809  0.8773  0.5352
   68MOL   H33425928   5.453   1.720   3.280  2.0613  0.8731  1.6962
   68MOL   H33525929   5.449   1.892   3.226  0.7427 -0.0739  0.5249
   68MOL   H33625930   5.220   1.736   3.350  1.1679  1.1117  2.0991
   68MOL   H33725931   5.222   1.801   3.185 -0.7903 -0.4919  0.6458
   68MOL   H33825932   5.120   1.918   3.412  0.8781  0.3869  1.6569
   68MOL   H33925933   5.197   2.015   3.282  1.8083  0.8385  0.4901
   68MOL   H34025934   5.257   1.971   3.560 -0.9668  0.8773 -0.9190
   68MOL   H34125935   5.354   2.065   3.465 -1.7421  1.7837  0.6708
   68MOL   H34225936   5.530   1.976   3.687 -0.5055  1.2657 -1.4327
   68MOL   H34325937   5.694   1.987   3.646 -0.5525  0.2863  0.4283
   68MOL   C34425938   5.628   1.791   3.707  0.3456 -0.1216 -0.3929
   68MOL   C34525939   5.597   1.812   3.856  0.0006 -0.1326 -0.4487
   68MOL   C34625940   5.640   1.688   3.940 -0.7423 -0.7894  0.5127
   68MOL   C34725941   5.573   1.708   4.074  0.1331  0.2735 -0.0714
   68MOL   C34825942   5.441   1.773   4.043 -0.0846  0.2767  0.6682
   68MOL   C34925943   5.453   1.825   3.898  0.6685 -0.0725 -0.1405
   68MOL   C35025944   5.774   1.743   3.677  0.2143  0.0751 -0.2095
   68MOL   H35125945   5.565   1.715   3.662  2.0301 -1.1395 -1.0657
   68MOL   H35225946   5.651   1.901   3.891 -0.6959 -0.0651  0.4808
   68MOL   H35325947   5.748   1.682   3.949 -0.5551  2.9785  1.4577
   68MOL   H35425948   5.594   1.598   3.897 -0.2793 -0.0611 -1.5497
   68MOL   H35525949   5.552   1.618   4.132 -1.5745  1.1498  0.6945
   68MOL   H35625950   5.638   1.768   4.138 -0.3648 -0.2137  0.8979
   68MOL   H35725951   5.406   1.846   4.116 -1.0905  2.4835 -1.9194
   68MOL   H35825952   5.374   1.687   4.040 -1.3119  1.2292 -0.4976
   68MOL   H35925953   5.386   1.772   3.832 -1.7264  1.5493  0.9290
   68MOL   H36025954   5.435   1.932   3.889  1.0324  0.0564  0.6253
   68MOL   H36125955   5.832   1.789   3.757 -2.9333  2.8163  0.6241
   68MOL   H36225956   5.814   1.795   3.590  3.9310 -1.7661  0.3205
   68MOL   C36325957   5.794   1.594   3.661 -0.3303 -0.6704  0.1081
   68MOL   C36425958   5.748   1.541   3.520  0.3586 -0.5410 -0.5286
   68MOL   C36525959   5.746   1.385   3.505  0.1354  0.1476 -0.3410
   68MOL   C36625960   5.745   1.370   3.354 -0.2738  0.0024  0.1307
   68MOL   C36725961   5.862   1.466   3.311  0.3949  0.5874 -1.0286
   68MOL   C36825962   5.838   1.585   3.406 -0.6219  0.7910  0.7778
   68MOL   C36925963   5.938   1.557   3.702 -1.0713 -0.1226  0.1103
   68MOL   H37025964   5.725   1.551   3.734 -0.0801  0.9488  1.3176
   68MOL   H37125965   5.655   1.590   3.489  1.0267  0.2744 -1.2536
   68MOL   H37225966   5.828   1.330   3.551 -1.0761 -1.0654  0.4078
   68MOL   H37325967   5.655   1.335   3.540  0.9220 -1.6329 -0.8019
   68MOL   H37425968   5.742   1.266   3.324 -1.8651 -0.0727  0.4935
   68MOL   H37525969   5.646   1.408   3.328  1.8198  2.9876 -3.9977
   68MOL   H37625970   5.961   1.425   3.327 -0.4082 -0.2148  2.1265
   68MOL   H37725971   5.852   1.486   3.204 -1.8008  2.4297 -0.5244
   68MOL   H37825972   5.801   1.666   3.343 -1.6562 -1.2172 -1.2741
   68MOL   H37925973   5.936   1.618   3.440 -0.4861  2.4750 -1.1188
   68MOL   H38025974   5.962   1.453   3.678  0.4439 -0.0090  1.1316
   68MOL   H38125975   5.948   1.572   3.809  0.3075 -1.6453  0.2174
   68MOL   H38225976   6.003   1.618   3.640 -1.1131  0.7391  0.9099
   69MOL     C125977   2.665   2.838   4.552  0.0814 -0.2579  0.7972
   69MOL     C225978   2.768   2.809   4.437  0.1371  0.6793 -0.5251
   69MOL     C325979   2.848   2.930   4.391  0.2988  0.6377  0.0133
   69MOL     C425980   2.876   2.896   4.245 -0.2119 -0.2481  0.2292
   69MOL     C525981   2.823   2.753   4.210  0.6606  0.0897 -0.1520
   69MOL     C625982   2.713   2.741   4.319  0.3408  0.9064  0.1301
   69MOL     C725983   2.731   2.852   4.682  0.2189  0.0174 -0.4799
   69MOL     H825984   2.604   2.925   4.527  1.3790  0.3286 -0.4585
   69MOL     H925985   2.831   2.732   4.483  0.1705  0.9718 -0.0731
   69MOL    H1025986   2.803   3.029   4.405  1.0695  1.0326 -0.2924
   69MOL    H1125987   2.939   2.935   4.451  0.4705  1.2778 -0.2967
   69MOL    H1225988   2.832   2.976   4.185  0.7714  1.8326  2.1957
   69MOL    H1325989   2.983   2.905   4.229  0.1489 -0.7408  2.2412
   69MOL    H1425990   2.794   2.743   4.106 -2.7282  3.1805  0.3981
   69MOL    H1525991   2.907   2.685   4.224  2.0828  1.5263 -1.4985
   69MOL    H1625992   2.689   2.637   4.342 -0.4721  1.0536 -0.0552
   69MOL    H1725993   2.629   2.801   4.284  1.6038  0.1724 -4.3910
   69MOL    H1825994   2.787   2.763   4.713 -1.4745 -0.8114  0.2368
   69MOL    H1925995   2.805   2.931   4.669  0.0222  0.3187  0.2169
   69MOL    H2025996   2.588   2.761   4.547 -0.0949 -0.2572  3.1391
   69MOL    C2125997   2.630   2.890   4.796  0.2082 -0.9063  0.1054
   69MOL    C2225998   2.582   3.036   4.777 -0.6564  0.7499  0.0539
   69MOL    C2325999   2.688   3.146   4.773 -0.4360 -0.3085  0.5621
   69MOL    C2426000   2.613   3.278   4.802  0.4810 -0.3475  0.4950
   69MOL    C2526001   2.470   3.236   4.842  0.4299  0.6342  0.2028
   69MOL    C2626002   2.482   3.090   4.880 -0.0399  0.5615  0.5074
   69MOL    C2726003   2.516   2.788   4.835 -0.1107 -0.2085 -0.1118
   69MOL    H2826004   2.689   2.897   4.887  2.0801 -2.5674 -0.9563
   69MOL    H2926005   2.530   3.035   4.681  0.7533  0.2010 -0.7240
   69MOL    H3026006   2.728   3.141   4.672  0.1240 -1.2869  0.8246
   69MOL    H3126007   2.772   3.132   4.842  2.5993  1.7421 -2.5873
   69MOL    H3226008   2.672   3.337   4.872  0.8148 -0.7213  0.5324
   69MOL    H3326009   2.608   3.330   4.707  0.1065 -0.9504  0.1805
   69MOL    H3426010   2.401   3.244   4.758 -0.0723  0.3340  0.5871
   69MOL    H3526011   2.419   3.286   4.925  2.3765 -0.4725  2.1061
   69MOL    H3626012   2.388   3.038   4.863  1.5831 -1.7790 -1.5660
   69MOL    H3726013   2.516   3.067   4.982 -0.3795 -5.1695 -0.5106
   69MOL    H3826014   2.468   2.817   4.928 -1.3867 -1.5802 -0.3227
   69MOL    H3926015   2.440   2.801   4.758  1.4466  1.3265 -1.4156
   69MOL    C4026016   2.555   2.636   4.842 -0.4159  0.0083  0.7362
   69MOL    C4126017   2.660   2.601   4.945 -0.1773 -0.2198  0.4636
   69MOL    C4226018   2.725   2.456   4.930  0.5026  0.0940 -0.1201
   69MOL    C4326019   2.728   2.391   5.069 -0.4962 -0.2924 -0.1483
   69MOL    C4426020   2.608   2.464   5.147  0.0861 -0.1537 -0.1936
   69MOL    C4526021   2.598   2.605   5.091  0.3647  0.1718  0.0656
   69MOL    C4626022   2.427   2.546   4.845  0.0391 -0.1956 -0.4194
   69MOL    H4726023   2.596   2.611   4.744  1.5101  1.9331  1.0131
   69MOL    H4826024   2.740   2.675   4.942  0.4288 -0.8712  0.4845
   69MOL    H4926025   2.816   2.450   4.872  0.1930  1.0430 -0.7128
   69MOL    H5026026   2.644   2.398   4.886 -0.1698  1.0151 -0.1247
   69MOL    H5126027   2.820   2.409   5.124  0.3987 -4.2460 -0.1802
   69MOL    H5226028   2.710   2.283   5.072 -1.0001 -0.1827  0.9321
   69MOL    H5326029   2.514   2.408   5.144 -0.2144  0.2800  1.0220
   69MOL    H5426030   2.649   2.470   5.247 -1.7750  3.2420  0.4571
   69MOL    H5526031   2.495   2.640   5.090  0.0201 -0.8435 -0.3455
   69MOL    H5626032   2.653   2.680   5.148  0.7577  0.6681 -0.9411
   69MOL    H5726033   2.448   2.449   4.892  1.3224  0.8686  1.2442
   69MOL    H5826034   2.358   2.590   4.917  0.3833  2.6702 -1.7664
   69MOL    C5926035   2.367   2.531   4.703  0.1442  1.3940 -0.1610
   69MOL    C6026036   2.444   2.419   4.621  0.4761  0.1579 -0.7639
   69MOL    C6126037   2.415   2.404   4.470  0.4806 -0.3512  0.2898
   69MOL    C6226038   2.441   2.262   4.431  0.0759  0.4353  0.1577
   69MOL    C6326039   2.408   2.182   4.554 -0.2699 -0.6436 -0.4631
   69MOL    C6426040   2.419   2.275   4.675  0.3167  0.0865 -0.0131
   69MOL    C6526041   2.220   2.506   4.712 -0.0111  0.4970 -0.3254
   69MOL    H6626042   2.381   2.619   4.640  0.6114  1.5620  0.1735
   69MOL    H6726043   2.551   2.438   4.630  0.7489 -1.7492  0.3940
   69MOL    H6826044   2.478   2.477   4.421  0.5994  0.2820  1.3593
   69MOL    H6926045   2.310   2.431   4.465  0.7417  0.6641  0.1511
   69MOL    H7026046   2.544   2.255   4.398  0.5422 -3.3352  2.1653
   69MOL    H7126047   2.382   2.227   4.345 -2.9785  2.0401  1.5250
   69MOL    H7226048   2.481   2.103   4.563 -0.6039 -1.0136 -0.9558
   69MOL    H7326049   2.311   2.133   4.540 -0.8535 -0.1017  1.5194
   69MOL    H7426050   2.330   2.267   4.737  0.9648  1.4168  1.1342
   69MOL    H7526051   2.509   2.242   4.729  0.2739 -0.1524 -0.0872
   69MOL    H7626052   2.205   2.440   4.797 -0.9377  0.3575 -0.5876
   69MOL    H7726053   2.191   2.448   4.625  2.8733 -1.3904 -0.0700
   69MOL    C7826054   2.137   2.637   4.736  0.0875 -0.3589 -0.4480
   69MOL    C7926055   2.157   2.750   4.629  0.0302 -1.0038  0.1448
   69MOL    C8026056   2.118   2.899   4.658  0.6246  0.0888  0.1524
   69MOL    C8126057   2.101   2.976   4.520  1.1063  0.0372  0.5340
   69MOL    C8226058   2.126   2.858   4.412 -0.5658 -0.6476 -0.4020
   69MOL    C8326059   2.089   2.724   4.488 -0.0930 -0.2288  0.3164
   69MOL    C8426060   1.987   2.609   4.752 -0.3823 -0.4581  0.5814
   69MOL    H8526061   2.177   2.685   4.825  1.5192  1.3960 -1.9852
   69MOL    H8626062   2.261   2.775   4.607  0.1343  1.1074  2.8576
   69MOL    H8726063   2.203   2.940   4.713  0.9923 -0.2682 -0.1426
   69MOL    H8826064   2.029   2.909   4.719  0.4783 -2.1784  0.3388
   69MOL    H8926065   2.173   3.056   4.503 -0.3355  0.7050 -2.9267
   69MOL    H9026066   2.002   3.021   4.507  2.1108  2.0679 -0.3467
   69MOL    H9126067   2.064   2.867   4.323 -0.3891 -0.6663 -0.5269
   69MOL    H9226068   2.233   2.856   4.388 -0.5762  0.8165 -0.6034
   69MOL    H9326069   1.982   2.707   4.493 -0.3494  1.7113  2.0066
   69MOL    H9426070   2.126   2.630   4.447 -0.6691  0.3036 -1.4641
   69MOL    H9526071   1.968   2.552   4.662 -0.1945 -0.0163  0.2601
   69MOL    H9626072   1.922   2.696   4.741  1.4456  0.9927  0.9409
   69MOL    C9726073   1.943   2.518   4.863 -0.4380  0.0480  0.2223
   69MOL    C9826074   1.797   2.460   4.837  0.6145  0.5284 -0.0709
   69MOL    C9926075   1.682   2.553   4.801 -0.2178  1.2832  0.0155
   69MOL   C10026076   1.596   2.491   4.691 -0.3762 -0.7413  0.4554
   69MOL   C10126077   1.703   2.413   4.615 -0.0177  0.8820 -0.3339
   69MOL   C10226078   1.801   2.359   4.720  0.1240 -0.3894  0.2287
   69MOL   C10326079   1.945   2.591   5.000  0.4808  0.4745 -0.7350
   69MOL   H10426080   2.011   2.433   4.876  0.0275  0.3658 -0.1008
   69MOL   H10526081   1.778   2.404   4.928  0.4576  1.6308  0.5889
   69MOL   H10626082   1.619   2.588   4.883 -0.2876  0.1580  0.4571
   69MOL   H10726083   1.723   2.644   4.758  2.5771 -1.1790 -2.7557
   69MOL   H10826084   1.547   2.564   4.627  0.4747 -0.7661 -0.2308
   69MOL   H10926085   1.519   2.429   4.739 -1.4932 -0.5466 -1.0780
   69MOL   H11026086   1.759   2.472   4.543  3.5781 -0.1843  1.4962
   69MOL   H11126087   1.670   2.333   4.548  0.7406 -1.0881  1.5836
   69MOL   H11226088   1.771   2.257   4.746  0.6648 -0.4914  0.4423
   69MOL   H11326089   1.905   2.345   4.690  0.4137  2.4798 -0.2702
   69MOL   H11426090   2.027   2.660   5.016 -0.5724  1.4722  0.4116
   69MOL   H11526091   1.856   2.654   5.000  1.5556  2.0205 -0.7832
   69MOL   C11626092   1.937   2.512   5.132 -0.1710  0.0389  0.0974
   69MOL   C11726093   2.072   2.443   5.166 -1.1186  0.3856  0.3265
   69MOL   C11826094   2.191   2.534   5.220 -0.1971  0.5859 -0.3894
   69MOL   C11926095   2.263   2.459   5.325 -0.7809 -0.2010 -0.2927
   69MOL   C12026096   2.172   2.339   5.366 -0.5281 -0.1116 -0.2694
   69MOL   C12126097   2.066   2.328   5.267  0.2269  0.2398  0.5399
   69MOL   C12226098   1.881   2.608   5.243  0.5672 -0.2520 -0.0909
   69MOL   H12326099   1.854   2.443   5.117  0.0768 -1.3102  4.2385
   69MOL   H12426100   2.118   2.400   5.077  1.1996  1.4075  0.9736
   69MOL   H12526101   2.250   2.563   5.133  0.4188 -0.8699 -0.4780
   69MOL   H12626102   2.153   2.626   5.264  1.5734 -0.1994  2.9951
   69MOL   H12726103   2.288   2.524   5.409  0.0080 -0.3375 -0.4217
   69MOL   H12826104   2.353   2.420   5.277 -0.8685  1.9203 -2.2575
   69MOL   H12926105   2.126   2.358   5.463  0.5792  2.4338 -0.2124
   69MOL   H13026106   2.227   2.245   5.372  2.0643  1.2080 -2.2159
   69MOL   H13126107   2.069   2.235   5.209 -1.1608  0.3473  0.2874
   69MOL   H13226108   1.978   2.330   5.330  0.7846 -1.9445  1.4317
   69MOL   H13326109   1.922   2.709   5.239 -0.0800 -0.0093 -0.7889
   69MOL   H13426110   1.934   2.585   5.335  1.8987  1.5181 -0.3990
   69MOL   C13526111   1.727   2.606   5.260  0.4256 -0.6922 -0.4978
   69MOL   C13626112   1.678   2.748   5.297 -0.9412 -0.1095 -0.4091
   69MOL   C13726113   1.683   2.861   5.192  0.5677 -0.7444  0.1699
   69MOL   C13826114   1.668   2.983   5.275  0.1887  0.1076 -0.3009
   69MOL   C13926115   1.752   2.967   5.398 -0.0461  0.0758  0.1775
   69MOL   C14026116   1.747   2.813   5.424 -0.2730  0.4327  0.1298
   69MOL   C14126117   1.682   2.494   5.353 -0.3504 -0.6044  0.0857
   69MOL   H14226118   1.684   2.571   5.166 -0.9811  0.7363 -0.4166
   69MOL   H14326119   1.573   2.739   5.325 -0.8820 -0.5165 -0.3216
   69MOL   H14426120   1.777   2.867   5.139 -0.1447  0.1753 -1.0165
   69MOL   H14526121   1.603   2.849   5.119  1.7890  0.5762 -1.4066
   69MOL   H14626122   1.566   2.990   5.312 -0.3067  0.8398 -1.7873
   69MOL   H14726123   1.688   3.070   5.212  0.2028 -0.3599 -0.9443
   69MOL   H14826124   1.714   3.027   5.481  2.5774  0.6861  0.9768
   69MOL   H14926125   1.855   2.998   5.377 -1.1420  2.1794 -2.4012
   69MOL   H15026126   1.850   2.778   5.431 -0.5697 -0.2221  1.3456
   69MOL   H15126127   1.699   2.783   5.517  0.5251  0.6122  0.6040
   69MOL   H15226128   1.681   2.517   5.460  0.4567 -1.3198  0.2531
   69MOL   H15326129   1.764   2.423   5.350  0.1510 -0.0733  0.7398
   69MOL   C15426130   1.548   2.421   5.329  0.2406  0.0562  0.0891
   69MOL   C15526131   1.576   2.310   5.226 -0.2668 -0.2436  0.2478
   69MOL   C15626132   1.449   2.250   5.167  0.6150 -0.6081 -0.1773
   69MOL   C15726133   1.467   2.100   5.167  0.2119  0.0256  0.2450
   69MOL   C15826134   1.616   2.069   5.207 -0.4377 -0.9196  0.1446
   69MOL   C15926135   1.671   2.196   5.259  0.4296  0.3302 -0.0028
   69MOL   C16026136   1.489   2.357   5.459  0.6850  0.5912  0.0907
   69MOL   H16126137   1.476   2.495   5.296  2.2298  2.8295  1.6878
   69MOL   H16226138   1.622   2.363   5.143 -1.7700  0.9368  0.1349
   69MOL   H16326139   1.362   2.274   5.228  0.6445 -0.8177 -0.0509
   69MOL   H16426140   1.432   2.290   5.067 -0.3610  1.7054  0.8931
   69MOL   H16526141   1.404   2.052   5.242  0.4167 -0.6452 -0.0086
   69MOL   H16626142   1.437   2.045   5.077 -0.1418 -0.9108  0.9286
   69MOL   H16726143   1.671   2.036   5.118 -0.4734  2.9569 -1.4020
   69MOL   H16826144   1.616   1.986   5.279 -1.4907 -1.0676 -0.0211
   69MOL   H16926145   1.769   2.215   5.215  1.4529 -0.0297  2.0541
   69MOL   H17026146   1.686   2.206   5.367 -0.0494  1.9040 -0.0682
   69MOL   H17126147   1.578   2.321   5.511  0.9146 -2.7526 -2.4246
   69MOL   H17226148   1.428   2.270   5.435  0.6692  1.1012 -1.7756
   69MOL   C17326149   1.401   2.438   5.551  0.8992 -0.0339 -0.8339
   69MOL   C17426150   1.409   2.397   5.708 -0.3992 -0.1798  0.3760
   69MOL   C17526151   1.534   2.446   5.779 -0.2376  0.3502 -0.1187
   69MOL   C17626152   1.556   2.349   5.895  0.0838 -0.9904  0.5556
   69MOL   C17726153   1.441   2.248   5.881 -0.1671 -0.4444 -0.7816
   69MOL   C17826154   1.395   2.246   5.740 -0.9428 -0.1701  0.3050
   69MOL   C17926155   1.258   2.430   5.504 -0.2449 -0.0207 -0.7894
   69MOL   H18026156   1.435   2.542   5.551 -2.3990  1.1549  2.4777
   69MOL   H18126157   1.327   2.452   5.753  0.5197 -1.5760  3.9358
   69MOL   H18226158   1.533   2.553   5.799  1.1474 -0.1322  2.7977
   69MOL   H18326159   1.614   2.430   5.708 -1.6602  0.5233 -1.7880
   69MOL   H18426160   1.654   2.302   5.890  0.2735 -0.6064  0.6343
   69MOL   H18526161   1.570   2.393   5.993 -1.4069  1.0128 -0.1066
   69MOL   H18626162   1.359   2.261   5.952 -0.0888 -1.4695 -0.4945
   69MOL   H18726163   1.482   2.150   5.907 -0.8200 -0.9396 -1.5923
   69MOL   H18826164   1.467   2.185   5.686 -1.2970 -1.1568  0.9350
   69MOL   H18926165   1.292   2.211   5.739 -0.6592 -1.1097  1.9930
   69MOL   H19026166   1.253   2.441   5.396  3.3227  0.8915 -0.9047
   69MOL   H19126167   1.230   2.328   5.531  2.9578 -0.1752  2.2551
   69MOL   C19226168   1.153   2.530   5.555  0.1639 -0.0126  0.4704
   69MOL   C19326169   1.014   2.494   5.495  0.1174 -0.1784  0.8267
   69MOL   C19426170   0.995   2.503   5.344 -0.1516 -0.1286  0.0192
   69MOL   C19526171   0.840   2.499   5.322 -0.7380  0.1845  0.0074
   69MOL   C19626172   0.778   2.537   5.453 -0.5475  0.0460 -0.2323
   69MOL   C19726173   0.889   2.562   5.559 -1.2813  0.4228  0.3990
   69MOL   C19826174   1.196   2.672   5.520  0.3636  0.3866 -0.1019
   69MOL   H19926175   1.149   2.513   5.662 -2.9300  1.3408  0.6370
   69MOL   H20026176   0.991   2.388   5.505 -0.0452 -0.1216  1.0537
   69MOL   H20126177   1.051   2.429   5.286 -0.8002 -0.1349 -0.6007
   69MOL   H20226178   1.032   2.599   5.309 -1.3175  0.6677  0.9330
   69MOL   H20326179   0.800   2.564   5.244  2.0683  2.7139  0.6049
   69MOL   H20426180   0.810   2.395   5.308  0.3064 -0.1285  0.0380
   69MOL   H20526181   0.704   2.462   5.483  0.6437 -1.2610 -0.5106
   69MOL   H20626182   0.707   2.620   5.451 -0.3343  0.2419  0.2343
   69MOL   H20726183   0.867   2.514   5.654  2.8423  1.3483  1.9364
   69MOL   H20826184   0.905   2.669   5.574  1.0125  0.2878 -0.8061
   69MOL   H20926185   1.259   2.662   5.431  1.5339  0.2616  0.7329
   69MOL   H21026186   1.112   2.732   5.485  0.4884  0.6883  0.1136
   69MOL   C21126187   1.266   2.748   5.630 -0.2226 -0.8769  0.4546
   69MOL   C21226188   1.373   2.848   5.570 -0.1191 -0.8912 -0.5324
   69MOL   C21326189   1.317   2.977   5.498 -0.0128 -0.0704 -1.0044
   69MOL   C21426190   1.323   3.096   5.596 -0.5603 -0.7181  0.1546
   69MOL   C21526191   1.444   3.068   5.686  0.2225  0.2887 -0.2292
   69MOL   C21626192   1.468   2.911   5.674 -0.1190  0.3953  0.6817
   69MOL   C21726193   1.167   2.825   5.723 -0.0003 -0.6715  0.5150
   69MOL   H21826194   1.331   2.684   5.690 -0.6151  0.6453  2.5831
   69MOL   H21926195   1.432   2.803   5.490 -0.0794 -0.9650 -0.4621
   69MOL   H22026196   1.377   3.006   5.412  1.6855  0.2119  0.2350
   69MOL   H22126197   1.214   2.959   5.468 -0.3001 -0.0321 -0.0714
   69MOL   H22226198   1.341   3.183   5.534  1.6235 -0.1889  1.4516
   69MOL   H22326199   1.232   3.107   5.654 -0.1198 -3.6844  1.5279
   69MOL   H22426200   1.409   3.086   5.788  1.1665 -0.2265  0.1860
   69MOL   H22526201   1.538   3.117   5.664  0.4420 -0.3032 -0.6021
   69MOL   H22626202   1.570   2.903   5.637 -1.0285 -0.9773 -1.6062
   69MOL   H22726203   1.473   2.851   5.765  0.9720 -0.0729  0.3129
   69MOL   H22826204   1.095   2.886   5.668 -1.4461 -1.8758  1.0465
   69MOL   H22926205   1.225   2.903   5.773  2.2364 -0.6196 -2.0277
   69MOL   C23026206   1.089   2.746   5.828  0.7201  0.4165  0.3295
   69MOL   C23126207   0.982   2.836   5.901 -0.1299 -1.4452  0.4834
   69MOL   C23226208   1.027   2.964   5.967 -1.0296 -0.0247 -0.1435
   69MOL   C23326209   0.895   3.033   6.002 -0.6204  0.1786  0.1699
   69MOL   C23426210   0.782   2.976   5.906 -1.1075 -0.1539  0.6193
   69MOL   C23526211   0.853   2.876   5.818  0.2190 -0.2579 -0.3577
   69MOL   C23626212   1.182   2.674   5.925  0.0499 -0.4884  0.0266
   69MOL   H23726213   1.032   2.671   5.773  2.3179 -0.1451 -0.5833
   69MOL   H23826214   0.950   2.779   5.989  1.3903  0.0919  2.0876
   69MOL   H23926215   1.079   2.947   6.061 -0.3581 -0.0178 -0.5105
   69MOL   H24026216   1.080   3.043   5.915  2.5661 -1.9102  0.5398
   69MOL   H24126217   0.879   3.009   6.108 -2.5439  1.4686  0.1881
   69MOL   H24226218   0.912   3.139   5.986  0.1625 -0.2330 -1.8389
   69MOL   H24326219   0.745   3.062   5.850  1.1063  0.2508 -0.2646
   69MOL   H24426220   0.708   2.925   5.968 -0.8396 -1.1020  0.1596
   69MOL   H24526221   0.882   2.923   5.724  0.0281 -0.1038 -0.3418
   69MOL   H24626222   0.789   2.795   5.784 -0.9369  0.9960 -1.2259
   69MOL   H24726223   1.253   2.749   5.960  1.6083 -1.1349 -1.6575
   69MOL   H24826224   1.250   2.609   5.870 -0.6659 -1.5342  0.3545
   69MOL   C24926225   1.126   2.567   6.018  0.0856  0.7605  0.8147
   69MOL   C25026226   1.235   2.510   6.121  0.2057 -0.1057 -0.5028
   69MOL   C25126227   1.185   2.427   6.239  0.2750 -0.2654 -0.4254
   69MOL   C25226228   1.311   2.412   6.322 -0.1140  0.0748 -0.1750
   69MOL   C25326229   1.400   2.538   6.296 -0.1132  0.2185  0.6080
   69MOL   C25426230   1.342   2.609   6.173 -1.1134  0.1291 -0.2343
   69MOL   C25526231   1.053   2.448   5.950 -1.0652 -0.1853  0.3171
   69MOL   H25626232   1.047   2.615   6.076 -2.3764  1.2074 -2.7800
   69MOL   H25726233   1.288   2.432   6.067  0.9602 -1.3297  1.9286
   69MOL   H25826234   1.145   2.333   6.199 -0.4137  0.4008 -1.3129
   69MOL   H25926235   1.107   2.484   6.288  1.3388  1.3991 -0.6448
   69MOL   H26026236   1.373   2.328   6.291  0.8667  0.3966  0.8663
   69MOL   H26126237   1.297   2.398   6.429  2.0497  3.8496  0.6771
   69MOL   H26226238   1.507   2.520   6.281 -0.5044 -1.0216 -0.8333
   69MOL   H26326239   1.400   2.605   6.382  2.3452  3.2506 -1.6087
   69MOL   H26426240   1.423   2.636   6.106  0.2880 -0.2606  1.2479
   69MOL   H26526241   1.309   2.710   6.195  0.3197  0.5626 -0.0366
   69MOL   H26626242   1.014   2.466   5.850  0.9094 -1.3772 -0.7043
   69MOL   H26726243   1.119   2.362   5.936  0.2879  1.0053 -0.8117
   69MOL   C26826244   0.938   2.386   6.022  0.9048  0.5455 -0.1346
   69MOL   C26926245   0.909   2.231   5.991  0.2777 -0.2881 -0.3647
   69MOL   C27026246   1.006   2.128   6.051 -0.4570 -0.2384  0.0138
   69MOL   C27126247   0.962   2.002   5.972  0.3056  0.0669  0.2707
   69MOL   C27226248   0.940   2.048   5.830 -0.4432  0.1157 -0.0541
   69MOL   C27326249   0.887   2.192   5.843 -0.2250  0.2554 -0.0527
   69MOL   C27426250   0.810   2.473   5.984  0.9727 -0.3329  0.0975
   69MOL   H27526251   0.946   2.399   6.130 -0.0916 -3.6853  0.5178
   69MOL   H27626252   0.813   2.206   6.038  2.4717 -1.1756  3.9293
   69MOL   H27726253   1.104   2.165   6.021 -0.7291  0.0078 -0.6028
   69MOL   H27826254   1.013   2.111   6.158 -0.1433 -1.2375 -0.1548
   69MOL   H27926255   1.035   1.921   5.978  0.8511  0.5521  0.1692
   69MOL   H28026256   0.874   1.965   6.024 -0.4154  0.3606 -0.7206
   69MOL   H28126257   0.873   1.981   5.777 -0.0345  0.7844 -1.4530
   69MOL   H28226258   1.045   2.046   5.800  0.1280  1.5109  1.7702
   69MOL   H28326259   0.781   2.180   5.820  0.1879 -2.8937 -0.6163
   69MOL   H28426260   0.941   2.268   5.787  2.4570 -2.2060 -0.9055
   69MOL   H28526261   0.775   2.438   5.887 -0.7913  1.0324  0.2288
   69MOL   H28626262   0.838   2.576   5.963  0.5910 -0.4720 -1.1003
   69MOL   C28726263   0.693   2.470   6.080  0.3325 -0.0171 -0.3055
   69MOL   C28826264   0.657   2.621   6.140  0.1048  0.3919  0.5097
   69MOL   C28926265   0.549   2.627   6.255  0.5538  0.5441  0.4660
   69MOL   C29026266   0.570   2.763   6.319 -0.3754  0.1054 -0.0963
   69MOL   C29126267   0.724   2.801   6.298 -0.1211 -0.3784 -0.4576
   69MOL   C29226268   0.773   2.676   6.225 -0.2121  0.2606 -0.0685
   69MOL   C29326269   0.568   2.413   6.005 -0.5682 -0.9920  0.1756
   69MOL   H29426270   0.718   2.408   6.166  0.1950  1.3763  0.7562
   69MOL   H29526271   0.627   2.693   6.064  0.1587  0.7262  0.8031
   69MOL   H29626272   0.446   2.620   6.219  0.6046 -1.5585  0.6955
   69MOL   H29726273   0.569   2.557   6.336 -0.9382  1.2125  1.4352
   69MOL   H29826274   0.506   2.843   6.280  0.5563  0.9874  0.1829
   69MOL   H29926275   0.572   2.758   6.427 -1.5234  2.1642  0.0345
   69MOL   H30026276   0.784   2.829   6.384 -0.4108 -0.1262 -0.3389
   69MOL   H30126277   0.718   2.887   6.232 -1.3032 -1.4379 -1.7703
   69MOL   H30226278   0.801   2.598   6.296 -1.7147  0.0597  0.3163
   69MOL   H30326279   0.866   2.700   6.173 -0.7501 -0.1831 -1.2652
   69MOL   H30426280   0.597   2.345   5.925  0.5145 -0.4068  0.0643
   69MOL   H30526281   0.534   2.496   5.944 -0.5718  0.7475  2.5005
   69MOL   C30626282   0.460   2.336   6.088  0.0438  0.5759 -0.2862
   69MOL   C30726283   0.313   2.338   6.036 -0.5052  0.8758  0.0985
   69MOL   C30826284   0.257   2.478   6.014  0.2732 -0.4619  0.2172
   69MOL   C30926285   0.142   2.462   5.915  0.5195  0.6295  0.3564
   69MOL   C31026286   0.169   2.340   5.829 -0.3876  0.0103 -0.3124
   69MOL   C31126287   0.293   2.279   5.893 -0.5219 -0.2587 -0.1861
   69MOL   C31226288   0.502   2.187   6.117  0.2996 -0.6220 -0.2033
   69MOL   H31326289   0.455   2.392   6.181 -0.0675  1.3460 -0.7488
   69MOL   H31426290   0.248   2.272   6.093 -0.0078  1.3210  1.1836
   69MOL   H31526291   0.323   2.556   5.976 -1.1360 -0.1270 -1.6034
   69MOL   H31626292   0.210   2.502   6.109 -0.3920  1.9647 -0.7091
   69MOL   H31726293   0.050   2.446   5.972 -0.7327  0.1809 -1.7526
   69MOL   H31826294   0.128   2.554   5.858  2.3229  0.3809 -0.5002
   69MOL   H31926295   0.191   2.382   5.731  0.5358  1.3116  0.4374
   69MOL   H32026296   0.082   2.275   5.818 -0.9245  0.8772 -1.2893
   69MOL   H32126297   0.303   2.172   5.876 -2.2026 -0.6101  0.9498
   69MOL   H32226298   0.381   2.301   5.832 -2.0320  1.7240 -1.6938
   69MOL   H32326299   0.602   2.167   6.079  0.9969  0.8021  0.8101
   69MOL   H32426300   0.441   2.130   6.047 -1.9234  1.6303 -0.1856
   69MOL   C32526301   0.481   2.147   6.263 -0.1935  0.0582  0.5984
   69MOL   C32626302   0.594   2.200   6.353 -0.5913  0.3433 -0.3328
   69MOL   C32726303   0.728   2.139   6.329 -0.5780  0.1143 -0.3226
   69MOL   C32826304   0.802   2.176   6.454 -0.1844 -0.2432 -0.8844
   69MOL   C32926305   0.699   2.152   6.565  0.2613 -0.0874 -0.2145
   69MOL   C33026306   0.568   2.193   6.506 -0.6977 -0.2835 -0.6152
   69MOL   C33126307   0.466   1.992   6.273 -0.3677 -0.7308 -0.6275
   69MOL   H33226308   0.398   2.202   6.308  0.1862 -0.9956  2.6415
   69MOL   H33326309   0.607   2.306   6.334  0.4776  0.5234  1.3274
   69MOL   H33426310   0.770   2.186   6.239  2.2727 -2.4441 -0.4091
   69MOL   H33526311   0.716   2.032   6.310  1.4985 -0.0549 -0.7578
   69MOL   H33626312   0.841   2.278   6.446  0.7446 -0.5079  0.1571
   69MOL   H33726313   0.879   2.103   6.481 -0.9644 -1.4922 -1.9786
   69MOL   H33826314   0.716   2.207   6.657  1.9582 -0.8572 -0.0417
   69MOL   H33926315   0.698   2.044   6.580  1.2458  0.0401  0.8451
   69MOL   H34026316   0.538   2.296   6.528  0.8373 -0.1191  0.8657
   69MOL   H34126317   0.493   2.121   6.539  0.2621 -0.0739  2.1752
   69MOL   H34226318   0.492   1.954   6.372 -1.5499  0.3825  0.1199
   69MOL   H34326319   0.548   1.951   6.214 -0.9157 -3.1451  0.2640
   69MOL   C34426320   0.329   1.948   6.218  1.0405 -0.4199 -0.3648
   69MOL   C34526321   0.212   2.004   6.304 -0.5682  0.2103 -0.1252
   69MOL   C34626322   0.218   1.950   6.444 -0.2559 -0.1869 -0.3884
   69MOL   C34726323   0.074   1.984   6.493 -0.3189  0.1264 -1.4048
   69MOL   C34826324   7.677   2.014   6.381 -0.1742 -0.3468  0.3354
   69MOL   C34926325   0.067   1.985   6.258 -0.0599  0.2613  0.0572
   69MOL   C35026326   0.319   1.789   6.196 -0.3921 -1.2627 -0.6665
   69MOL   H35126327   0.313   1.992   6.119  0.5142  1.4084  0.5089
   69MOL   H35226328   0.222   2.113   6.312 -1.8753  0.3365  0.0069
   69MOL   H35326329   0.302   1.989   6.502  1.7267 -1.7697 -2.0891
   69MOL   H35426330   0.217   1.842   6.432  0.6946 -0.3991  1.2831
   69MOL   H35526331   0.037   1.901   6.553  1.1789  0.3942 -0.0777
   69MOL   H35626332   0.075   2.075   6.553 -0.5347 -1.6860  1.4398
   69MOL   H35726333   7.662   2.122   6.378  0.2155 -0.2935  0.2638
   69MOL   H35826334   7.575   1.974   6.380 -0.0091 -0.7593  0.1193
   69MOL   H35926335   0.045   1.883   6.227 -1.8425 -0.0394  2.1914
   69MOL   H36026336   0.034   2.057   6.183  1.1068  2.0926  1.2635
   69MOL   H36126337   0.214   1.760   6.204 -0.4357 -0.8516  0.3178
   69MOL   H36226338   0.369   1.747   6.284 -1.3478 -3.8042 -1.2784
   69MOL   C36326339   0.405   1.733   6.069 -0.3147  0.5135  0.8579
   69MOL   C36426340   0.422   1.580   6.062 -0.3176 -0.7623 -0.2015
   69MOL   C36526341   0.290   1.504   6.048  1.1316 -0.6352 -0.2390
   69MOL   C36626342   0.302   1.366   6.105 -0.1176 -0.4495  0.3291
   69MOL   C36726343   0.446   1.361   6.160  0.8669  0.5103 -0.3635
   69MOL   C36826344   0.480   1.507   6.183 -0.2885 -0.2852 -0.2699
   69MOL   C36926345   0.363   1.790   5.938 -0.2556 -0.5506  1.1189
   69MOL   H37026346   0.507   1.767   6.089  1.5401 -3.5530 -1.0535
   69MOL   H37126347   0.475   1.544   5.974  0.4734 -0.3086  0.0850
   69MOL   H37226348   0.202   1.552   6.090  1.0326 -0.8218 -0.2320
   69MOL   H37326349   0.274   1.513   5.940  1.0309  1.6833 -0.0504
   69MOL   H37426350   0.226   1.343   6.179 -0.1686 -1.1813  0.0498
   69MOL   H37526351   0.288   1.298   6.021 -0.0278 -0.5356  0.3842
   69MOL   H37626352   0.461   1.296   6.246  2.6040 -0.8839 -1.6896
   69MOL   H37726353   0.518   1.328   6.085  0.0219 -2.6428  0.1644
   69MOL   H37826354   0.587   1.527   6.188 -0.5232  0.8269  0.6006
   69MOL   H37926355   0.425   1.547   6.268  0.2081  1.9527 -0.9622
   69MOL   H38026356   0.380   1.898   5.932  0.4340 -0.7696 -1.5047
   69MOL   H38126357   0.259   1.765   5.914  0.3397 -0.4258 -1.8101
   69MOL   H38226358   0.419   1.743   5.857 -1.1712  0.7992 -0.3405
   70MOL     C126359   5.070   1.555   0.194  0.3352  0.2134 -0.1317
   70MOL     C226360   5.070   1.607   0.044  1.2356 -0.1604  0.3426
   70MOL     C326361   5.081   1.496   7.633 -0.5035  0.8114  0.1295
   70MOL     C426362   5.111   1.584   7.511 -0.6022  0.1105  0.0288
   70MOL     C526363   5.189   1.707   7.552 -0.2754 -0.1518  0.7901
   70MOL     C626364   5.193   1.697   0.008  0.2222 -0.1420 -0.1639
   70MOL     C726365   4.933   1.492   0.226  0.5025 -0.2514 -0.0060
   70MOL     H826366   5.161   1.494   0.193  0.6219  0.6333  0.5315
   70MOL     H926367   4.975   1.657   0.024  0.2467 -0.8612  3.0074
   70MOL    H1026368   5.172   1.437   7.642 -0.8592 -0.0030 -1.4233
   70MOL    H1126369   4.991   1.436   7.626 -1.2894  1.9253  0.5388
   70MOL    H1226370   5.176   1.537   7.436 -2.6073 -2.9846  0.1233
   70MOL    H1326371   5.022   1.630   7.469  0.8396  2.0119 -0.9899
   70MOL    H1426372   5.294   1.698   7.525 -0.6718  1.3001 -1.3598
   70MOL    H1526373   5.147   1.803   7.525  1.1486  0.7102  1.5638
   70MOL    H1626374   5.194   1.786   0.071  1.0897  0.0241 -0.4125
   70MOL    H1726375   5.281   1.646   0.048 -2.8008 -5.5856 -0.0555
   70MOL    H1826376   4.852   1.560   0.198  0.2462 -1.2965 -1.9046
   70MOL    H1926377   4.929   1.403   0.163  1.5497 -0.6922  0.5478
   70MOL    H2026378   5.103   1.627   0.268 -1.3436 -0.0262  0.8587
   70MOL    C2126379   4.917   1.440   0.370 -0.0350 -0.8077  0.3137
   70MOL    C2226380   4.771   1.410   0.406 -0.9315  0.6796  0.0113
   70MOL    C2326381   4.711   1.274   0.349 -0.5218 -0.3701 -0.9559
   70MOL    C2426382   4.565   1.298   0.367 -0.1716  0.3166 -0.5405
   70MOL    C2526383   4.537   1.447   0.409 -0.0552  0.7273  0.6353
   70MOL    C2626384   4.667   1.519   0.374 -0.3890  0.5885 -0.0593
   70MOL    C2726385   5.018   1.328   0.398 -0.0962  0.2319  0.1723
   70MOL    H2826386   4.961   1.526   0.421  1.2097 -1.8797  1.0724
   70MOL    H2926387   4.774   1.400   0.514  1.9463  0.0081 -0.1108
   70MOL    H3026388   4.752   1.190   0.405 -2.6759 -0.7719  0.0685
   70MOL    H3126389   4.746   1.259   0.247  1.6353 -0.4691 -0.2392
   70MOL    H3226390   4.516   1.270   0.274  1.2786  0.2989 -1.3058
   70MOL    H3326391   4.527   1.225   0.438  2.0052 -1.0273 -0.7149
   70MOL    H3426392   4.520   1.447   0.516 -1.1288 -0.9620  0.4981
   70MOL    H3526393   4.449   1.486   0.357 -0.5290 -0.2163  0.7047
   70MOL    H3626394   4.668   1.603   0.443 -1.0951  0.2077  0.4244
   70MOL    H3726395   4.659   1.555   0.272 -2.0582 -0.2663 -0.2431
   70MOL    H3826396   4.981   1.245   0.337  0.0480  0.3053 -0.0153
   70MOL    H3926397   5.115   1.353   0.357 -0.8855  0.9162 -1.3167
   70MOL    C4026398   5.049   1.288   0.548  0.8901 -0.2850 -1.0507
   70MOL    C4126399   5.131   1.160   0.566 -0.3025 -0.4610 -0.6272
   70MOL    C4226400   5.263   1.151   0.485  0.1153  0.4331  0.1957
   70MOL    C4326401   5.307   1.006   0.505  0.3938 -1.0057 -0.1523
   70MOL    C4426402   5.176   0.931   0.494  0.0527  0.7617  0.1738
   70MOL    C4526403   5.069   1.029   0.531  0.0070 -0.3174  0.1449
   70MOL    C4626404   5.124   1.409   0.622 -0.0381 -0.4151  0.7091
   70MOL    H4726405   4.960   1.274   0.609  0.6867  2.2613 -0.6931
   70MOL    H4826406   5.151   1.158   0.674 -2.7337  1.0427 -0.0973
   70MOL    H4926407   5.336   1.223   0.524 -0.2598  0.4906  0.8032
   70MOL    H5026408   5.236   1.177   0.383 -0.6184  1.1804  0.5699
   70MOL    H5126409   5.337   0.990   0.609 -0.1548  0.9063  0.3355
   70MOL    H5226410   5.383   0.969   0.436  1.6389  1.7572 -0.3313
   70MOL    H5326411   5.167   0.898   0.390  2.5938  0.6411 -0.0482
   70MOL    H5426412   5.178   0.841   0.556 -3.0230 -0.2226 -1.0602
   70MOL    H5526413   5.000   1.036   0.447  1.7221 -3.0529 -1.5837
   70MOL    H5626414   5.015   0.991   0.618 -1.4734  0.8987 -0.2276
   70MOL    H5726415   5.228   1.377   0.628 -0.4098 -1.5185  1.7098
   70MOL    H5826416   5.121   1.499   0.561 -3.3203  0.3264  1.8269
   70MOL    C5926417   5.070   1.444   0.764 -0.0785  0.6517  0.3005
   70MOL    C6026418   5.187   1.491   0.865  0.6853  0.1020 -0.4706
   70MOL    C6126419   5.237   1.637   0.847  0.7409 -0.0922  0.4109
   70MOL    C6226420   5.368   1.634   0.921 -0.0286 -0.2297 -0.0930
   70MOL    C6326421   5.409   1.490   0.947 -0.3624 -0.0306  0.2926
   70MOL    C6426422   5.300   1.396   0.889  0.2577 -0.7570 -0.7595
   70MOL    C6526423   4.953   1.546   0.752  0.1422 -1.2507  0.0550
   70MOL    H6626424   5.032   1.353   0.812 -0.3208  0.9625  0.7077
   70MOL    H6726425   5.134   1.498   0.960  2.7590 -0.7119  0.7683
   70MOL    H6826426   5.169   1.716   0.877  0.8052  1.2520 -2.8443
   70MOL    H6926427   5.266   1.659   0.744  1.5376  0.0390  0.6621
   70MOL    H7026428   5.341   1.686   1.014 -2.6920  2.0634 -2.0555
   70MOL    H7126429   5.444   1.698   0.877 -1.2018  1.7508  0.6367
   70MOL    H7226430   5.416   1.472   1.054 -0.5976  0.9987  0.4805
   70MOL    H7326431   5.504   1.470   0.897 -1.1278 -1.0446 -0.7946
   70MOL    H7426432   5.326   1.352   0.793  0.7316  0.3439 -1.1495
   70MOL    H7526433   5.261   1.319   0.954  1.3318 -0.3758  0.3586
   70MOL    H7626434   4.889   1.517   0.668 -0.9316  0.8499  0.1245
   70MOL    H7726435   4.990   1.645   0.725 -3.0268 -0.4884 -1.7543
   70MOL    C7826436   4.865   1.551   0.882 -0.7269  0.9753 -0.0913
   70MOL    C7926437   4.771   1.671   0.878  0.0059 -0.1196  0.1823
   70MOL    C8026438   4.715   1.712   0.740  0.6381 -0.3023  0.1955
   70MOL    C8126439   4.658   1.856   0.779  0.4947  0.9234  0.4458
   70MOL    C8226440   4.737   1.913   0.890  0.0821  0.2003 -0.6088
   70MOL    C8326441   4.837   1.802   0.923 -0.0274 -0.1539  0.3221
   70MOL    C8426442   4.786   1.412   0.911  0.3500 -0.1353  0.0042
   70MOL    H8526443   4.934   1.568   0.965  0.2227 -1.6992 -0.2690
   70MOL    H8626444   4.682   1.642   0.935  0.8971  1.1811  2.3189
   70MOL    H8726445   4.643   1.639   0.701  0.1956 -0.4389  1.2460
   70MOL    H8826446   4.785   1.730   0.659 -1.5426 -1.8836 -2.1238
   70MOL    H8926447   4.558   1.825   0.812  0.5950  0.6258  0.4671
   70MOL    H9026448   4.639   1.920   0.692  0.9790  0.8766  0.3037
   70MOL    H9126449   4.779   2.008   0.856  1.0052 -0.2212 -0.6532
   70MOL    H9226450   4.683   1.946   0.979  0.1737 -1.1648 -0.0476
   70MOL    H9326451   4.928   1.813   0.864  0.5179 -2.4986  0.6651
   70MOL    H9426452   4.874   1.789   1.024 -0.2177  3.7859  0.9570
   70MOL    H9526453   4.824   1.328   0.852 -0.2902 -0.9601  0.7588
   70MOL    H9626454   4.691   1.430   0.861  1.1821 -0.1888 -1.6587
   70MOL    C9726455   4.761   1.364   1.055 -0.3771  0.3860  0.1724
   70MOL    C9826456   4.767   1.206   1.071 -1.0841 -0.4290 -0.3567
   70MOL    C9926457   4.668   1.118   0.996 -0.5933 -0.2200 -0.4041
   70MOL   C10026458   4.750   1.005   0.930 -0.7823 -0.0844 -0.1130
   70MOL   C10126459   4.872   1.000   1.025 -0.2542  0.4262 -0.4463
   70MOL   C10226460   4.904   1.144   1.054  0.1183 -0.0321 -1.0275
   70MOL   C10326461   4.621   1.418   1.099 -0.7265 -0.5966  0.3631
   70MOL   H10426462   4.841   1.390   1.123 -0.3014  0.9223 -0.1207
   70MOL   H10526463   4.746   1.188   1.177 -2.6629 -0.1253 -0.6043
   70MOL   H10626464   4.587   1.085   1.061  0.1579 -2.1926 -0.4439
   70MOL   H10726465   4.624   1.179   0.917  0.2849  2.4687  1.1143
   70MOL   H10826466   4.784   1.032   0.830 -0.9721 -1.3641 -0.5330
   70MOL   H10926467   4.692   0.913   0.920  0.3665 -0.7126 -1.0970
   70MOL   H11026468   4.955   0.947   0.977  0.0239  0.3434  0.1147
   70MOL   H11126469   4.850   0.943   1.115  1.9406  1.1999  0.6201
   70MOL   H11226470   4.961   1.168   1.143  1.2072  2.7126 -2.4143
   70MOL   H11326471   4.960   1.186   0.970  0.3520 -1.0779 -1.3984
   70MOL   H11426472   4.571   1.495   1.041  0.0958  0.6022  1.2208
   70MOL   H11526473   4.550   1.335   1.093  0.0908 -1.2029 -1.2146
   70MOL   C11626474   4.611   1.468   1.247  0.2467 -0.4682  0.2671
   70MOL   C11726475   4.640   1.617   1.253 -0.0535 -0.3233  0.2050
   70MOL   C11826476   4.534   1.719   1.195  0.3030 -0.2114  0.0964
   70MOL   C11926477   4.553   1.854   1.278 -0.2295  0.1681 -0.7824
   70MOL   C12026478   4.667   1.821   1.380  0.1019  0.1841  0.6157
   70MOL   C12126479   4.675   1.667   1.394 -0.0957 -0.3108  0.1938
   70MOL   C12226480   4.483   1.420   1.320  0.0980 -0.7827 -0.5011
   70MOL   H12326481   4.700   1.421   1.290 -0.5174 -2.3531 -0.1887
   70MOL   H12426482   4.730   1.632   1.193 -0.4034  3.7075  0.5484
   70MOL   H12526483   4.547   1.722   1.087  0.0099 -0.2545  0.0583
   70MOL   H12626484   4.434   1.678   1.207 -0.8855  2.2728 -0.8187
   70MOL   H12726485   4.461   1.883   1.329  1.5936 -0.8006  3.3049
   70MOL   H12826486   4.577   1.937   1.212  0.8649  0.2644 -0.2783
   70MOL   H12926487   4.655   1.877   1.473  0.6860 -0.4650  1.0813
   70MOL   H13026488   4.755   1.863   1.332  0.1943 -0.2871  0.3782
   70MOL   H13126489   4.775   1.641   1.429  0.4205  3.1753  1.5742
   70MOL   H13226490   4.600   1.635   1.467 -0.6872 -0.1094 -0.3225
   70MOL   H13326491   4.404   1.438   1.247 -0.0702  0.5387 -0.0096
   70MOL   H13426492   4.465   1.488   1.403  1.6742  0.1065 -0.8552
   70MOL   C13526493   4.492   1.280   1.384  0.0291 -0.0308 -0.5031
   70MOL   C13626494   4.348   1.230   1.419  0.4220 -0.4994  0.1999
   70MOL   C13726495   4.270   1.182   1.298  0.7001  0.2795 -0.1175
   70MOL   C13826496   4.121   1.207   1.321  0.4103  0.0399 -0.0118
   70MOL   C13926497   4.114   1.291   1.449 -0.8215  0.0328 -0.2656
   70MOL   C14026498   4.258   1.325   1.485  0.1699  0.2943  0.0796
   70MOL   C14126499   4.575   1.279   1.519 -0.0371 -0.1119 -0.3007
   70MOL   H14226500   4.539   1.205   1.320  2.3269  0.1290  0.9261
   70MOL   H14326501   4.343   1.140   1.480 -0.1599 -0.8050 -0.3010
   70MOL   H14426502   4.302   1.220   1.201  0.3509 -3.4801 -1.8267
   70MOL   H14526503   4.287   1.075   1.279 -0.5319  0.2152 -0.8639
   70MOL   H14626504   4.062   1.116   1.319  2.2891 -1.1923 -2.8639
   70MOL   H14726505   4.103   1.278   1.240  0.6980  0.6285  0.4322
   70MOL   H14826506   4.082   1.227   1.531  0.4657  2.3101  2.0864
   70MOL   H14926507   4.043   1.373   1.444  1.7149  2.3582  0.5654
   70MOL   H15026508   4.262   1.415   1.423  1.8176 -0.7463 -1.3852
   70MOL   H15126509   4.265   1.345   1.592 -0.1769 -1.1194  0.3736
   70MOL   H15226510   4.512   1.320   1.598  0.3245 -0.9468  0.4284
   70MOL   H15326511   4.667   1.337   1.523 -1.0168  1.4058  0.7285
   70MOL   C15426512   4.606   1.138   1.585 -0.6272 -0.0549 -0.9096
   70MOL   C15526513   4.705   1.057   1.508  0.3186  0.2324 -0.1833
   70MOL   C15626514   4.733   0.917   1.564 -0.6064 -0.4222  0.3047
   70MOL   C15726515   4.884   0.898   1.580  0.0010 -0.2823 -0.6296
   70MOL   C15826516   4.941   1.005   1.482  0.5300 -0.6090  0.1347
   70MOL   C15926517   4.841   1.129   1.479 -0.3434 -0.5381 -0.6960
   70MOL   C16026518   4.639   1.162   1.730 -0.4282  0.4301  0.5336
   70MOL   H16126519   4.514   1.080   1.588 -0.7780  0.1880 -0.8095
   70MOL   H16226520   4.665   1.034   1.409  0.3902 -0.1051 -0.1360
   70MOL   H16326521   4.682   0.897   1.658 -1.3914  0.4659  0.0721
   70MOL   H16426522   4.680   0.848   1.498  1.1217 -0.8607 -0.6400
   70MOL   H16526523   4.919   0.935   1.677  1.0258  0.4687 -1.2690
   70MOL   H16626524   4.915   0.794   1.571 -0.7073 -0.7064  1.5541
   70MOL   H16726525   4.933   0.963   1.382 -0.7980  0.7684 -0.3607
   70MOL   H16826526   5.044   1.033   1.505 -0.4500  0.9306  2.8891
   70MOL   H16926527   4.836   1.188   1.388  2.7556  0.4275 -0.2843
   70MOL   H17026528   4.867   1.204   1.553 -1.0869 -1.0527  0.0984
   70MOL   H17126529   4.708   1.246   1.737 -0.6982  0.9252 -2.3496
   70MOL   H17226530   4.706   1.086   1.771 -1.2653 -1.8591 -2.1778
   70MOL   C17326531   4.517   1.182   1.827 -0.1674 -0.0899 -0.9240
   70MOL   C17426532   4.558   1.269   1.945  0.2072 -0.0623  0.3641
   70MOL   C17526533   4.567   1.419   1.919  0.6408  0.0684  0.0473
   70MOL   C17626534   4.654   1.482   2.024  0.2590  0.0126 -0.2383
   70MOL   C17726535   4.748   1.371   2.069  0.2244  0.4772 -0.0519
   70MOL   C17826536   4.689   1.239   2.023  0.5545  0.0700 -0.0468
   70MOL   C17926537   4.467   1.044   1.878 -0.9272 -0.2540 -0.2643
   70MOL   H18026538   4.441   1.241   1.774 -2.4292 -1.0324  1.1490
   70MOL   H18126539   4.474   1.266   2.014  0.0736 -0.0975  0.2003
   70MOL   H18226540   4.468   1.465   1.917  0.5448 -0.1973 -2.7127
   70MOL   H18326541   4.606   1.435   1.819 -1.1938  0.2454 -0.6502
   70MOL   H18426542   4.719   1.560   1.985  0.4378 -0.7053 -1.4239
   70MOL   H18526543   4.597   1.521   2.109  0.4949  0.1339 -0.1380
   70MOL   H18626544   4.773   1.362   2.175 -1.5068 -0.8349  0.2644
   70MOL   H18726545   4.846   1.382   2.023 -0.8677 -1.5775 -3.0707
   70MOL   H18826546   4.758   1.185   1.958  0.2056  0.4909 -0.7837
   70MOL   H18926547   4.677   1.180   2.114  0.7737 -1.3846 -0.9451
   70MOL   H19026548   4.467   0.973   1.795  1.5066  0.5124 -0.9645
   70MOL   H19126549   4.544   0.991   1.935 -1.2243  0.0320  0.4017
   70MOL   C19226550   4.338   1.043   1.953 -0.4292 -0.2120 -0.0390
   70MOL   C19326551   4.320   0.905   2.016 -0.6017  0.5207 -0.1567
   70MOL   C19426552   4.413   0.873   2.140 -0.4240  0.0065  0.3104
   70MOL   C19526553   4.394   0.717   2.168 -0.1079 -0.8045  0.0693
   70MOL   C19626554   4.328   0.661   2.039  0.5188  0.4992 -0.3618
   70MOL   C19726555   4.328   0.776   1.936  0.2286  0.7319 -0.3255
   70MOL   C19826556   4.227   1.077   1.850 -0.0082 -0.2427 -0.5614
   70MOL   H19926557   4.338   1.112   2.037 -2.0057  0.1962 -0.3622
   70MOL   H20026558   4.227   0.900   2.072  0.2922  1.8966  1.4830
   70MOL   H20126559   4.388   0.938   2.224 -1.7495  2.1763 -1.6930
   70MOL   H20226560   4.518   0.900   2.133 -0.2325 -1.0648 -1.0820
   70MOL   H20326561   4.492   0.675   2.192  0.2087  0.3205  0.7601
   70MOL   H20426562   4.333   0.697   2.256 -0.7061  1.3223  0.1667
   70MOL   H20526563   4.229   0.619   2.054  0.9949  0.2405  2.4190
   70MOL   H20626564   4.375   0.568   2.007  2.3850  0.3611  2.5544
   70MOL   H20726565   4.252   0.761   1.859  0.3617 -0.2048 -0.2901
   70MOL   H20826566   4.427   0.776   1.890  1.3956 -0.0611  2.1184
   70MOL   H20926567   4.241   1.164   1.786 -0.2678 -1.2616 -2.0296
   70MOL   H21026568   4.229   1.000   1.773  1.8323  0.3171 -1.0986
   70MOL   C21126569   4.090   1.092   1.923 -0.4431 -0.1630 -0.4110
   70MOL   C21226570   4.072   1.233   1.992  0.1399  0.2464  0.2584
   70MOL   C21326571   4.049   1.353   1.901 -0.3413 -0.6813 -0.0770
   70MOL   C21426572   3.992   1.466   1.999 -0.3655  0.4571 -0.1266
   70MOL   C21526573   3.920   1.374   2.109 -0.1556 -0.7339 -0.1057
   70MOL   C21626574   3.958   1.231   2.089  0.3870  0.3730 -0.7111
   70MOL   C21726575   3.975   1.049   1.834  0.1188  0.8520  0.2788
   70MOL   H21826576   4.082   1.029   2.011 -0.5373  1.3739  0.7050
   70MOL   H21926577   4.162   1.255   2.048  1.5063 -3.3401 -0.3680
   70MOL   H22026578   4.136   1.396   1.852 -1.3405  3.1183  1.3144
   70MOL   H22126579   3.976   1.358   1.820 -0.1197 -0.2793 -0.2515
   70MOL   H22226580   4.075   1.525   2.039  2.7044 -1.6098 -3.1677
   70MOL   H22326581   3.919   1.535   1.956  0.1482 -0.0614 -1.8844
   70MOL   H22426582   3.811   1.381   2.100 -0.0624  0.2539 -0.5699
   70MOL   H22526583   3.946   1.413   2.207  0.6267  0.8502 -0.9081
   70MOL   H22626584   3.994   1.185   2.181  0.5098 -0.3578 -1.1247
   70MOL   H22726585   3.868   1.180   2.058  1.5582 -0.7474 -2.3219
   70MOL   H22826586   3.982   1.104   1.741 -2.0609 -0.5701 -0.7626
   70MOL   H22926587   3.879   1.084   1.872 -0.0871 -0.3856  0.9076
   70MOL   C23026588   3.955   0.893   1.802  0.1300  0.0951  0.6450
   70MOL   C23126589   3.955   0.854   1.649  0.3827 -0.5745  0.6077
   70MOL   C23226590   4.090   0.861   1.568 -0.2303  0.5616 -0.1666
   70MOL   C23326591   4.074   0.765   1.442 -0.0108 -0.0205  0.5880
   70MOL   C23426592   3.951   0.686   1.473 -0.6944 -0.0592  0.2741
   70MOL   C23526593   3.915   0.708   1.614  0.2662  0.1469 -0.2691
   70MOL   C23626594   3.818   0.842   1.870 -0.3663 -0.1378  0.0789
   70MOL   H23726595   4.034   0.837   1.851  0.0491  0.0591  0.7352
   70MOL   H23826596   3.883   0.915   1.594 -0.5250 -0.6192  1.7436
   70MOL   H23926597   4.108   0.961   1.531 -1.0107  1.2530  1.2943
   70MOL   H24026598   4.176   0.831   1.629  0.2699  0.5511 -0.8812
   70MOL   H24126599   4.054   0.818   1.348  2.2924 -1.4167 -0.7417
   70MOL   H24226600   4.155   0.693   1.430  0.8450  0.8955  0.8348
   70MOL   H24326601   3.971   0.581   1.451 -0.1190 -0.3049  1.8903
   70MOL   H24426602   3.866   0.725   1.418  1.5499  3.3785 -0.9781
   70MOL   H24526603   3.974   0.640   1.676  0.4777  1.0472  0.5354
   70MOL   H24626604   3.811   0.676   1.619  0.6670 -1.6861 -2.5349
   70MOL   H24726605   3.820   0.735   1.849 -1.4358  0.5710 -4.0533
   70MOL   H24826606   3.736   0.891   1.817 -1.7162  0.1115  2.3580
   70MOL   C24926607   3.808   0.857   2.025  0.5832  0.2065  0.9260
   70MOL   C25026608   3.908   0.772   2.108  0.6309  0.3049 -0.4219
   70MOL   C25126609   3.879   0.622   2.121 -0.2894  0.1309 -0.2966
   70MOL   C25226610   3.961   0.581   2.248 -0.3695 -0.4948  0.0689
   70MOL   C25326611   3.985   0.711   2.331  0.0285 -0.4921  0.0439
   70MOL   C25426612   3.916   0.821   2.253 -0.1348 -0.4788 -0.1517
   70MOL   C25526613   3.654   0.840   2.063 -0.4463  0.4582 -0.2146
   70MOL   H25626614   3.843   0.957   2.049  0.6493  0.2414  0.6839
   70MOL   H25726615   4.008   0.785   2.067 -0.1852  4.0613 -1.4352
   70MOL   H25826616   3.903   0.563   2.033 -0.5284  1.4042 -1.2242
   70MOL   H25926617   3.771   0.618   2.134 -0.3819  3.2959  0.4541
   70MOL   H26026618   4.054   0.534   2.216 -0.5150 -1.3959  0.9336
   70MOL   H26126619   3.908   0.508   2.309 -0.7524 -1.3357 -1.2723
   70MOL   H26226620   4.090   0.737   2.339  0.0288  0.0478 -1.5806
   70MOL   H26326621   3.954   0.692   2.434 -1.9811  1.5463 -0.1512
   70MOL   H26426622   3.978   0.911   2.250 -0.4288 -0.2781 -0.2461
   70MOL   H26526623   3.830   0.854   2.311 -0.9351 -0.6713 -1.2020
   70MOL   H26626624   3.637   0.744   2.013  1.4893 -0.7201  1.3317
   70MOL   H26726625   3.640   0.809   2.166  0.9837  2.8547  0.7479
   70MOL   C26826626   3.557   0.962   2.040  0.5438  0.4779 -0.0980
   70MOL   C26926627   3.583   1.079   2.138  0.2117  0.0080  0.1861
   70MOL   C27026628   3.586   1.042   2.289  0.8081 -0.9954 -0.7426
   70MOL   C27126629   3.499   1.145   2.365 -0.2192 -0.7945  0.2076
   70MOL   C27226630   3.414   1.220   2.259  0.2026 -0.0999  0.6417
   70MOL   C27326631   3.497   1.205   2.129  0.2631  0.7223  0.1741
   70MOL   C27426632   3.398   0.915   2.042 -0.3156 -0.0438 -0.3368
   70MOL   H27526633   3.565   1.006   1.941 -0.6497  2.1310  0.5190
   70MOL   H27626634   3.688   1.102   2.120  0.6035 -1.5558  0.3547
   70MOL   H27726635   3.534   0.947   2.303  1.2905 -1.1889 -0.2309
   70MOL   H27826636   3.687   1.039   2.331 -0.4658 -1.8906  2.4590
   70MOL   H27926637   3.453   1.110   2.458 -0.7740 -1.8535 -0.4631
   70MOL   H28026638   3.573   1.214   2.405 -1.1448 -0.4664  1.3951
   70MOL   H28126639   3.391   1.322   2.291  0.0024  0.0412  0.0509
   70MOL   H28226640   3.321   1.164   2.251  1.5782 -2.2614 -0.8640
   70MOL   H28326641   3.566   1.289   2.139  2.4265 -0.9539 -0.2698
   70MOL   H28426642   3.439   1.208   2.037  0.6905 -0.2547 -0.1333
   70MOL   H28526643   3.334   1.002   2.055 -0.1043 -0.2991  2.7152
   70MOL   H28626644   3.398   0.854   2.132 -0.4659 -1.0359 -1.0051
   70MOL   C28726645   3.360   0.841   1.922  0.1132  1.1979 -0.1304
   70MOL   C28826646   3.264   0.721   1.948  0.4016 -0.5052 -0.1362
   70MOL   C28926647   3.311   0.609   2.046 -0.1956  0.7081 -0.2405
   70MOL   C29026648   3.184   0.534   2.090 -0.2488 -0.3094 -0.6153
   70MOL   C29126649   3.068   0.632   2.087  0.0701  0.5384  0.1911
   70MOL   C29226650   3.123   0.758   2.005  0.2221  0.6874  0.0161
   70MOL   C29326651   3.295   0.936   1.810  0.0235 -0.0590  0.2079
   70MOL   H29426652   3.445   0.791   1.875 -0.4539 -2.2156  2.2528
   70MOL   H29526653   3.235   0.668   1.858 -1.3162  0.7009 -0.3296
   70MOL   H29626654   3.381   0.539   2.001 -2.7152 -3.4912  2.0871
   70MOL   H29726655   3.356   0.646   2.138 -0.7177  0.2403  0.2063
   70MOL   H29826656   3.166   0.441   2.037 -0.3085 -0.0907 -0.9857
   70MOL   H29926657   3.209   0.511   2.193 -1.3475  1.6108  0.1148
   70MOL   H30026658   3.025   0.658   2.184 -0.7462 -0.0397 -0.0152
   70MOL   H30126659   2.987   0.595   2.025  0.7914 -0.7667  0.0016
   70MOL   H30226660   3.138   0.836   2.079  2.9623 -0.6414  0.9463
   70MOL   H30326661   3.049   0.794   1.934 -0.2630  2.6733  1.4742
   70MOL   H30426662   3.360   1.022   1.797  0.5889 -0.4816  0.2179
   70MOL   H30526663   3.202   0.975   1.853  0.3305  0.3904  0.4736
   70MOL   C30626664   3.274   0.881   1.663 -0.0273 -0.0377 -0.9824
   70MOL   C30726665   3.157   0.957   1.596  0.1632 -0.1874  0.3509
   70MOL   C30826666   3.021   0.937   1.667 -0.1839 -0.1336  0.6333
   70MOL   C30926667   2.919   1.036   1.605 -0.0732 -0.2289  0.1835
   70MOL   C31026668   3.016   1.148   1.562  0.2822 -0.1694 -1.0677
   70MOL   C31126669   3.162   1.112   1.584  0.4245 -0.0093 -0.7417
   70MOL   C31226670   3.409   0.890   1.583  0.6601 -0.2143 -0.7230
   70MOL   H31326671   3.230   0.781   1.667  1.6429 -0.7818 -0.7510
   70MOL   H31426672   3.154   0.915   1.495  1.4551 -2.1304  1.0813
   70MOL   H31526673   3.028   0.951   1.775  0.0578  2.7844  0.2842
   70MOL   H31626674   2.979   0.838   1.648 -0.4258 -0.1409  1.2007
   70MOL   H31726675   2.864   0.999   1.518 -0.1729 -0.1934  0.2310
   70MOL   H31826676   2.842   1.063   1.677 -2.3169  0.0541 -2.2339
   70MOL   H31926677   3.003   1.237   1.622  1.8259 -1.1059  0.7367
   70MOL   H32026678   2.983   1.169   1.460  1.1272 -1.4813 -1.6286
   70MOL   H32126679   3.209   1.139   1.489  0.6706  0.4725 -0.4798
   70MOL   H32226680   3.220   1.158   1.664  0.5497 -0.0121 -0.8299
   70MOL   H32326681   3.477   0.821   1.633 -0.6278 -1.2166 -0.3170
   70MOL   H32426682   3.445   0.992   1.591  0.1851 -0.1134  0.1638
   70MOL   C32526683   3.414   0.873   1.430 -0.6412  0.1790 -0.6465
   70MOL   C32626684   3.339   0.740   1.399  0.0661 -0.1704 -0.3443
   70MOL   C32726685   3.397   0.608   1.450 -0.4035 -0.0108  0.2699
   70MOL   C32826686   3.329   0.492   1.365  0.1816  0.4548 -0.0605
   70MOL   C32926687   3.268   0.566   1.231  0.1463 -0.9377  0.0965
   70MOL   C33026688   3.309   0.709   1.244 -0.0471 -0.0024  0.0406
   70MOL   C33126689   3.555   0.876   1.373 -0.4563  0.2969 -0.2743
   70MOL   H33226690   3.351   0.948   1.383 -3.3564 -2.6543 -1.7051
   70MOL   H33326691   3.239   0.741   1.442  0.3665 -0.4983  0.3644
   70MOL   H33426692   3.378   0.592   1.557 -2.7285  0.6092 -0.0316
   70MOL   H33526693   3.506   0.600   1.441 -0.4940  1.3879 -2.3566
   70MOL   H33626694   3.249   0.464   1.433 -0.6207  1.3465 -0.6249
   70MOL   H33726695   3.391   0.404   1.343 -1.3151 -0.5772 -0.2477
   70MOL   H33826696   3.160   0.554   1.236 -0.2490  1.9690 -0.8212
   70MOL   H33926697   3.310   0.530   1.137 -1.0686  0.0066 -0.8167
   70MOL   H34026698   3.226   0.777   1.226 -0.0178 -0.3738 -1.5327
   70MOL   H34126699   3.395   0.739   1.185 -0.8196  0.7168 -0.7341
   70MOL   H34226700   3.568   0.804   1.292  2.0154  1.1671 -0.7126
   70MOL   H34326701   3.630   0.841   1.443  1.7253  2.2204 -1.5445
   70MOL   C34426702   3.598   1.012   1.316  0.0126 -0.3638 -0.7495
   70MOL   C34526703   3.708   0.997   1.205 -0.1122 -0.0964  0.7526
   70MOL   C34626704   3.769   1.133   1.157 -0.7025  0.3602  0.6772
   70MOL   C34726705   3.785   1.119   1.002  0.1649  0.4580  0.0738
   70MOL   C34826706   3.736   0.973   0.970  0.1273 -0.0126  0.2273
   70MOL   C34926707   3.647   0.932   1.084  0.0685 -0.3271  0.5838
   70MOL   C35026708   3.643   1.102   1.432  0.5145 -0.4862 -0.0669
   70MOL   H35126709   3.520   1.061   1.258  0.7522 -0.2938 -1.6876
   70MOL   H35226710   3.797   0.939   1.227  0.2974  0.1874 -0.1224
   70MOL   H35326711   3.866   1.161   1.197  0.3515 -0.4158 -1.2357
   70MOL   H35426712   3.710   1.219   1.188  0.5119  1.3513  0.2871
   70MOL   H35526713   3.719   1.185   0.946 -0.6525 -0.1027  0.3648
   70MOL   H35626714   3.890   1.121   0.974  0.0736  0.2751 -0.2799
   70MOL   H35726715   3.822   0.908   0.953  0.0428 -0.4369  1.3550
   70MOL   H35826716   3.678   0.973   0.878 -0.8434  0.5468  0.8283
   70MOL   H35926717   3.543   0.961   1.068 -0.0842 -1.3223 -0.2838
   70MOL   H36026718   3.636   0.823   1.085 -0.8302 -0.2364  0.8315
   70MOL   H36126719   3.730   1.164   1.409 -0.9415  0.4823 -3.3419
   70MOL   H36226720   3.668   1.043   1.519  2.1058  0.9641  0.4960
   70MOL   C36326721   3.539   1.212   1.476  0.5817  0.4119 -0.3140
   70MOL   C36426722   3.593   1.291   1.599  0.1582  0.8480  0.0691
   70MOL   C36526723   3.642   1.205   1.712  0.0322 -0.7029 -0.8780
   70MOL   C36626724   3.661   1.311   1.822 -0.4305  0.2930 -0.5256
   70MOL   C36726725   3.535   1.402   1.809 -0.3258 -0.1918  0.2461
   70MOL   C36826726   3.489   1.388   1.660  0.3093  0.0847  0.5922
   70MOL   C36926727   3.514   1.315   1.363 -0.5504  0.2904 -0.0772
   70MOL   H37026728   3.445   1.165   1.505  0.9513 -0.4719 -0.5250
   70MOL   H37126729   3.677   1.350   1.561 -0.1936 -0.5039 -2.9823
   70MOL   H37226730   3.565   1.135   1.744 -0.2291  0.1097  0.2999
   70MOL   H37326731   3.734   1.148   1.702  0.2747 -1.3698  4.0119
   70MOL   H37426732   3.669   1.264   1.920  0.4201 -1.0380 -1.2147
   70MOL   H37526733   3.752   1.368   1.807  1.1021 -1.8993  0.1034
   70MOL   H37626734   3.464   1.383   1.889 -1.7093  2.3989 -0.3118
   70MOL   H37726735   3.575   1.499   1.840  0.4150 -0.6566  0.7707
   70MOL   H37826736   3.491   1.482   1.605  3.0946  1.3184  2.6333
   70MOL   H37926737   3.388   1.349   1.656  1.2739 -2.7282  2.2854
   70MOL   H38026738   3.476   1.269   1.272  0.1214  0.9315 -0.6853
   70MOL   H38126739   3.604   1.376   1.358 -0.7772  0.6826  0.5382
   70MOL   H38226740   3.447   1.391   1.403 -0.3204 -0.9879  2.8533
   71MOL     C126741   1.308   5.925   5.533 -0.5083  0.3192  0.5514
   71MOL     C226742   1.286   6.071   5.546 -0.0458 -0.2257  0.1129
   71MOL     C326743   1.198   6.108   5.671 -0.2860  0.3970 -0.4591
   71MOL     C426744   1.152   6.251   5.654  0.2349  0.3255 -0.0487
   71MOL     C526745   1.162   6.263   5.502  1.0124  1.3338 -0.3948
   71MOL     C626746   1.196   6.128   5.441 -1.0195 -0.5670  0.1550
   71MOL     C726747   1.392   5.901   5.408 -0.0270 -0.1766 -0.3743
   71MOL     H826748   1.358   5.896   5.626  4.1633  0.9353 -1.6271
   71MOL     H926749   1.379   6.127   5.548  0.1122 -0.5168  1.7403
   71MOL    H1026750   1.117   6.036   5.674  0.6216 -0.7668 -2.9930
   71MOL    H1126751   1.264   6.089   5.757  1.5121 -1.2423 -2.1489
   71MOL    H1226752   1.048   6.258   5.685  0.3680 -2.7801  1.2490
   71MOL    H1326753   1.218   6.326   5.697  1.0334  0.5292 -1.5707
   71MOL    H1426754   1.066   6.304   5.470  0.3351  1.7755  2.0690
   71MOL    H1526755   1.240   6.337   5.487  1.2731  1.1519  0.0381
   71MOL    H1626756   1.255   6.136   5.349 -0.5089 -0.9798  0.4430
   71MOL    H1726757   1.101   6.077   5.430 -1.4105 -0.4362  2.6528
   71MOL    H1826758   1.329   5.877   5.323  1.4424 -0.4073 -1.4323
   71MOL    H1926759   1.440   5.995   5.380  0.7858 -0.1404  1.1119
   71MOL    H2026760   1.212   5.873   5.524 -1.1088  1.6924 -1.4296
   71MOL    C2126761   1.505   5.793   5.423  0.6889  0.3747  0.9563
   71MOL    C2226762   1.443   5.649   5.416  0.2425 -0.1425  0.0908
   71MOL    C2326763   1.536   5.537   5.449  1.0701 -0.6703 -0.6504
   71MOL    C2426764   1.513   5.425   5.343  0.1063 -0.5452  0.0097
   71MOL    C2526765   1.370   5.452   5.290  0.0562  0.3650 -0.3797
   71MOL    C2626766   1.372   5.605   5.287  0.3737 -1.0283  0.0052
   71MOL    C2726767   1.611   5.829   5.313  0.9665  0.4104  0.3000
   71MOL    H2826768   1.550   5.812   5.521  0.7901  1.7229  0.6657
   71MOL    H2926769   1.362   5.645   5.489 -0.0118 -2.0197 -0.2659
   71MOL    H3026770   1.524   5.502   5.552 -1.3666 -0.5083 -0.8642
   71MOL    H3126771   1.643   5.561   5.447  1.2093 -1.3213 -1.2710
   71MOL    H3226772   1.584   5.439   5.262 -1.1586  2.4593 -0.6577
   71MOL    H3326773   1.508   5.331   5.398 -2.4186 -0.4356  0.0233
   71MOL    H3426774   1.297   5.427   5.367 -0.2210  0.2688 -0.6708
   71MOL    H3526775   1.365   5.407   5.191 -2.1832 -0.7424  0.2152
   71MOL    H3626776   1.276   5.648   5.259  1.1752 -0.0251 -1.2702
   71MOL    H3726777   1.434   5.639   5.204  1.3382  1.5385  1.6965
   71MOL    H3826778   1.672   5.742   5.287  0.5292  0.0663  0.4303
   71MOL    H3926779   1.555   5.853   5.222  2.1709 -0.0066 -0.5626
   71MOL    C4026780   1.713   5.941   5.350  0.3304 -0.5882 -0.0892
   71MOL    C4126781   1.849   5.893   5.413  0.5933 -0.9340  0.8866
   71MOL    C4226782   1.933   5.786   5.329 -0.2806 -0.1000  0.6126
   71MOL    C4326783   2.027   5.729   5.433  0.6247  0.4213  0.3126
   71MOL    C4426784   1.965   5.744   5.564  0.5403  0.7646 -0.0836
   71MOL    C4526785   1.836   5.825   5.551 -0.6306 -0.3995  0.2615
   71MOL    C4626786   1.741   6.033   5.233 -0.6911 -0.6438 -0.5917
   71MOL    H4726787   1.653   6.002   5.419 -0.8317  1.6009 -2.9163
   71MOL    H4826788   1.923   5.971   5.431 -0.6335  0.0166  1.9440
   71MOL    H4926789   1.995   5.841   5.258 -0.7685 -0.5848 -0.1871
   71MOL    H5026790   1.878   5.705   5.281  0.0861 -0.7823  1.3312
   71MOL    H5126791   2.110   5.798   5.416  0.3317  1.0150  1.2402
   71MOL    H5226792   2.068   5.628   5.431 -2.0353 -0.6660 -0.5958
   71MOL    H5326793   1.940   5.646   5.603 -0.0974 -0.0267 -2.4255
   71MOL    H5426794   2.041   5.788   5.630  0.9259 -0.8396  0.5581
   71MOL    H5526795   1.748   5.764   5.566 -0.0848 -1.2649  0.0139
   71MOL    H5626796   1.835   5.903   5.627 -1.2580 -0.8451  0.7091
   71MOL    H5726797   1.806   5.982   5.162  2.2122  3.7640 -1.2768
   71MOL    H5826798   1.650   6.042   5.173  0.0644 -0.6583 -1.7512
   71MOL    C5926799   1.802   6.170   5.270 -0.2265  0.5812  0.1577
   71MOL    C6026800   1.843   6.250   5.143  0.7788 -0.4738 -0.3746
   71MOL    C6126801   1.930   6.178   5.040  0.5978  0.2414  0.0862
   71MOL    C6226802   1.992   6.289   4.958  0.1974  0.5910 -0.0709
   71MOL    C6326803   1.982   6.418   5.035  0.8491 -0.0735 -0.3542
   71MOL    C6426804   1.936   6.371   5.170  0.0812 -0.9220 -0.1853
   71MOL    C6526805   1.706   6.247   5.359 -0.1792 -0.5705  0.3931
   71MOL    H6626806   1.890   6.138   5.327 -0.6176  0.3074  0.6168
   71MOL    H6726807   1.757   6.292   5.091  1.4403 -1.0693 -1.9948
   71MOL    H6826808   1.874   6.114   4.972  1.0099 -0.6184  0.5475
   71MOL    H6926809   2.008   6.118   5.086 -0.9243 -1.2508  0.7897
   71MOL    H7026810   1.945   6.287   4.860 -1.6063  0.5957  0.7585
   71MOL    H7126811   2.098   6.269   4.945 -0.3522 -1.0298 -2.2240
   71MOL    H7226812   1.909   6.484   4.989  1.4347  1.4375  0.8309
   71MOL    H7326813   2.079   6.468   5.045 -0.3158  2.1229  0.2281
   71MOL    H7426814   2.012   6.336   5.240  0.7689 -0.5260 -0.7262
   71MOL    H7526815   1.879   6.447   5.223  1.4759 -0.4787  0.6869
   71MOL    H7626816   1.618   6.188   5.382  0.8949 -2.3506  0.0334
   71MOL    H7726817   1.659   6.324   5.297 -1.7565 -0.4830  1.6737
   71MOL    C7826818   1.763   6.323   5.479 -0.0061  0.5941  0.6039
   71MOL    C7926819   1.687   6.446   5.529  0.3486  0.0919  0.4352
   71MOL    C8026820   1.551   6.413   5.592  0.4805 -0.3045 -0.3428
   71MOL    C8126821   1.470   6.543   5.591  0.0494 -0.3064  0.3380
   71MOL    C8226822   1.531   6.628   5.478 -0.3229 -0.7282  0.3642
   71MOL    C8326823   1.662   6.559   5.430  0.0654  0.2098  0.6542
   71MOL    C8426824   1.777   6.221   5.593  0.7016  0.3716  0.1614
   71MOL    H8526825   1.865   6.358   5.465  0.7619 -0.9961  1.9876
   71MOL    H8626826   1.746   6.499   5.604  0.0333 -0.8962  1.3892
   71MOL    H8726827   1.558   6.370   5.692 -2.7152  1.1046  0.5754
   71MOL    H8826828   1.505   6.344   5.521  0.2825  1.0088 -1.4991
   71MOL    H8926829   1.483   6.575   5.694  1.5564  0.2750 -0.0122
   71MOL    H9026830   1.362   6.525   5.590  0.5870 -3.7635 -0.8720
   71MOL    H9126831   1.462   6.641   5.394 -0.0889 -1.5981  0.0321
   71MOL    H9226832   1.551   6.722   5.529 -0.6290 -1.2813  1.5279
   71MOL    H9326833   1.652   6.535   5.324  1.7825  2.2067 -0.0029
   71MOL    H9426834   1.748   6.626   5.433 -0.0612  0.5928 -2.6640
   71MOL    H9526835   1.830   6.133   5.557 -0.1495  0.5848 -1.6472
   71MOL    H9626836   1.680   6.185   5.624  0.4645  0.3942 -0.5503
   71MOL    C9726837   1.856   6.250   5.723  0.0566  0.0745  0.8187
   71MOL    C9826838   2.009   6.272   5.694 -0.2460  0.0249  0.2525
   71MOL    C9926839   2.078   6.196   5.580 -0.3611  0.1967 -0.2216
   71MOL   C10026840   2.204   6.275   5.552 -1.2400 -0.0618 -0.1215
   71MOL   C10126841   2.159   6.416   5.567 -0.5949  0.3781 -0.0694
   71MOL   C10226842   2.057   6.418   5.674 -0.4462 -0.0165 -0.3104
   71MOL   C10326843   1.838   6.131   5.821 -0.0460 -0.1806  0.0840
   71MOL   H10426844   1.816   6.340   5.770  0.6494 -0.1351  1.7175
   71MOL   H10526845   2.055   6.240   5.788  0.0082 -2.1471 -0.5836
   71MOL   H10626846   2.110   6.095   5.605 -0.0254  0.3082 -0.1968
   71MOL   H10726847   2.023   6.193   5.486 -1.3484  1.3481  0.3114
   71MOL   H10826848   2.248   6.258   5.454 -2.9842  1.3450 -1.1903
   71MOL   H10926849   2.290   6.254   5.616 -0.4826  1.4741 -0.6177
   71MOL   H11026850   2.100   6.450   5.482 -0.8065 -0.5679 -0.3046
   71MOL   H11126851   2.239   6.485   5.594 -1.7897  1.5470  0.5583
   71MOL   H11226852   2.100   6.463   5.765 -3.3665 -0.6410  1.4324
   71MOL   H11326853   1.976   6.489   5.657  0.1581  1.2884  1.9013
   71MOL   H11426854   1.734   6.102   5.835  0.3670 -1.0869  1.4352
   71MOL   H11526855   1.888   6.047   5.772 -1.4616 -0.7319 -0.4489
   71MOL   C11626856   1.888   6.151   5.972 -0.0717 -0.5610  0.5557
   71MOL   C11726857   1.771   6.196   6.064 -0.7767 -0.1541  0.4001
   71MOL   C11826858   1.698   6.327   6.036  0.2432 -0.3795 -0.3896
   71MOL   C11926859   1.564   6.326   6.107 -0.5147  0.0002 -0.3756
   71MOL   C12026860   1.527   6.177   6.103 -0.0581  0.1147  0.3799
   71MOL   C12126861   1.656   6.096   6.097  0.5037  0.4937 -0.0917
   71MOL   C12226862   1.952   6.033   6.040  0.4130  0.3108 -0.4761
   71MOL   H12326863   1.948   6.242   5.972 -1.2872  0.2556 -1.7056
   71MOL   H12426864   1.819   6.215   6.160  1.5692 -3.0195 -0.1271
   71MOL   H12526865   1.765   6.410   6.061 -0.6255  0.5031 -0.9611
   71MOL   H12626866   1.679   6.343   5.930  0.2187  0.3532 -0.2758
   71MOL   H12726867   1.498   6.391   6.050 -0.9714 -0.3633 -0.2637
   71MOL   H12826868   1.576   6.361   6.209  0.8639  1.0416 -0.8799
   71MOL   H12926869   1.470   6.164   6.011  1.6535  2.9287 -1.1372
   71MOL   H13026870   1.469   6.146   6.190  1.2795 -0.5991  1.0174
   71MOL   H13126871   1.672   6.056   6.197 -2.5750  0.2141  0.3305
   71MOL   H13226872   1.642   6.016   6.024 -0.0138 -0.7576  1.3584
   71MOL   H13326873   1.873   5.960   6.052  0.5865  0.1871 -0.0805
   71MOL   H13426874   1.970   6.050   6.146 -1.2515 -1.5650  0.1334
   71MOL   C13526875   2.084   5.969   5.979 -1.1787  0.5712 -0.0255
   71MOL   C13626876   2.103   5.816   6.035 -0.1244  0.6646 -0.7067
   71MOL   C13726877   2.007   5.711   5.980 -0.2691  0.1204  0.3641
   71MOL   C13826878   1.993   5.598   6.085 -0.4202 -0.3457 -0.0675
   71MOL   C13926879   2.033   5.655   6.220  0.6420  0.0855  0.6011
   71MOL   C14026880   2.090   5.790   6.188 -0.2944 -0.4060  0.1128
   71MOL   C14126881   2.206   6.058   6.009 -0.7504  0.5749 -0.5015
   71MOL   H14226882   2.062   5.948   5.875 -1.5001 -0.2244  0.1969
   71MOL   H14326883   2.197   5.774   6.000 -1.4630 -1.0575 -2.3596
   71MOL   H14426884   1.911   5.758   5.960 -0.2620 -1.5106 -4.1428
   71MOL   H14526885   2.042   5.657   5.892 -1.0287  0.2541 -0.0271
   71MOL   H14626886   2.054   5.517   6.043 -0.6486  0.5437 -2.1895
   71MOL   H14726887   1.892   5.556   6.084 -0.3645 -0.5032  0.5911
   71MOL   H14826888   2.095   5.585   6.277 -0.3941 -0.3221  1.2500
   71MOL   H14926889   1.939   5.677   6.271 -0.4994  0.6406 -1.6530
   71MOL   H15026890   2.034   5.868   6.239 -0.6237 -1.1525  0.9052
   71MOL   H15126891   2.193   5.790   6.226 -0.9283 -2.0965  1.8790
   71MOL   H15226892   2.212   6.078   6.116  2.4810  2.5739 -0.9823
   71MOL   H15326893   2.185   6.156   5.968 -0.3883  0.6968 -0.3996
   71MOL   C15426894   2.351   6.008   5.977  0.9519 -0.0760 -0.9176
   71MOL   C15526895   2.376   6.022   5.826 -0.1293 -0.1159  0.2362
   71MOL   C15626896   2.326   5.905   5.745  0.0371  0.3602  0.4808
   71MOL   C15726897   2.385   5.913   5.607  0.1627  0.0174  0.4988
   71MOL   C15826898   2.520   5.969   5.634  0.1170 -0.4360  0.3384
   71MOL   C15926899   2.519   6.017   5.781  0.0786  0.5915  0.0735
   71MOL   C16026900   2.447   6.086   6.066  0.2973 -0.1547  0.0600
   71MOL   H16126901   2.378   5.910   6.017 -0.6560  0.0585  0.5844
   71MOL   H16226902   2.326   6.111   5.788  1.2658 -0.2206 -1.9437
   71MOL   H16326903   2.348   5.808   5.790  0.3538  0.1556 -0.0992
   71MOL   H16426904   2.218   5.917   5.739  0.0727 -0.0948 -1.5174
   71MOL   H16526905   2.394   5.820   5.549  1.5042 -0.6757  1.7938
   71MOL   H16626906   2.328   5.969   5.533  0.4179 -0.8307 -0.3657
   71MOL   H16726907   2.537   6.054   5.568 -2.3246  2.4505  3.2326
   71MOL   H16826908   2.595   5.898   5.600  0.5093  1.1371 -2.2105
   71MOL   H16926909   2.574   6.110   5.792 -0.2311  1.0062 -1.6358
   71MOL   H17026910   2.571   5.930   5.822 -0.4617 -1.0959 -2.6154
   71MOL   H17126911   2.436   6.194   6.068  1.0096 -0.0643 -0.4826
   71MOL   H17226912   2.548   6.069   6.028 -0.1265 -0.0041 -1.1336
   71MOL   C17326913   2.465   6.033   6.217 -0.4330  0.0682 -0.9549
   71MOL   C17426914   2.503   6.152   6.317  0.2791 -0.4980  0.6460
   71MOL   C17526915   2.396   6.260   6.323 -0.2088  0.6009  0.4915
   71MOL   C17626916   2.458   6.395   6.339 -0.4504 -0.2726  0.4093
   71MOL   C17726917   2.609   6.373   6.319  0.2135 -0.3245 -0.1278
   71MOL   C17826918   2.633   6.229   6.283 -0.1358 -0.3774  0.4270
   71MOL   C17926919   2.565   5.915   6.225 -0.6326 -0.8789 -0.0098
   71MOL   H18026920   2.369   5.993   6.251 -0.4795  1.5402  0.6824
   71MOL   H18126921   2.511   6.111   6.418  0.9718 -0.4536  0.6142
   71MOL   H18226922   2.333   6.231   6.407  0.4542  1.6000  1.3378
   71MOL   H18326923   2.321   6.262   6.244  0.6119  1.6230 -0.2739
   71MOL   H18426924   2.418   6.463   6.264 -0.0457 -0.2352  0.2291
   71MOL   H18526925   2.438   6.430   6.441  0.8471  1.4848  0.0867
   71MOL   H18626926   2.663   6.403   6.409 -0.4923 -3.4341  1.4126
   71MOL   H18726927   2.635   6.439   6.236  2.3833  0.3902  1.0671
   71MOL   H18826928   2.650   6.231   6.175  0.2336 -0.9692  0.4654
   71MOL   H18926929   2.709   6.167   6.332  0.5266  0.2825  0.2458
   71MOL   H19026930   2.539   5.843   6.147 -1.9000 -1.6923  1.1504
   71MOL   H19126931   2.656   5.957   6.182 -1.8539  0.1800 -1.6230
   71MOL   C19226932   2.590   5.844   6.365  0.2714  0.1537  0.1945
   71MOL   C19326933   2.725   5.767   6.364  0.1077 -0.0002 -0.1312
   71MOL   C19426934   2.779   5.705   6.498  0.0476 -0.0688 -0.3581
   71MOL   C19526935   2.926   5.701   6.493  0.2080  0.5153  0.0386
   71MOL   C19626936   2.971   5.784   6.373  0.0400  0.2274 -0.4251
   71MOL   C19726937   2.849   5.857   6.327  0.2230 -0.6445 -0.0819
   71MOL   C19826938   2.469   5.752   6.394 -0.8767 -0.3402 -0.1648
   71MOL   H19926939   2.610   5.911   6.449 -0.4436 -0.5164  0.9147
   71MOL   H20026940   2.719   5.685   6.291 -1.4463 -0.3197  0.3396
   71MOL   H20126941   2.751   5.600   6.498  1.3142 -0.4157  0.3488
   71MOL   H20226942   2.732   5.750   6.586  1.3798 -1.2739  0.9937
   71MOL   H20326943   2.958   5.746   6.587 -0.1801 -0.6682  0.7379
   71MOL   H20426944   2.961   5.598   6.496 -0.7252  0.2468  1.9685
   71MOL   H20526945   3.007   5.716   6.296  1.7029  0.4184  0.1498
   71MOL   H20626946   3.059   5.843   6.396  1.2053 -2.2444  1.8182
   71MOL   H20726947   2.852   5.880   6.220  0.1883  0.8677  0.2387
   71MOL   H20826948   2.845   5.950   6.384  1.2405 -0.5090 -0.2197
   71MOL   H20926949   2.392   5.769   6.319 -1.9200 -3.8155  0.0019
   71MOL   H21026950   2.503   5.650   6.376  1.4610  0.9468 -3.3805
   71MOL   C21126951   2.409   5.749   6.530  0.6520 -0.1551 -0.6787
   71MOL   C21226952   2.338   5.889   6.569 -0.3438  0.4380 -0.5880
   71MOL   C21326953   2.199   5.917   6.499  0.4397 -0.4538  0.1720
   71MOL   C21426954   2.128   6.012   6.590 -0.4100  0.8830 -0.1640
   71MOL   C21526955   2.188   6.001   6.729 -0.1594  0.0077  0.0825
   71MOL   C21626956   2.304   5.898   6.718  0.9934 -0.4529  0.6055
   71MOL   C21726957   2.322   5.624   6.537 -0.3272 -0.1124 -0.0522
   71MOL   H21826958   2.482   5.739   6.611  2.2246  1.1346 -1.9135
   71MOL   H21926959   2.405   5.973   6.551  0.2357 -0.1643 -1.2752
   71MOL   H22026960   2.219   5.958   6.400 -0.3854 -0.6175 -0.0710
   71MOL   H22126961   2.136   5.829   6.487 -0.6497  0.2278  0.8952
   71MOL   H22226962   2.143   6.112   6.549 -1.4455 -0.1092 -3.1351
   71MOL   H22326963   2.024   5.985   6.603 -0.2256  0.0833 -0.2661
   71MOL   H22426964   2.115   5.961   6.799 -1.0182 -0.1522 -0.8808
   71MOL   H22526965   2.219   6.098   6.769  1.8791 -0.2835 -0.7180
   71MOL   H22626966   2.393   5.926   6.775  0.3815  0.7675  0.9802
   71MOL   H22726967   2.284   5.799   6.759 -1.0668 -0.6512 -0.8039
   71MOL   H22826968   2.254   5.621   6.451  0.0289 -0.2999 -0.3283
   71MOL   H22926969   2.245   5.625   6.614 -0.0728 -1.7262  0.2431
   71MOL   C23026970   2.404   5.498   6.551 -0.1510  0.4756 -0.5772
   71MOL   C23126971   2.353   5.390   6.456 -0.7340 -0.0269  0.1761
   71MOL   C23226972   2.203   5.355   6.470 -0.0419  0.0406 -0.4074
   71MOL   C23326973   2.159   5.309   6.330 -0.2967 -0.4428  0.4844
   71MOL   C23426974   2.272   5.326   6.232 -0.6143  0.1304  0.3867
   71MOL   C23526975   2.365   5.426   6.306  0.9427 -0.3797  0.5395
   71MOL   C23626976   2.393   5.440   6.693  0.3611  0.5072  0.6205
   71MOL   H23726977   2.509   5.517   6.528 -0.2585 -0.0868 -1.5387
   71MOL   H23826978   2.400   5.293   6.471  0.7252  0.8612  1.4211
   71MOL   H23926979   2.172   5.281   6.544 -2.0432  2.1654  0.9274
   71MOL   H24026980   2.143   5.442   6.494  1.3124  0.5184  1.3117
   71MOL   H24126981   2.122   5.207   6.326 -0.4079 -0.4178  0.8731
   71MOL   H24226982   2.083   5.382   6.300  0.4790  0.0223 -0.4041
   71MOL   H24326983   2.242   5.345   6.129 -0.1634 -1.8494 -0.1265
   71MOL   H24426984   2.332   5.235   6.236  0.5341  0.9094  0.9106
   71MOL   H24526985   2.319   5.519   6.276 -1.2021 -1.3758  0.6008
   71MOL   H24626986   2.467   5.431   6.268  0.4694  2.4074 -0.4596
   71MOL   H24726987   2.431   5.338   6.695  0.6888  0.6389  2.1895
   71MOL   H24826988   2.286   5.434   6.712  0.1557 -0.1752 -0.7562
   71MOL   C24926989   2.462   5.508   6.808 -0.0999  0.1889 -0.4424
   71MOL   C25026990   2.612   5.525   6.789  0.3904  0.2210 -0.3630
   71MOL   C25126991   2.704   5.405   6.777  0.2009  1.0247  0.0350
   71MOL   C25226992   2.853   5.455   6.786  0.0554 -0.6022 -0.1655
   71MOL   C25326993   2.844   5.583   6.880  1.2289  0.0939 -0.1019
   71MOL   C25426994   2.688   5.618   6.893  0.3981 -0.1430  0.4934
   71MOL   C25526995   2.403   5.443   6.942  0.3178  0.6055 -0.0233
   71MOL   H25626996   2.424   5.611   6.809 -0.9527 -0.1197 -0.3324
   71MOL   H25726997   2.625   5.572   6.692 -1.0674  1.1530 -0.1292
   71MOL   H25826998   2.693   5.339   6.691  0.4850 -0.3608  1.0382
   71MOL   H25926999   2.687   5.338   6.861 -0.8799  1.0586 -0.1482
   71MOL   H26027000   2.908   5.473   6.694  0.9788 -0.2073  0.4547
   71MOL   H26127001   2.908   5.374   6.835  0.1421  0.3388  1.3226
   71MOL   H26227002   2.890   5.668   6.830  1.1449  0.4319  0.3910
   71MOL   H26327003   2.881   5.569   6.982  0.1554 -0.4559  0.2202
   71MOL   H26427004   2.676   5.722   6.861  0.7548 -0.6569 -1.3436
   71MOL   H26527005   2.669   5.606   7.000 -0.3148 -0.6692  0.3092
   71MOL   H26627006   2.376   5.337   6.939  0.4929  0.4128  3.3044
   71MOL   H26727007   2.482   5.445   7.017 -2.8049  0.0915  3.4322
   71MOL   C26827008   2.286   5.525   7.013  0.6340 -0.1303  0.0324
   71MOL   C26927009   2.319   5.665   7.060 -0.6064 -0.1398  0.7381
   71MOL   C27027010   2.399   5.671   7.193  0.3752  0.3602  0.3358
   71MOL   C27127011   2.387   5.813   7.234  0.1384 -0.6170 -0.0671
   71MOL   C27227012   2.261   5.874   7.168 -0.5642 -0.5002 -0.3833
   71MOL   C27327013   2.204   5.762   7.080  0.4132  0.3174  0.3471
   71MOL   C27427014   2.189   5.448   7.098  0.1709  1.0693 -0.2280
   71MOL   H27527015   2.218   5.536   6.928 -0.1320 -1.6323  0.4175
   71MOL   H27627016   2.387   5.709   6.988 -1.2405  2.4736  1.6866
   71MOL   H27727017   2.359   5.603   7.268 -2.2457  0.0563 -1.2665
   71MOL   H27827018   2.501   5.638   7.173 -0.0954 -0.7149 -0.3183
   71MOL   H27927019   2.376   5.823   7.342  0.9364 -0.0223 -0.0407
   71MOL   H28027020   2.475   5.874   7.214 -1.1404  1.0318 -0.7734
   71MOL   H28127021   2.286   5.964   7.111 -1.0196  0.1019  0.3621
   71MOL   H28227022   2.185   5.901   7.241 -0.1195 -0.6882  0.1492
   71MOL   H28327023   2.183   5.797   6.979  2.7501 -0.5119 -0.4551
   71MOL   H28427024   2.116   5.724   7.133  0.1737  1.0359  0.4730
   71MOL   H28527025   2.113   5.514   7.142  0.3380  0.9859  0.1888
   71MOL   H28627026   2.250   5.408   7.179 -0.2755 -1.8996 -1.3166
   71MOL   C28727027   2.096   5.338   7.027  0.8342  0.0009 -0.7415
   71MOL   C28827028   2.111   5.195   7.091 -0.1057  0.0750  0.1728
   71MOL   C28927029   2.033   5.089   7.012  0.2606 -0.1008  0.0383
   71MOL   C29027030   2.100   4.951   7.045  0.4013 -0.5378 -0.3424
   71MOL   C29127031   2.224   4.987   7.133 -0.5661 -0.4626 -0.5887
   71MOL   C29227032   2.253   5.135   7.105  0.5780 -0.1580 -0.2135
   71MOL   C29327033   1.943   5.381   7.025  0.0341 -0.5837 -0.0256
   71MOL   H29427034   2.130   5.331   6.924 -0.2884 -2.3242 -0.9811
   71MOL   H29527035   2.086   5.206   7.197 -1.0219  0.2110 -0.0579
   71MOL   H29627036   1.926   5.085   7.033  0.2517  2.0387  0.5896
   71MOL   H29727037   2.021   5.102   6.904  2.7699 -1.7648 -0.4834
   71MOL   H29827038   2.034   4.883   7.100  1.4760 -1.1217  0.2431
   71MOL   H29927039   2.139   4.907   6.953 -2.2617 -1.0666 -1.2745
   71MOL   H30027040   2.315   4.928   7.131 -0.9285 -1.1021  1.3977
   71MOL   H30127041   2.188   4.979   7.235 -1.3356  1.2245 -0.6923
   71MOL   H30227042   2.312   5.140   7.013  0.0511  0.7796 -0.5072
   71MOL   H30327043   2.306   5.181   7.188 -0.1393 -0.3911  0.3775
   71MOL   H30427044   1.904   5.379   7.127  1.6884 -2.2666  0.5897
   71MOL   H30527045   1.880   5.314   6.967  0.2602 -0.8836  0.0809
   71MOL   C30627046   1.914   5.516   6.957  0.4358  0.5384  0.5555
   71MOL   C30727047   1.954   5.515   6.804  0.1624  0.1497  0.4239
   71MOL   C30827048   1.846   5.444   6.720  0.1720 -0.4871 -0.7098
   71MOL   C30927049   1.844   5.515   6.588 -0.2218  0.0569 -0.9307
   71MOL   C31027050   1.865   5.661   6.622  0.1698  0.6718 -0.3040
   71MOL   C31127051   1.963   5.655   6.740  0.0407  0.1364 -0.6920
   71MOL   C31227052   1.777   5.587   6.970 -0.3436  0.4215  0.0580
   71MOL   H31327053   1.986   5.586   7.000  1.0397  0.4526 -0.2920
   71MOL   H31427054   2.043   5.456   6.781 -0.1621 -0.0556 -0.3155
   71MOL   H31527055   1.748   5.465   6.763  0.0469 -2.1173 -0.1641
   71MOL   H31627056   1.849   5.335   6.723 -0.7211 -0.4853  1.0134
   71MOL   H31727057   1.914   5.467   6.520  0.5526  0.0393 -0.1205
   71MOL   H31827058   1.749   5.493   6.538  0.1652  0.4939 -1.8779
   71MOL   H31927059   1.772   5.707   6.655 -0.2253 -0.4011  0.0992
   71MOL   H32027060   1.896   5.720   6.536  1.0124 -0.9990 -1.1541
   71MOL   H32127061   2.063   5.668   6.698  0.5699  0.9700  0.7991
   71MOL   H32227062   1.955   5.739   6.809  0.3215 -0.0544 -0.4277
   71MOL   H32327063   1.696   5.515   6.969  2.0585 -2.3697 -0.3420
   71MOL   H32427064   1.763   5.654   6.885  0.3772 -0.7395 -0.9849
   71MOL   C32527065   1.768   5.680   7.099  0.1428 -0.4159 -0.3478
   71MOL   C32627066   1.733   5.605   7.233 -0.5167 -0.2846 -0.3183
   71MOL   C32727067   1.600   5.544   7.239  0.6168  0.2253  0.3679
   71MOL   C32827068   1.582   5.529   7.399 -0.0275 -0.0108 -0.1866
   71MOL   C32927069   1.679   5.618   7.474 -0.3757 -0.7289 -0.1843
   71MOL   C33027070   1.763   5.682   7.363  0.0338  0.2005  0.3540
   71MOL   C33127071   1.693   5.812   7.081  0.4892  0.5960 -0.8143
   71MOL   H33227072   1.871   5.710   7.120  0.0386 -0.9320  0.9251
   71MOL   H33327073   1.811   5.529   7.232  0.5486  0.7939 -0.2404
   71MOL   H33427074   1.610   5.452   7.180 -0.7280  0.7816 -0.7468
   71MOL   H33527075   1.525   5.615   7.206  0.2562 -0.4599 -0.3172
   71MOL   H33627076   1.600   5.426   7.428 -2.4820 -0.8278 -1.4318
   71MOL   H33727077   1.477   5.537   7.425  0.3449 -2.5542  2.3675
   71MOL   H33827078   1.739   5.567   7.550  2.0088  1.3167 -0.6470
   71MOL   H33927079   1.621   5.699   7.517 -1.9650  0.2687 -3.9917
   71MOL   H34027080   1.868   5.687   7.394  0.0631  0.2386  0.2465
   71MOL   H34127081   1.730   5.785   7.353 -0.8727 -0.1086  0.1358
   71MOL   H34227082   1.661   5.862   7.171 -2.0203  0.2352 -1.4750
   71MOL   H34327083   1.598   5.797   7.029 -0.7440  1.2274  1.2076
   71MOL   C34427084   1.774   5.934   7.019  0.0902  0.2788 -0.0612
   71MOL   C34527085   1.860   6.010   7.121  0.5376 -0.0072  0.6559
   71MOL   C34627086   1.798   6.085   7.232  0.3294  0.3469 -0.6912
   71MOL   C34727087   1.853   6.226   7.243  0.2290 -0.7099 -0.2940
   71MOL   C34827088   1.984   6.222   7.160  0.5407  0.0304 -0.9533
   71MOL   C34927089   1.957   6.111   7.055  0.5408 -0.0957 -0.7090
   71MOL   C35027090   1.678   6.018   6.940 -0.1625 -0.0275  0.1544
   71MOL   H35127091   1.845   5.892   6.948 -0.0864 -1.8200  0.9589
   71MOL   H35227092   1.926   5.937   7.168  0.9774  0.1402  0.2731
   71MOL   H35327093   1.809   6.026   7.323  0.6478  0.2182 -0.8108
   71MOL   H35427094   1.690   6.098   7.224 -0.0610 -2.5846 -0.7755
   71MOL   H35527095   1.790   6.285   7.176 -0.6752  0.4106  1.4852
   71MOL   H35627096   1.856   6.286   7.335  1.9439  0.1122 -0.8536
   71MOL   H35727097   2.062   6.189   7.228 -0.0968 -0.4191 -0.4216
   71MOL   H35827098   2.009   6.320   7.120  1.5548  0.9711  1.8629
   71MOL   H35927099   1.917   6.167   6.970 -1.2459  0.9347  0.7643
   71MOL   H36027100   2.046   6.062   7.015  1.3085  1.2223 -0.6489
   71MOL   H36127101   1.693   6.125   6.952  0.0348 -0.3918  3.8517
   71MOL   H36227102   1.585   5.994   6.991  1.0829  1.2499  3.1418
   71MOL   C36327103   1.656   5.981   6.789 -0.2594  0.4824  0.7905
   71MOL   C36427104   1.526   6.042   6.724 -0.2195 -0.1058 -0.2219
   71MOL   C36527105   1.498   5.964   6.592 -0.0111  0.0804 -0.5313
   71MOL   C36627106   1.499   6.067   6.478 -0.1225 -0.1300 -0.3946
   71MOL   C36727107   1.457   6.199   6.543  1.0601 -0.0123  0.2442
   71MOL   C36827108   1.521   6.190   6.684  0.5406 -0.7240 -0.2379
   71MOL   C36927109   1.785   6.022   6.711 -0.9003  0.1338 -0.2452
   71MOL   H37027110   1.639   5.873   6.788 -0.0614  0.4477  1.0486
   71MOL   H37127111   1.443   6.026   6.794  0.1139 -0.0296  0.1933
   71MOL   H37227112   1.575   5.889   6.571  1.4771  0.5135  3.0640
   71MOL   H37327113   1.396   5.929   6.599  0.4869 -0.8230  3.3817
   71MOL   H37427114   1.594   6.081   6.426  1.0595 -1.1570  1.4182
   71MOL   H37527115   1.424   6.039   6.404  0.4910  3.1223 -2.3505
   71MOL   H37627116   1.482   6.290   6.488  0.0724 -0.3167 -0.7205
   71MOL   H37727117   1.348   6.197   6.554  0.9975 -3.3977 -0.7392
   71MOL   H37827118   1.468   6.249   6.758  0.3604 -2.1497  0.7904
   71MOL   H37927119   1.622   6.230   6.670  0.2730 -0.4980 -1.6508
   71MOL   H38027120   1.812   6.125   6.732  1.3666 -0.2270 -1.1745
   71MOL   H38127121   1.784   6.012   6.603 -0.8409 -0.7756 -0.1682
   71MOL   H38227122   1.868   5.956   6.736  0.2369  0.7372 -2.3133
   72MOL     C127123   5.953   3.703   1.579 -0.2038  0.2038 -0.0106
   72MOL     C227124   6.047   3.803   1.654 -0.1193 -0.1925 -0.0520
   72MOL     C327125   5.959   3.924   1.687  0.7992 -0.6314  0.0995
   72MOL     C427126   6.061   4.039   1.698  0.7491  0.0408 -0.4944
   72MOL     C527127   6.180   4.010   1.601  0.7701  0.2336 -0.3394
   72MOL     C627128   6.171   3.857   1.578  0.4454  0.5694  0.9001
   72MOL     C727129   6.004   3.556   1.572 -0.3936 -0.5424  1.1793
   72MOL     H827130   5.856   3.696   1.629 -0.4821  0.6213 -0.4912
   72MOL     H927131   6.077   3.757   1.748  0.1281  1.6206  0.7968
   72MOL    H1027132   5.887   3.938   1.607  0.6136 -1.5279  0.1045
   72MOL    H1127133   5.904   3.905   1.779 -1.4522 -1.4661 -1.3820
   72MOL    H1227134   5.998   4.126   1.676  0.6747 -0.0964 -0.8372
   72MOL    H1327135   6.098   4.062   1.798  2.4096 -1.2507 -0.8058
   72MOL    H1427136   6.173   4.073   1.511  1.0117 -0.2302 -0.6819
   72MOL    H1527137   6.273   4.038   1.649  0.0409 -1.0497  1.8543
   72MOL    H1627138   6.260   3.800   1.606 -0.4902 -0.1617  2.4682
   72MOL    H1727139   6.154   3.851   1.471  1.5574  0.9730  0.6928
   72MOL    H1827140   6.068   3.534   1.657 -1.4206 -2.1498  1.5492
   72MOL    H1927141   5.916   3.500   1.602  1.1695 -4.2472 -0.8479
   72MOL    H2027142   5.929   3.745   1.481 -0.2132 -2.2386 -1.0940
   72MOL    C2127143   6.064   3.522   1.433 -0.9228 -0.3747  0.0879
   72MOL    C2227144   6.211   3.478   1.453 -0.1323  0.2250 -0.4512
   72MOL    C2327145   6.290   3.482   1.321 -0.5089 -0.1568 -0.1563
   72MOL    C2427146   6.419   3.390   1.344  0.3994  0.5045  0.5508
   72MOL    C2527147   6.356   3.274   1.419  0.0574  0.2936 -0.0148
   72MOL    C2627148   6.228   3.327   1.495 -0.6150  0.3375  0.2937
   72MOL    C2727149   5.959   3.433   1.350  0.1506  0.5374  0.1658
   72MOL    H2827150   6.073   3.624   1.396  0.4210  0.2558  2.0486
   72MOL    H2927151   6.267   3.545   1.518 -0.0674 -1.1491  0.9482
   72MOL    H3027152   6.293   3.586   1.286  0.1506 -0.3920 -0.8234
   72MOL    H3127153   6.221   3.442   1.247  2.5377 -2.1029 -2.0131
   72MOL    H3227154   6.468   3.374   1.248 -0.7117 -2.0203  0.3828
   72MOL    H3327155   6.490   3.444   1.407  1.0969 -0.8322  0.9133
   72MOL    H3427156   6.427   3.232   1.490  0.5255 -0.9472 -1.2019
   72MOL    H3527157   6.332   3.191   1.353 -1.1063  1.5055 -1.1656
   72MOL    H3627158   6.234   3.311   1.602  1.4149 -0.4657  0.0928
   72MOL    H3727159   6.144   3.272   1.454  1.0247 -0.7126 -1.7935
   72MOL    H3827160   6.001   3.400   1.255 -1.3143 -1.4604  0.1843
   72MOL    H3927161   5.943   3.343   1.409 -0.2271  0.7963  0.4624
   72MOL    C4027162   5.816   3.482   1.328  0.7327  0.1951 -0.1136
   72MOL    C4127163   5.797   3.561   1.185  0.1660 -0.5135  0.7593
   72MOL    C4227164   5.661   3.618   1.145  0.0995 -0.0046 -0.7623
   72MOL    C4327165   5.683   3.667   1.001  0.3863 -0.3115 -0.0035
   72MOL    C4427166   5.791   3.583   0.945 -1.0511 -0.1096  0.5333
   72MOL    C4527167   5.834   3.487   1.059  0.0481 -0.0373  0.8800
   72MOL    C4627168   5.706   3.373   1.339  0.8289  0.9789 -0.0336
   72MOL    H4727169   5.792   3.561   1.399  0.4355  0.0752 -0.0809
   72MOL    H4827170   5.874   3.638   1.195 -0.8008  0.5588  0.1325
   72MOL    H4927171   5.644   3.700   1.214 -1.9442  1.1001 -2.5460
   72MOL    H5027172   5.571   3.557   1.151  0.1393  0.0578  0.4709
   72MOL    H5127173   5.716   3.771   1.003 -1.4346  0.3162 -1.1106
   72MOL    H5227174   5.598   3.656   0.933  0.4399  1.7172 -0.4550
   72MOL    H5327175   5.750   3.522   0.864 -0.7362 -1.3142  1.2696
   72MOL    H5427176   5.878   3.643   0.918 -1.6650  0.4164 -0.2956
   72MOL    H5527177   5.781   3.393   1.043 -1.4909  0.8956  0.3338
   72MOL    H5627178   5.937   3.460   1.040 -0.4588 -1.4439  0.0406
   72MOL    H5727179   5.678   3.328   1.244 -0.8379 -0.5764  1.1674
   72MOL    H5827180   5.748   3.288   1.393 -0.8649  0.1636  0.0125
   72MOL    C5927181   5.580   3.405   1.421 -0.5046 -0.0668  0.5568
   72MOL    C6027182   5.456   3.329   1.364  0.8211 -0.1002 -0.0135
   72MOL    C6127183   5.457   3.178   1.380  0.0124  0.8732  0.0867
   72MOL    C6227184   5.323   3.137   1.313 -0.4839  0.0033  1.0156
   72MOL    C6327185   5.307   3.238   1.199 -0.6689  0.6625 -0.6072
   72MOL    C6427186   5.410   3.352   1.221  0.3083  0.9183  0.4734
   72MOL    C6527187   5.604   3.384   1.575 -0.3578  1.0308 -0.1807
   72MOL    H6627188   5.574   3.512   1.397 -2.1298 -0.7202 -2.1347
   72MOL    H6727189   5.366   3.355   1.420 -0.1656 -1.1944 -1.0688
   72MOL    H6827190   5.461   3.148   1.485 -1.6720 -1.3051 -0.4401
   72MOL    H6927191   5.537   3.135   1.321  0.6186  0.5255  1.1558
   72MOL    H7027192   5.239   3.146   1.382 -0.5932 -1.1610  1.0537
   72MOL    H7127193   5.327   3.033   1.280  0.7459 -0.5354  2.8043
   72MOL    H7227194   5.210   3.283   1.178 -0.1103  2.1188 -0.1288
   72MOL    H7327195   5.333   3.198   1.101 -1.4566  1.5955 -1.2141
   72MOL    H7427196   5.492   3.324   1.155 -0.4106 -1.0704  0.3770
   72MOL    H7527197   5.388   3.455   1.194 -0.6591  0.4238 -0.6355
   72MOL    H7627198   5.697   3.438   1.592  0.0603  0.3400 -0.2873
   72MOL    H7727199   5.631   3.281   1.594 -0.0917  1.0178 -0.6265
   72MOL    C7827200   5.500   3.439   1.675  0.3639  0.3742  0.4174
   72MOL    C7927201   5.536   3.394   1.819 -0.3133 -0.1199 -0.7110
   72MOL    C8027202   5.536   3.238   1.837 -0.0375 -0.1823  0.5512
   72MOL    C8127203   5.507   3.217   1.990  0.2192  0.4635 -0.2033
   72MOL    C8227204   5.423   3.339   2.031 -0.0934  0.0800  0.2411
   72MOL    C8327205   5.427   3.436   1.918  0.3309 -0.2560 -0.0702
   72MOL    C8427206   5.486   3.593   1.660  0.0879 -0.3742 -0.0742
   72MOL    H8527207   5.400   3.396   1.664  0.0675  1.0119  0.6293
   72MOL    H8627208   5.625   3.446   1.851 -1.1355  1.3131 -0.7047
   72MOL    H8727209   5.625   3.188   1.797  1.0583  2.0096  0.1385
   72MOL    H8827210   5.453   3.206   1.775  0.8257 -1.1624 -0.1190
   72MOL    H8927211   5.604   3.210   2.040 -0.7935 -0.2815  1.7025
   72MOL    H9027212   5.457   3.120   1.998 -0.9241  1.2070  2.2482
   72MOL    H9127213   5.328   3.290   2.056  1.2553 -2.5038  0.5392
   72MOL    H9227214   5.453   3.376   2.129 -0.6660 -0.2450  0.5465
   72MOL    H9327215   5.324   3.431   1.883  0.4350  2.6108 -0.9679
   72MOL    H9427216   5.431   3.534   1.966 -2.7131  0.4038 -1.0573
   72MOL    H9527217   5.587   3.626   1.634  0.8815 -2.9882 -0.3897
   72MOL    H9627218   5.496   3.647   1.755 -0.2569  0.0308 -0.2664
   72MOL    C9727219   5.369   3.657   1.583  0.2362  0.0581  0.1642
   72MOL    C9827220   5.386   3.811   1.548  0.7265  0.7005  0.5532
   72MOL    C9927221   5.407   3.909   1.663  0.1694  0.6875 -0.1177
   72MOL   C10027222   5.537   3.982   1.637 -0.5386 -0.2455 -0.1457
   72MOL   C10127223   5.553   3.976   1.485  0.4970  0.2345 -0.0536
   72MOL   C10227224   5.497   3.837   1.444 -0.3693 -0.0469 -0.7180
   72MOL   C10327225   5.236   3.630   1.664 -0.1095  0.4591 -0.2672
   72MOL   H10427226   5.367   3.601   1.489  0.0845  1.3115 -0.5918
   72MOL   H10527227   5.299   3.840   1.489  0.1333  2.0402  2.0585
   72MOL   H10627228   5.324   3.979   1.666  1.3028  2.0448 -0.0341
   72MOL   H10727229   5.407   3.846   1.752  0.9056 -0.3799 -0.8473
   72MOL   H10827230   5.623   3.931   1.681 -0.0469  0.8554  0.1924
   72MOL   H10927231   5.548   4.083   1.676  1.3022 -0.2426 -0.6312
   72MOL   H11027232   5.660   3.978   1.468  0.4910  0.8625 -0.0165
   72MOL   H11127233   5.495   4.058   1.441  1.8585  1.3130  0.1278
   72MOL   H11227234   5.465   3.835   1.340  0.3218  0.3109 -0.9423
   72MOL   H11327235   5.580   3.767   1.456  0.6407  1.5117  1.8446
   72MOL   H11427236   5.234   3.526   1.697 -1.6010  0.9348  1.2231
   72MOL   H11527237   5.236   3.682   1.760 -0.3028  0.4719 -0.2738
   72MOL   C11627238   5.100   3.662   1.601 -0.3048 -0.5447  0.1447
   72MOL   C11727239   5.077   3.549   1.498 -0.7325  0.1201  0.3759
   72MOL   C11827240   5.051   3.408   1.558  0.8518 -0.7523 -0.0458
   72MOL   C11927241   4.974   3.337   1.451  0.4955 -0.2585 -0.1420
   72MOL   C12027242   4.889   3.444   1.391  0.3138 -0.2693  0.6714
   72MOL   C12127243   4.964   3.574   1.394 -0.0178  0.2321  0.0571
   72MOL   C12227244   4.987   3.668   1.705 -0.5479 -0.3794  0.2693
   72MOL   H12327245   5.091   3.758   1.551 -0.1437 -0.5068  0.1899
   72MOL   H12427246   5.170   3.550   1.440 -0.0514  2.5448  1.4394
   72MOL   H12527247   5.137   3.353   1.598  0.3485 -0.5917  1.2880
   72MOL   H12627248   4.994   3.412   1.651 -0.3451 -1.8737 -0.7275
   72MOL   H12727249   4.924   3.254   1.501  2.2124 -0.2751  1.6058
   72MOL   H12827250   5.035   3.299   1.369 -0.4114  1.0788 -1.4513
   72MOL   H12927251   4.790   3.445   1.437 -0.2351 -0.1272 -0.4862
   72MOL   H13027252   4.862   3.415   1.289 -1.8368  0.9003  0.8636
   72MOL   H13127253   5.016   3.595   1.301  0.9725 -0.5446  0.4226
   72MOL   H13227254   4.894   3.652   1.424  2.3929  1.3303  3.1318
   72MOL   H13327255   4.986   3.586   1.777 -0.3494 -0.3201  0.3399
   72MOL   H13427256   4.893   3.672   1.650 -0.8518  1.1898  0.9067
   72MOL   C13527257   4.981   3.801   1.789  0.5709 -0.7141 -0.3957
   72MOL   C13627258   4.972   3.771   1.943  0.0499  0.4827 -0.2642
   72MOL   C13727259   5.092   3.702   2.011 -0.3035 -0.3987  0.5042
   72MOL   C13827260   5.047   3.658   2.149 -0.3669 -1.0556 -0.3516
   72MOL   C13927261   4.896   3.638   2.139  0.8592  0.3862  0.2581
   72MOL   C14027262   4.849   3.693   2.002  0.0195  0.0287  0.0836
   72MOL   C14127263   4.855   3.889   1.764 -0.2856 -0.5881  0.0571
   72MOL   H14227264   5.072   3.858   1.772 -0.1668  0.3417 -0.8397
   72MOL   H14327265   4.977   3.871   1.987 -1.7981 -0.2146  1.5965
   72MOL   H14427266   5.107   3.608   1.957 -1.8365 -2.2229  3.0916
   72MOL   H14527267   5.184   3.759   2.023 -1.4890  1.7336 -0.2718
   72MOL   H14627268   5.075   3.730   2.225 -0.4148  1.4649 -2.6449
   72MOL   H14727269   5.087   3.561   2.180 -1.3993 -1.4261 -0.1662
   72MOL   H14827270   4.838   3.687   2.218 -0.4229  1.0126 -1.0311
   72MOL   H14927271   4.872   3.532   2.146 -3.2754  1.2814  1.6531
   72MOL   H15027272   4.821   3.607   1.942 -2.0650  1.6031 -1.2737
   72MOL   H15127273   4.763   3.759   2.016 -2.2342 -3.2112  2.2589
   72MOL   H15227274   4.833   3.955   1.848  1.5617  0.2591 -0.0991
   72MOL   H15327275   4.768   3.824   1.758 -1.3811  0.9255 -0.7920
   72MOL   C15427276   4.855   3.976   1.635 -0.0522 -0.3463  0.4894
   72MOL   C15527277   4.729   3.959   1.552  0.2163  0.7663  0.6570
   72MOL   C15627278   4.610   4.031   1.603  0.8599 -0.3192  0.2052
   72MOL   C15727279   4.492   3.971   1.530  0.2214 -0.3587  0.6475
   72MOL   C15827280   4.534   3.827   1.536 -0.2211  1.1246 -0.0517
   72MOL   C15927281   4.676   3.822   1.509 -0.9096  0.5293 -0.1402
   72MOL   C16027282   4.892   4.115   1.663 -0.2036  0.2293  0.1579
   72MOL   H16127283   4.930   3.931   1.570  1.9394  0.7667  1.9355
   72MOL   H16227284   4.744   4.009   1.456 -1.9925  0.1478 -0.0383
   72MOL   H16327285   4.587   4.030   1.709 -2.5241 -1.5064 -0.4770
   72MOL   H16427286   4.613   4.138   1.581 -1.8274 -0.3438 -0.4603
   72MOL   H16527287   4.391   3.975   1.571  0.4383  1.4713  1.0044
   72MOL   H16627288   4.481   4.019   1.433 -0.5748 -1.3410  0.2333
   72MOL   H16727289   4.476   3.763   1.469  1.6050 -2.7984  1.9675
   72MOL   H16827290   4.519   3.789   1.637 -1.6290  2.1166  0.1327
   72MOL   H16927291   4.703   3.815   1.403 -2.1921  1.3698 -0.5283
   72MOL   H17027292   4.722   3.737   1.559 -0.4781 -0.2967 -1.9203
   72MOL   H17127293   4.991   4.115   1.709 -0.4443  0.7080  0.6914
   72MOL   H17227294   4.823   4.153   1.739 -2.7563 -1.8364 -1.0593
   72MOL   C17327295   4.900   4.215   1.539  0.5975 -0.1899  0.3022
   72MOL   C17427296   5.001   4.179   1.426  0.0130  0.9572  0.0035
   72MOL   C17527297   5.144   4.147   1.468 -0.5957 -0.4756 -0.2866
   72MOL   C17627298   5.226   4.152   1.342 -0.2041  0.5417 -0.0927
   72MOL   C17727299   5.143   4.215   1.230 -0.6338 -0.0430  0.1185
   72MOL   C17827300   5.011   4.259   1.296  0.2332  0.0272 -0.1722
   72MOL   C17927301   4.919   4.358   1.591  0.6055 -0.4813 -0.2790
   72MOL   H18027302   4.805   4.207   1.487  1.0755  1.6580 -0.8851
   72MOL   H18127303   4.970   4.081   1.389  2.3051 -0.3064  1.2945
   72MOL   H18227304   5.153   4.054   1.524  3.4505 -0.1467 -0.2281
   72MOL   H18327305   5.172   4.231   1.532  0.9060 -2.9285  2.4146
   72MOL   H18427306   5.319   4.208   1.352 -1.1282  2.3811 -1.4775
   72MOL   H18527307   5.248   4.050   1.309  0.0108 -0.0314  1.7517
   72MOL   H18627308   5.130   4.142   1.150 -0.2234  1.2774 -1.1831
   72MOL   H18727309   5.198   4.304   1.202 -0.3591 -0.8812 -2.1233
   72MOL   H18827310   5.008   4.364   1.324 -1.0683  0.1760 -0.8368
   72MOL   H18927311   4.932   4.234   1.225  0.9012 -1.0844 -0.5384
   72MOL   H19027312   5.006   4.364   1.657  0.0686 -2.4221  0.6624
   72MOL   H19127313   4.963   4.418   1.512 -1.0562 -1.4539 -1.9945
   72MOL   C19227314   4.792   4.432   1.644  0.5724 -0.8183 -0.1133
   72MOL   C19327315   4.686   4.450   1.527  0.7130  0.3419 -0.1714
   72MOL   C19427316   4.716   4.549   1.418  0.5673  0.0268 -0.2836
   72MOL   C19527317   4.583   4.568   1.336  0.2753  0.4906 -0.3620
   72MOL   C19627318   4.476   4.523   1.436 -0.3902  0.4139  0.1472
   72MOL   C19727319   4.544   4.489   1.572 -0.0663  0.3524  0.3731
   72MOL   C19827320   4.833   4.570   1.709 -0.0080 -0.4321  0.1749
   72MOL   H19927321   4.736   4.371   1.715  1.0986  1.0742  1.9997
   72MOL   H20027322   4.663   4.357   1.475 -1.4838  0.7334  0.0604
   72MOL   H20127323   4.790   4.510   1.349 -1.8491 -4.0293 -0.7445
   72MOL   H20227324   4.749   4.641   1.465  0.2350 -0.0819  0.1729
   72MOL   H20327325   4.592   4.672   1.305 -0.0859 -0.0347 -2.2991
   72MOL   H20427326   4.577   4.516   1.240  0.3794  0.6103 -0.4335
   72MOL   H20527327   4.442   4.431   1.389  0.4945  1.0376 -1.7846
   72MOL   H20627328   4.392   4.592   1.443  0.1093  0.9763  0.6226
   72MOL   H20727329   4.490   4.417   1.633 -0.7007  0.0186 -0.5786
   72MOL   H20827330   4.534   4.583   1.626 -0.9119  2.2544 -2.9639
   72MOL   H20927331   4.894   4.627   1.639 -1.3228 -0.6177 -1.1544
   72MOL   H21027332   4.740   4.628   1.711 -0.2777 -0.8848  0.8732
   72MOL   C21127333   4.884   4.567   1.847 -0.5670  0.1851 -0.4426
   72MOL   C21227334   4.959   4.693   1.903  0.6069 -0.4513 -0.6185
   72MOL   C21327335   5.105   4.720   1.842  0.3489 -0.3589 -0.5150
   72MOL   C21427336   5.109   4.879   1.833  0.1334  0.4216 -0.4343
   72MOL   C21527337   4.981   4.932   1.906 -0.3432  0.4537 -0.4402
   72MOL   C21627338   4.875   4.821   1.881  0.8122 -0.3611  0.1330
   72MOL   C21727339   4.781   4.515   1.951 -0.1625  0.1227  0.1499
   72MOL   H21827340   4.966   4.495   1.856 -1.1922 -0.5818 -0.8508
   72MOL   H21927341   4.971   4.690   2.011 -0.1045 -0.6332 -0.5467
   72MOL   H22027342   5.190   4.681   1.898  1.2853  1.6416 -0.4689
   72MOL   H22127343   5.123   4.672   1.746 -0.7124 -0.2740 -0.7571
   72MOL   H22227344   5.196   4.927   1.876 -0.3151  0.6620  0.2191
   72MOL   H22327345   5.106   4.904   1.727 -0.1633  0.0748 -0.5094
   72MOL   H22427346   4.949   5.031   1.876 -1.2412  0.4774  0.5440
   72MOL   H22527347   5.002   4.941   2.012  0.2968 -2.9161 -0.2113
   72MOL   H22627348   4.800   4.838   1.958  0.0683  0.8881 -0.8394
   72MOL   H22727349   4.839   4.829   1.778  0.1418  0.6152  0.4264
   72MOL   H22827350   4.683   4.545   1.914  0.7316 -0.1487 -2.5379
   72MOL   H22927351   4.790   4.561   2.049 -0.1830  1.2727 -0.3820
   72MOL   C23027352   4.794   4.362   1.993 -0.1661 -0.3616 -0.1107
   72MOL   C23127353   4.650   4.303   2.023  0.0400 -0.6953 -0.3637
   72MOL   C23227354   4.551   4.294   1.900 -0.4370 -0.3124 -0.7943
   72MOL   C23327355   4.441   4.196   1.939  0.5502  0.6885  0.7561
   72MOL   C23427356   4.495   4.117   2.053 -0.1578 -0.9227 -0.0824
   72MOL   C23527357   4.640   4.158   2.075  0.4719  0.0911 -0.6586
   72MOL   C23627358   4.892   4.349   2.117  0.5267  0.0682  0.3892
   72MOL   H23727359   4.835   4.291   1.921 -0.6766 -2.0074  1.1669
   72MOL   H23827360   4.600   4.370   2.093 -1.1726 -0.1287 -1.7346
   72MOL   H23927361   4.515   4.387   1.855  1.6556 -1.0301 -4.1296
   72MOL   H24027362   4.593   4.249   1.810 -0.1692  2.7670 -2.2845
   72MOL   H24127363   4.354   4.253   1.972  0.1615  0.8834 -0.6021
   72MOL   H24227364   4.418   4.123   1.862  1.6729  0.4117  0.6730
   72MOL   H24327365   4.492   4.008   2.048  2.7666 -1.1065  1.3452
   72MOL   H24427366   4.435   4.147   2.139 -1.3310 -0.8836 -0.8950
   72MOL   H24527367   4.709   4.091   2.025 -0.8728 -2.1538  0.4268
   72MOL   H24627368   4.670   4.164   2.180  0.0094 -2.4313 -0.3551
   72MOL   H24727369   4.893   4.245   2.152  0.2127  0.1120  0.5331
   72MOL   H24827370   4.843   4.406   2.197  0.6450 -2.1617  2.1138
   72MOL   C24927371   5.038   4.388   2.113  0.4478 -0.0873 -0.2592
   72MOL   C25027372   5.118   4.300   2.025  0.4416  0.6341 -0.1984
   72MOL   C25127373   5.133   4.152   2.073 -0.0200  0.2007  0.5692
   72MOL   C25227374   5.259   4.103   2.005  0.0535 -0.1099 -0.3924
   72MOL   C25327375   5.324   4.214   1.924  0.1910  0.2947 -0.3218
   72MOL   C25427376   5.266   4.340   1.987 -0.0989 -0.6077 -0.1894
   72MOL   C25527377   5.093   4.401   2.254  0.0523  0.1797  0.2990
   72MOL   H25627378   5.046   4.481   2.057 -0.0056 -0.4924 -0.9931
   72MOL   H25727379   5.063   4.300   1.931  0.1200  0.6683 -0.0101
   72MOL   H25827380   5.048   4.087   2.053  0.4324  0.6215 -3.1524
   72MOL   H25927381   5.151   4.146   2.180 -0.1469  0.0093  0.5790
   72MOL   H26027382   5.254   4.016   1.939  0.5086  0.2965 -0.9711
   72MOL   H26127383   5.328   4.058   2.076  0.0091  1.1942  0.4784
   72MOL   H26227384   5.303   4.203   1.818 -0.5080  0.0314 -0.1577
   72MOL   H26327385   5.432   4.220   1.935  0.3753  0.1006 -1.9376
   72MOL   H26427386   5.279   4.419   1.913  1.8149 -1.0986 -0.4139
   72MOL   H26527387   5.320   4.371   2.076 -1.5777  0.6903  0.2629
   72MOL   H26627388   5.069   4.319   2.322  1.5604 -1.2118 -0.8223
   72MOL   H26727389   5.201   4.392   2.253 -0.0549 -1.0335 -1.1841
   72MOL   C26827390   5.057   4.542   2.312 -0.2663 -0.7853 -0.6988
   72MOL   C26927391   5.132   4.661   2.246  0.3108 -0.3061 -0.2817
   72MOL   C27027392   5.282   4.664   2.263 -0.2365  0.1314  0.0180
   72MOL   C27127393   5.317   4.810   2.237 -0.0271  0.2230  0.0014
   72MOL   C27227394   5.199   4.901   2.281 -0.4912  0.2587  0.4177
   72MOL   C27327395   5.076   4.805   2.287 -0.2748  0.1331 -0.6288
   72MOL   C27427396   5.077   4.546   2.465 -0.0884 -0.5966 -0.2882
   72MOL   H27527397   4.953   4.563   2.289 -0.0846  0.2530 -0.5977
   72MOL   H27627398   5.130   4.656   2.138  0.1950  1.7880 -0.3925
   72MOL   H27727399   5.301   4.648   2.369  2.4473  1.3062 -0.2454
   72MOL   H27827400   5.340   4.588   2.210  0.7723 -0.2758  1.6703
   72MOL   H27927401   5.413   4.843   2.278 -0.9028 -0.2783  2.5811
   72MOL   H28027402   5.309   4.824   2.129  0.6386 -1.4481 -0.2697
   72MOL   H28127403   5.185   4.993   2.224 -1.5913  1.2351  2.2123
   72MOL   H28227404   5.220   4.930   2.385 -0.9086  1.1969  0.2409
   72MOL   H28327405   4.986   4.846   2.240 -0.5017  0.7138  0.2946
   72MOL   H28427406   5.047   4.808   2.392  0.8753  3.3881 -0.3234
   72MOL   H28527407   5.099   4.644   2.508 -0.3710 -0.6415 -0.0433
   72MOL   H28627408   5.174   4.498   2.481 -0.5982 -1.9109 -1.0656
   72MOL   C28727409   4.962   4.488   2.553 -0.4947  1.3566 -0.0995
   72MOL   C28827410   5.026   4.389   2.654  0.8723  0.2300  0.1094
   72MOL   C28927411   5.146   4.438   2.730 -0.4663  0.2473 -0.4261
   72MOL   C29027412   5.125   4.396   2.874 -0.4236 -0.0114  0.5152
   72MOL   C29127413   5.023   4.278   2.872  0.6989  0.1809  0.4787
   72MOL   C29227414   4.931   4.332   2.762 -0.1963  0.0651  0.3091
   72MOL   C29327415   4.881   4.599   2.613  0.0190  0.0098 -0.0697
   72MOL   H29427416   4.897   4.425   2.491  0.4397 -1.9801  2.1570
   72MOL   H29527417   5.068   4.305   2.600 -2.6349 -1.6699  0.1782
   72MOL   H29627418   5.233   4.385   2.691 -2.1420 -1.7581 -1.5800
   72MOL   H29727419   5.171   4.543   2.723  0.4742 -0.0995 -2.9045
   72MOL   H29827420   5.219   4.361   2.916  0.6794 -1.1887 -2.7841
   72MOL   H29927421   5.082   4.480   2.929 -0.2339 -1.0415  2.2695
   72MOL   H30027422   4.971   4.258   2.966  2.6354 -2.0430  1.1001
   72MOL   H30127423   5.064   4.182   2.841 -1.3926  0.4548 -3.4370
   72MOL   H30227424   4.878   4.412   2.813  1.4297  0.8855  0.7374
   72MOL   H30327425   4.863   4.259   2.719  0.1067  0.4383 -0.8102
   72MOL   H30427426   4.874   4.684   2.544  1.4618  2.0365  2.1809
   72MOL   H30527427   4.930   4.638   2.702 -3.7975  3.2715  0.7655
   72MOL   C30627428   4.730   4.567   2.624  0.2155 -0.5491  0.1751
   72MOL   C30727429   4.654   4.661   2.726  0.3937 -0.3497 -0.3286
   72MOL   C30827430   4.674   4.625   2.875  0.4792 -0.6747 -0.4414
   72MOL   C30927431   4.634   4.743   2.961  0.6361  0.1673 -0.4434
   72MOL   C31027432   4.625   4.861   2.860  0.5608 -0.1664 -0.4399
   72MOL   C31127433   4.669   4.810   2.719 -0.6565  0.9906  0.1409
   72MOL   C31227434   4.674   4.587   2.469  0.0300 -0.5860 -1.1679
   72MOL   H31327435   4.708   4.467   2.661 -4.2449  0.6795  1.1314
   72MOL   H31427436   4.546   4.650   2.713  0.2287 -1.5292  1.7645
   72MOL   H31527437   4.782   4.614   2.884  0.6533  0.7468 -0.7691
   72MOL   H31627438   4.622   4.536   2.911 -0.8188  0.7689  1.3240
   72MOL   H31727439   4.550   4.735   3.030 -0.8151 -0.2370 -2.2022
   72MOL   H31827440   4.717   4.747   3.031 -0.2737  1.3814  0.5913
   72MOL   H31927441   4.684   4.948   2.887  1.6149 -0.5154 -1.5565
   72MOL   H32027442   4.517   4.876   2.847  0.1353 -2.2184  0.4549
   72MOL   H32127443   4.603   4.862   2.649 -1.3499 -2.0592 -1.5327
   72MOL   H32227444   4.769   4.846   2.698 -0.6483  0.7992 -0.1441
   72MOL   H32327445   4.741   4.539   2.399 -1.3629  0.3452 -3.1910
   72MOL   H32427446   4.679   4.695   2.452  0.4027 -0.4708 -0.3531
   72MOL   C32527447   4.530   4.539   2.442 -0.0860  0.3395  0.0903
   72MOL   C32627448   4.525   4.388   2.393 -0.5406 -0.8185  0.1377
   72MOL   C32727449   4.379   4.335   2.372 -0.1347  0.0985 -0.4030
   72MOL   C32827450   4.397   4.189   2.425 -0.5714 -0.3343  0.3628
   72MOL   C32927451   4.539   4.157   2.477  0.3386 -0.0400 -0.2875
   72MOL   C33027452   4.585   4.297   2.501  0.3520  0.3202 -0.0270
   72MOL   C33127453   4.473   4.634   2.332  0.4213 -0.3286 -0.2156
   72MOL   H33227454   4.471   4.549   2.533  0.3368  0.4611  0.3552
   72MOL   H33327455   4.590   4.380   2.305  3.0978  1.4655  2.4604
   72MOL   H33427456   4.345   4.342   2.269  2.0604  0.1354 -1.1459
   72MOL   H33527457   4.314   4.398   2.433  1.3739  0.9837  0.3422
   72MOL   H33627458   4.380   4.119   2.344 -2.8089  0.3322  0.2372
   72MOL   H33727459   4.326   4.169   2.505 -1.8479 -2.2315 -1.2159
   72MOL   H33827460   4.592   4.112   2.393 -2.1450  1.0108 -2.4911
   72MOL   H33927461   4.533   4.098   2.568 -0.2821  1.7498  0.8471
   72MOL   H34027462   4.692   4.316   2.499  0.4799 -0.2963  0.8761
   72MOL   H34127463   4.550   4.332   2.598  1.2867  2.4524 -0.4316
   72MOL   H34227464   4.379   4.590   2.300 -0.4943  1.5210 -0.1060
   72MOL   H34327465   4.534   4.632   2.241  0.3525  0.3352 -0.2765
   72MOL   C34427466   4.432   4.779   2.371  0.6946 -0.0934 -0.7852
   72MOL   C34527467   4.272   4.800   2.360  0.0234  0.1750 -0.0068
   72MOL   C34627468   4.183   4.693   2.435 -0.4230  0.1963 -1.0667
   72MOL   C34727469   4.082   4.644   2.331  0.1362  0.4031 -0.1728
   72MOL   C34827470   4.080   4.761   2.236 -0.2511  0.0848 -0.2678
   72MOL   C34927471   4.224   4.791   2.217  0.8243 -0.8585  0.2969
   72MOL   C35027472   4.511   4.889   2.292 -0.5253  0.1712  0.2300
   72MOL   H35127473   4.456   4.786   2.477  0.2469 -0.8275 -0.6295
   72MOL   H35227474   4.240   4.893   2.405  0.3825  0.1752  0.2468
   72MOL   H35327475   4.122   4.736   2.514  0.9072  1.4132 -0.6680
   72MOL   H35427476   4.248   4.614   2.472 -0.2102  0.4458 -0.8955
   72MOL   H35527477   4.103   4.546   2.288 -0.8177  0.1895 -0.1625
   72MOL   H35627478   3.983   4.638   2.375  0.6851 -1.0843  0.8713
   72MOL   H35727479   4.032   4.847   2.282  2.6401  2.2695 -1.1752
   72MOL   H35827480   4.026   4.746   2.143  0.8562 -2.2185 -0.5586
   72MOL   H35927481   4.264   4.712   2.153  0.1661 -0.0201 -1.2012
   72MOL   H36027482   4.237   4.887   2.168 -2.7368 -1.0310 -1.1546
   72MOL   H36127483   4.449   4.934   2.214  1.3154  0.0508 -1.3560
   72MOL   H36227484   4.594   4.838   2.243  0.8900 -0.0980  2.8582
   72MOL   C36327485   4.567   4.997   2.387 -1.0975 -0.3148  0.5254
   72MOL   C36427486   4.662   5.101   2.317 -0.3030  0.6372  0.4805
   72MOL   C36527487   4.783   5.042   2.236 -0.7949  0.3651 -0.0441
   72MOL   C36627488   4.907   5.137   2.249  0.0245 -0.1410 -0.4355
   72MOL   C36727489   4.850   5.255   2.326  0.2687 -0.3677 -0.1301
   72MOL   C36827490   4.733   5.207   2.408 -0.7089  0.1093  0.3710
   72MOL   C36927491   4.463   5.081   2.462  0.1248 -1.0534  0.4563
   72MOL   H37027492   4.630   4.936   2.452 -0.5049 -1.0817 -0.7541
   72MOL   H37127493   4.593   5.153   2.251  0.4598  2.3814  1.0168
   72MOL   H37227494   4.803   4.955   2.300  0.7241 -0.6543 -1.8506
   72MOL   H37327495   4.766   5.000   2.137 -1.9869  0.4418  0.1227
   72MOL   H37427496   4.993   5.090   2.295  0.7321  0.3422 -1.2538
   72MOL   H37527497   4.926   5.183   2.152  0.5315  1.0238  0.2024
   72MOL   H37627498   4.930   5.304   2.381  0.9526  1.4396 -2.6404
   72MOL   H37727499   4.815   5.338   2.264  0.4129  0.4291  0.8383
   72MOL   H37827500   4.671   5.295   2.425 -1.3619 -0.3752  0.4915
   72MOL   H37927501   4.770   5.155   2.496 -0.5607 -2.1707 -1.0040
   72MOL   H38027502   4.392   5.011   2.505  0.8187 -0.6200  2.4030
   72MOL   H38127503   4.408   5.150   2.398 -1.5958 -0.8778  2.0766
   72MOL   H38227504   4.499   5.148   2.541 -2.0199 -0.2281  0.7563
   73MOL     C127505   1.873   0.280   5.333  0.1522 -0.0498  0.3852
   73MOL     C227506   2.005   0.359   5.332 -0.1392  0.5015  0.7042
   73MOL     C327507   2.107   0.244   5.308 -0.3019  0.3229 -0.0838
   73MOL     C427508   2.225   0.277   5.399 -0.1219 -0.1472 -0.2563
   73MOL     C527509   2.165   0.341   5.525 -0.1081  0.5234 -0.3702
   73MOL     C627510   2.044   0.420   5.472 -0.1655  0.4144  0.3707
   73MOL     C727511   1.744   0.352   5.377 -0.3538 -0.0307  0.4282
   73MOL     H827512   1.845   0.232   5.239 -2.5207  1.8040  0.1847
   73MOL     H927513   2.017   0.423   5.244 -0.6981  0.1801  0.3862
   73MOL    H1027514   2.070   0.145   5.337 -1.4988  0.7691 -0.0544
   73MOL    H1127515   2.140   0.237   5.205 -3.0063 -1.3718 -0.8875
   73MOL    H1227516   2.286   0.190   5.421  0.2431  0.1305 -0.1543
   73MOL    H1327517   2.295   0.348   5.354 -1.3476  1.1699 -0.1027
   73MOL    H1427518   2.132   0.272   5.603  2.6376 -1.4676 -0.8988
   73MOL    H1527519   2.245   0.402   5.567  1.7973 -1.7786 -0.5403
   73MOL    H1627520   2.072   0.524   5.457  0.4894  0.0008 -1.3269
   73MOL    H1727521   1.963   0.424   5.545 -0.7405 -0.1739 -0.2292
   73MOL    H1827522   1.658   0.286   5.372  0.2896 -0.6774 -4.0247
   73MOL    H1927523   1.763   0.386   5.479  4.7898  1.1234 -0.7345
   73MOL    H2027524   1.874   0.196   5.403 -1.7733  0.6413  1.2763
   73MOL    C2127525   1.712   0.487   5.310  0.2075  0.0488 -0.2220
   73MOL    C2227526   1.666   0.460   5.169  0.4023  0.5536  0.6324
   73MOL    C2327527   1.717   0.568   5.073 -0.3361 -0.9984 -0.2057
   73MOL    C2427528   1.630   0.556   4.949 -0.8842 -0.6069 -0.0651
   73MOL    C2527529   1.497   0.517   5.006  0.3041  0.5208  0.5131
   73MOL    C2627530   1.514   0.456   5.147 -0.1085  0.9071 -0.2807
   73MOL    C2727531   1.617   0.576   5.403  0.3477  0.3745  0.6024
   73MOL    H2827532   1.804   0.545   5.297  0.0028  0.3475 -0.3506
   73MOL    H2927533   1.702   0.366   5.128 -0.2010  0.7729 -0.4125
   73MOL    H3027534   1.824   0.555   5.053 -0.1761 -2.3808  1.4384
   73MOL    H3127535   1.704   0.663   5.123  0.7600  0.1419 -2.0210
   73MOL    H3227536   1.617   0.648   4.892 -1.8395 -0.9877 -0.4732
   73MOL    H3327537   1.661   0.479   4.879 -0.0210 -0.8988  0.6327
   73MOL    H3427538   1.465   0.441   4.935 -1.0572  0.6049  1.0196
   73MOL    H3527539   1.430   0.603   5.015  0.7878  0.8133  1.4169
   73MOL    H3627540   1.478   0.353   5.151 -1.0902  1.3151  1.8396
   73MOL    H3727541   1.460   0.526   5.210 -0.9659  0.6384 -0.7032
   73MOL    H3827542   1.586   0.662   5.344  0.4392  0.2137  0.3212
   73MOL    H3927543   1.534   0.508   5.422  1.0150 -0.5486  0.2726
   73MOL    C4027544   1.665   0.629   5.542 -0.1779 -0.3533  0.0349
   73MOL    C4127545   1.808   0.692   5.539 -0.7322  0.7576 -0.3389
   73MOL    C4227546   1.880   0.697   5.673  0.4942  0.0525 -0.9422
   73MOL    C4327547   2.002   0.793   5.642  0.2681 -0.0729  0.5378
   73MOL    C4427548   1.955   0.903   5.549  0.8327 -0.3335 -0.5297
   73MOL    C4527549   1.839   0.830   5.474 -0.3570  0.6132 -0.2833
   73MOL    C4627550   1.563   0.722   5.619 -0.1874  0.9068  0.0599
   73MOL    H4727551   1.685   0.541   5.604 -0.0472  1.1452  2.1532
   73MOL    H4827552   1.866   0.625   5.476  0.1643  0.7393  0.4866
   73MOL    H4927553   1.900   0.599   5.716 -1.3873  0.1175  0.1433
   73MOL    H5027554   1.821   0.751   5.748  0.9073  0.4750 -0.9158
   73MOL    H5127555   2.074   0.731   5.589  0.7835  0.5761  0.4874
   73MOL    H5227556   2.044   0.838   5.732 -0.6276 -0.3914  1.1263
   73MOL    H5327557   1.909   0.987   5.601 -0.8213 -2.0233  0.8220
   73MOL    H5427558   2.031   0.927   5.475  0.2535 -0.2173 -1.0939
   73MOL    H5527559   1.756   0.900   5.464 -1.0761  0.0806  1.7814
   73MOL    H5627560   1.852   0.810   5.367 -0.9681 -1.3662 -0.0255
   73MOL    H5727561   1.610   0.773   5.703  0.2862  2.3218 -1.0515
   73MOL    H5827562   1.540   0.802   5.549 -1.4548 -0.1988 -0.8000
   73MOL    C5927563   1.435   0.661   5.673 -0.2437  0.6559 -0.3795
   73MOL    C6027564   1.450   0.597   5.817  1.2888  0.4005  0.6799
   73MOL    C6127565   1.571   0.517   5.850  0.2771  0.8089 -0.6666
   73MOL    C6227566   1.535   0.435   5.973  0.2946  0.1539 -0.0296
   73MOL    C6327567   1.385   0.400   5.953  0.3589  0.2549  0.1572
   73MOL    C6427568   1.332   0.507   5.853  0.2313  0.4545  0.3610
   73MOL    C6527569   1.325   0.772   5.670 -0.7235  0.4713 -0.5411
   73MOL    H6627570   1.405   0.585   5.600  0.8096 -1.3242  1.2034
   73MOL    H6727571   1.446   0.675   5.894 -0.8804  0.3108  0.6751
   73MOL    H6827572   1.657   0.577   5.880 -0.2106  0.9837  0.4124
   73MOL    H6927573   1.585   0.449   5.766 -3.0583  0.2043 -0.8055
   73MOL    H7027574   1.553   0.499   6.059  2.8023  1.6229 -1.5609
   73MOL    H7127575   1.593   0.343   5.984 -1.6855 -1.0575  0.4012
   73MOL    H7227576   1.320   0.400   6.040  0.0703  2.6624 -0.0201
   73MOL    H7327577   1.375   0.295   5.923 -0.1901  0.0368  1.0960
   73MOL    H7427578   1.297   0.453   5.765 -1.3735 -0.2934  1.4283
   73MOL    H7527579   1.247   0.558   5.898 -1.0864  1.7946 -3.4359
   73MOL    H7627580   1.345   0.841   5.751 -0.0168 -0.4541  0.0834
   73MOL    H7727581   1.241   0.721   5.716  0.2890  0.2101  1.0524
   73MOL    C7827582   1.294   0.845   5.528  0.0105 -0.8074 -0.4755
   73MOL    C7927583   1.278   0.750   5.404 -0.0892 -0.2385 -0.4743
   73MOL    C8027584   1.282   0.818   5.273 -0.1965  0.6438 -0.3047
   73MOL    C8127585   1.198   0.733   5.181 -0.3603  0.2946  0.0927
   73MOL    C8227586   1.122   0.631   5.257  0.5058 -0.4156  0.4746
   73MOL    C8327587   1.148   0.667   5.402 -0.1417  0.0991 -0.0793
   73MOL    C8427588   1.165   0.941   5.541  0.4403 -0.4287  0.6210
   73MOL    H8527589   1.379   0.912   5.514 -1.1225  0.5368 -1.0474
   73MOL    H8627590   1.353   0.671   5.403  1.1490  0.9441 -1.5610
   73MOL    H8727591   1.386   0.821   5.242  0.1385 -2.0546  0.4015
   73MOL    H8827592   1.251   0.922   5.287  0.9298  1.2384 -2.1267
   73MOL    H8927593   1.241   0.697   5.088  0.2977 -0.5052  0.6964
   73MOL    H9027594   1.120   0.795   5.137 -0.8209  0.3246  0.9430
   73MOL    H9127595   1.017   0.629   5.229  0.3298 -0.0203  1.1154
   73MOL    H9227596   1.162   0.529   5.254  2.5444  0.3179  1.6984
   73MOL    H9327597   1.055   0.717   5.429  0.4565  0.5307  1.2488
   73MOL    H9427598   1.166   0.578   5.463  1.5652  0.3498 -0.1924
   73MOL    H9527599   1.084   0.877   5.578 -0.1661 -0.7093 -1.1717
   73MOL    H9627600   1.137   0.989   5.448  1.3704  1.6043  1.3602
   73MOL    C9727601   1.182   1.064   5.638 -0.3312  0.7313 -0.7211
   73MOL    C9827602   1.059   1.080   5.737  0.3912  0.3257  0.5848
   73MOL    C9927603   1.059   1.187   5.852  0.7754 -0.7525 -0.0719
   73MOL   C10027604   0.913   1.217   5.889  0.3063 -0.3318 -1.0413
   73MOL   C10127605   0.833   1.144   5.782  0.6656 -0.1072  0.0662
   73MOL   C10227606   0.927   1.118   5.670  0.4161  0.7855  0.1847
   73MOL   C10327607   1.213   1.194   5.558  0.4190  0.6465  0.0288
   73MOL   H10427608   1.259   1.046   5.713 -1.2760 -0.5409 -0.0282
   73MOL   H10527609   1.041   0.984   5.786 -3.0413 -0.3132 -1.6763
   73MOL   H10627610   1.122   1.157   5.935  1.1099 -1.1040 -0.4529
   73MOL   H10727611   1.098   1.283   5.816 -1.5005  0.5920  0.9527
   73MOL   H10827612   0.894   1.324   5.889 -0.2568 -0.4205  0.0631
   73MOL   H10927613   0.892   1.189   5.993 -1.5486  0.5745 -1.1540
   73MOL   H11027614   0.750   1.196   5.734  1.0940  0.4543 -0.0619
   73MOL   H11127615   0.800   1.047   5.821  1.4516 -0.3437  0.1483
   73MOL   H11227616   0.896   1.035   5.606 -1.1955  0.9902  0.6634
   73MOL   H11327617   0.931   1.207   5.607 -0.7147 -0.1614 -1.2723
   73MOL   H11427618   1.172   1.188   5.457 -1.7007  3.0924  0.6860
   73MOL   H11527619   1.150   1.275   5.594 -0.1130 -0.0577  0.6959
   73MOL   C11627620   1.363   1.236   5.552 -0.4400 -0.1071 -0.4518
   73MOL   C11727621   1.398   1.329   5.425 -0.2811  0.6583 -0.4289
   73MOL   C11827622   1.414   1.250   5.290 -0.6967 -0.1560 -0.0531
   73MOL   C11927623   1.342   1.330   5.180  0.4075 -0.1204 -0.0227
   73MOL   C12027624   1.236   1.414   5.257  0.3018 -1.2574 -0.0898
   73MOL   C12127625   1.305   1.450   5.391  0.5605  0.0692  0.1078
   73MOL   C12227626   1.407   1.297   5.686 -0.1150  0.1057 -0.4298
   73MOL   H12327627   1.420   1.143   5.543 -1.1357 -0.3764 -2.1074
   73MOL   H12427628   1.492   1.380   5.444 -0.2314 -0.3888  2.2366
   73MOL   H12527629   1.519   1.236   5.263 -0.8399  0.4680 -0.9556
   73MOL   H12627630   1.372   1.149   5.298 -1.8814  0.3010 -0.3185
   73MOL   H12727631   1.302   1.266   5.101 -1.7159  2.1647 -0.8716
   73MOL   H12827632   1.406   1.403   5.130 -2.8586  2.0120 -1.2303
   73MOL   H12927633   1.151   1.355   5.291  0.5274 -1.2956  0.4209
   73MOL   H13027634   1.192   1.497   5.202 -0.9817 -1.9017 -0.0541
   73MOL   H13127635   1.363   1.541   5.376  1.5950 -0.6072 -0.0347
   73MOL   H13227636   1.237   1.468   5.474  0.3562  1.3248 -0.3175
   73MOL   H13327637   1.368   1.223   5.756 -2.0211  0.6076 -0.9270
   73MOL   H13427638   1.339   1.381   5.701 -0.7540 -0.3751 -0.6008
   73MOL   C13527639   1.553   1.346   5.719  0.0326  0.1531  0.5947
   73MOL   C13627640   1.654   1.231   5.692 -0.6081 -0.0235 -0.4237
   73MOL   C13727641   1.650   1.105   5.779  0.9365  0.3554  0.2362
   73MOL   C13827642   1.779   1.086   5.861 -0.1749 -0.2657  0.4739
   73MOL   C13927643   1.856   1.225   5.842  0.2944  0.1783 -0.2434
   73MOL   C14027644   1.795   1.286   5.712 -0.1701  0.0814 -0.1257
   73MOL   C14127645   1.548   1.387   5.864  0.2797 -0.8913  0.1722
   73MOL   H14227646   1.566   1.426   5.646  1.9065  0.8395  1.6178
   73MOL   H14327647   1.649   1.199   5.588 -0.5680  0.9114 -0.7194
   73MOL   H14427648   1.571   1.120   5.854 -1.8884 -2.5227 -1.9969
   73MOL   H14527649   1.619   1.013   5.728 -0.8369 -0.1227  2.0845
   73MOL   H14627650   1.838   1.003   5.822  2.4969  1.6779  0.2779
   73MOL   H14727651   1.765   1.065   5.967  0.6606 -0.6314  0.5099
   73MOL   H14827652   1.964   1.208   5.835  0.4522 -0.6005  3.2746
   73MOL   H14927653   1.846   1.291   5.928 -0.3640 -3.5737  2.6741
   73MOL   H15027654   1.788   1.394   5.707 -0.3964  0.1807  1.8216
   73MOL   H15127655   1.864   1.268   5.630  0.2612 -1.2259  0.5118
   73MOL   H15227656   1.642   1.366   5.914 -0.5072 -4.1901  0.3834
   73MOL   H15327657   1.479   1.323   5.919 -0.4904 -0.0067  0.2390
   73MOL   C15427658   1.510   1.540   5.888 -0.4113 -0.1969 -0.2050
   73MOL   C15527659   1.440   1.553   6.029  0.5110  0.1694 -0.3137
   73MOL   C15627660   1.520   1.503   6.149 -0.5975  0.5288 -0.0712
   73MOL   C15727661   1.414   1.470   6.249  0.0690  0.1226  0.4229
   73MOL   C15827662   1.301   1.413   6.167 -0.0970  0.4936 -0.0884
   73MOL   C15927663   1.303   1.479   6.032 -0.2330  0.1454  0.1512
   73MOL   C16027664   1.633   1.631   5.870 -0.0860 -0.5755  0.2761
   73MOL   H16127665   1.442   1.559   5.806  1.5000  2.0415 -1.3454
   73MOL   H16227666   1.413   1.658   6.043 -2.8541 -0.8600  1.5469
   73MOL   H16327667   1.573   1.414   6.118 -2.0165  0.1289 -1.4131
   73MOL   H16427668   1.589   1.581   6.181 -0.8768  1.2031 -1.0712
   73MOL   H16527669   1.451   1.396   6.320  0.4046  0.2617  0.3928
   73MOL   H16627670   1.377   1.554   6.308 -0.7235  0.0703  0.0078
   73MOL   H16727671   1.210   1.426   6.227  0.7376  0.1760  1.2695
   73MOL   H16827672   1.305   1.304   6.166  0.8444  0.5272 -0.2688
   73MOL   H16927673   1.219   1.548   6.026 -0.6935 -0.3386  0.9652
   73MOL   H17027674   1.297   1.408   5.950  2.1007 -2.3701  2.0237
   73MOL   H17127675   1.686   1.604   5.779  0.9559 -0.2330  0.7733
   73MOL   H17227676   1.719   1.620   5.935  1.7227  1.1173 -1.7380
   73MOL   C17327677   1.613   1.786   5.853 -1.0899  0.3565 -0.2047
   73MOL   C17427678   1.514   1.830   5.741  0.3294  0.0200  0.3038
   73MOL   C17527679   1.367   1.828   5.787  0.5333 -0.0773  0.4055
   73MOL   C17627680   1.291   1.793   5.658  0.6877  0.8056  0.1938
   73MOL   C17727681   1.383   1.802   5.538 -0.2650  0.8180 -0.1013
   73MOL   C17827682   1.516   1.763   5.597 -0.3917 -0.7014 -0.3134
   73MOL   C17927683   1.750   1.853   5.820  0.1365 -0.0692  0.1785
   73MOL   H18027684   1.571   1.829   5.945  0.6116  1.2478  0.1576
   73MOL   H18127685   1.529   1.936   5.721 -2.7979  0.5301  0.5125
   73MOL   H18227686   1.349   1.930   5.820  2.2034 -0.1747  1.7103
   73MOL   H18327687   1.340   1.758   5.867 -1.6271 -1.3031 -1.3403
   73MOL   H18427688   1.250   1.692   5.661 -2.1858  1.9867  1.9113
   73MOL   H18527689   1.207   1.860   5.640 -0.8670 -0.1743  3.4647
   73MOL   H18627690   1.384   1.907   5.508 -0.9152  1.5047  2.1415
   73MOL   H18727691   1.347   1.728   5.467 -2.1527 -1.2913  2.9466
   73MOL   H18827692   1.521   1.654   5.607 -1.6561 -0.7999 -0.6566
   73MOL   H18927693   1.589   1.800   5.526  0.3546 -1.9230 -0.1976
   73MOL   H19027694   1.834   1.786   5.839 -0.3035 -0.8049 -0.4274
   73MOL   H19127695   1.756   1.860   5.711 -1.7279 -1.6326 -0.0690
   73MOL   C19227696   1.766   1.988   5.889 -0.5188  0.5232 -0.6633
   73MOL   C19327697   1.848   2.088   5.801  0.6305 -0.4110 -0.1587
   73MOL   C19427698   1.790   2.136   5.667 -0.1474 -0.6120 -0.4516
   73MOL   C19527699   1.908   2.169   5.577 -0.0057 -0.8763 -0.0171
   73MOL   C19627700   2.035   2.118   5.650 -0.3266  0.3020 -0.0821
   73MOL   C19727701   1.987   2.040   5.770  0.1483  0.8412 -0.9420
   73MOL   C19827702   1.817   1.965   6.031 -0.0085 -0.4707 -0.3816
   73MOL   H19927703   1.671   2.041   5.884 -0.2121  1.6246  3.4229
   73MOL   H20027704   1.868   2.176   5.862 -0.0549  0.3480 -0.9965
   73MOL   H20127705   1.740   2.233   5.679 -3.3201 -2.0663 -1.3179
   73MOL   H20227706   1.729   2.057   5.624 -0.6586  0.7834 -2.3640
   73MOL   H20327707   1.893   2.121   5.480 -0.2150 -1.7146  0.4243
   73MOL   H20427708   1.912   2.276   5.554 -2.2247 -0.2639  2.2493
   73MOL   H20527709   2.096   2.204   5.678 -1.1855 -0.0311  3.0171
   73MOL   H20627710   2.101   2.063   5.583 -0.2951 -0.8731  0.8853
   73MOL   H20727711   2.055   2.050   5.854  0.2702  1.1017 -1.0702
   73MOL   H20827712   1.992   1.934   5.746 -0.5185  0.5113  0.3298
   73MOL   H20927713   1.778   1.873   6.073 -0.0377 -1.3234 -2.2586
   73MOL   H21027714   1.923   1.942   6.034 -0.0954 -0.8140  0.0937
   73MOL   C21127715   1.781   2.075   6.136 -0.3912  0.5527  0.6113
   73MOL   C21227716   1.660   2.042   6.227  0.3729  0.6670 -0.2101
   73MOL   C21327717   1.517   2.031   6.172  0.4673  0.4717  0.3196
   73MOL   C21427718   1.435   1.961   6.286  0.5471 -0.4485  0.9531
   73MOL   C21527719   1.531   1.858   6.338 -0.0564  1.0433  0.2599
   73MOL   C21627720   1.674   1.916   6.326  0.0661  0.7358  0.4013
   73MOL   C21727721   1.907   2.099   6.224 -0.4801 -0.7756 -0.3427
   73MOL   H21827722   1.748   2.171   6.097 -0.9724  0.1819  0.1787
   73MOL   H21927723   1.661   2.123   6.300  0.0239 -1.4174  2.1781
   73MOL   H22027724   1.494   2.136   6.158  1.7714  0.9897  1.8904
   73MOL   H22127725   1.508   1.988   6.072  0.5336  0.0080  0.5103
   73MOL   H22227726   1.407   2.037   6.359 -2.1486 -1.9161  1.5436
   73MOL   H22327727   1.345   1.914   6.247  0.1926  3.2052 -3.0351
   73MOL   H22427728   1.518   1.774   6.270 -1.5230 -0.9367  2.9133
   73MOL   H22527729   1.508   1.832   6.442  1.1441 -1.7138 -0.1266
   73MOL   H22627730   1.700   1.953   6.425  2.1216  0.4693 -0.0306
   73MOL   H22727731   1.752   1.848   6.294  1.7246  2.5458  0.5120
   73MOL   H22827732   1.930   2.006   6.276 -1.4439 -0.6326  0.3579
   73MOL   H22927733   1.880   2.163   6.309  2.1318  0.3531 -0.3252
   73MOL   C23027734   2.027   2.166   6.143  0.0964  0.6994 -0.1832
   73MOL   C23127735   2.160   2.107   6.194  0.2894  0.3006 -0.4599
   73MOL   C23227736   2.187   2.123   6.346 -0.1768  0.1178 -0.4750
   73MOL   C23327737   2.239   1.987   6.397 -0.6650  0.7716 -0.4236
   73MOL   C23427738   2.269   1.905   6.269  0.3852 -0.2643  0.3573
   73MOL   C23527739   2.183   1.960   6.159  0.4043 -0.1975  1.1380
   73MOL   C23627740   2.043   2.317   6.146  0.7614 -0.0369  0.4092
   73MOL   H23727741   2.023   2.143   6.036 -0.3744  3.8841 -0.8984
   73MOL   H23827742   2.242   2.163   6.150  0.8816  0.8431  1.2834
   73MOL   H23927743   2.266   2.197   6.357  0.2543 -0.3219 -0.5881
   73MOL   H24027744   2.092   2.150   6.392 -0.4589  1.9340 -2.0817
   73MOL   H24127745   2.330   1.979   6.456  0.1071 -3.3485 -2.0066
   73MOL   H24227746   2.157   1.932   6.443 -0.6351  0.2370 -0.9914
   73MOL   H24327747   2.246   1.800   6.284  1.0131 -0.5944 -0.9410
   73MOL   H24427748   2.371   1.927   6.238 -0.0693  0.1137 -0.9411
   73MOL   H24527749   2.090   1.903   6.156 -1.4409  2.6426  1.7710
   73MOL   H24627750   2.232   1.952   6.062  1.3261  0.3807  1.5482
   73MOL   H24727751   2.138   2.345   6.102  0.7101  0.5526  0.6641
   73MOL   H24827752   2.070   2.344   6.248 -1.0786 -0.3016  0.9818
   73MOL   C24927753   1.939   2.406   6.080  1.2971 -0.1793  0.1869
   73MOL   C25027754   1.992   2.513   5.978  0.1152 -0.1453 -0.5755
   73MOL   C25127755   1.886   2.582   5.894  0.2859  0.1992 -0.0669
   73MOL   C25227756   1.958   2.628   5.766 -0.0270 -0.2670  0.1282
   73MOL   C25327757   2.054   2.506   5.739 -0.3569  0.3449  0.5861
   73MOL   C25427758   2.088   2.446   5.879 -0.7198 -0.8526 -0.1910
   73MOL   C25527759   1.830   2.465   6.173  0.1911  0.6267 -0.4649
   73MOL   H25627760   1.880   2.336   6.021 -0.6717  0.6290  1.1707
   73MOL   H25727761   2.052   2.592   6.022  0.8249 -0.1071 -1.5954
   73MOL   H25827762   1.839   2.660   5.952 -0.8183 -1.1870  0.9403
   73MOL   H25927763   1.800   2.521   5.866 -1.5532  2.9969 -0.6281
   73MOL   H26027764   2.024   2.711   5.789 -1.2466  0.4707  1.0145
   73MOL   H26127765   1.897   2.669   5.685  0.0049  1.5263  0.9892
   73MOL   H26227766   2.148   2.535   5.693 -0.6433 -1.6186 -1.3087
   73MOL   H26327767   2.010   2.427   5.679  0.7126  0.0885  0.1315
   73MOL   H26427768   2.189   2.479   5.904 -0.7204 -0.9522 -0.0514
   73MOL   H26527769   2.067   2.339   5.870 -2.7406 -0.3765 -1.2159
   73MOL   H26627770   1.756   2.520   6.115 -1.0556 -1.0037 -0.4432
   73MOL   H26727771   1.762   2.388   6.210 -0.3056  1.0904 -0.4160
   73MOL   C26827772   1.875   2.551   6.296  0.1949 -0.2691 -0.3852
   73MOL   C26927773   1.869   2.465   6.426 -0.5106 -0.0458  0.5347
   73MOL   C27027774   1.737   2.406   6.467 -0.7792 -0.2994 -0.2436
   73MOL   C27127775   1.728   2.394   6.619  0.2615 -0.4934  0.4497
   73MOL   C27227776   1.873   2.445   6.663 -0.3176  0.7405  0.0889
   73MOL   C27327777   1.926   2.532   6.554 -0.2233 -0.6145  0.0077
   73MOL   C27427778   1.791   2.681   6.299 -0.3199 -0.4191  0.4612
   73MOL   H27527779   1.979   2.575   6.274  0.2647 -2.7738 -3.1660
   73MOL   H27627780   1.927   2.379   6.392 -1.5972 -0.5047 -0.1766
   73MOL   H27727781   1.662   2.481   6.438 -0.5755  0.4090  0.9968
   73MOL   H27827782   1.721   2.314   6.412  0.1414  0.2513 -1.4503
   73MOL   H27927783   1.646   2.457   6.654  0.4937 -0.3260  0.6961
   73MOL   H28027784   1.721   2.289   6.646  0.1419 -0.6252 -0.0845
   73MOL   H28127785   1.925   2.350   6.657 -0.3621  0.7443 -0.3675
   73MOL   H28227786   1.856   2.476   6.767 -1.4598 -0.2437  0.2055
   73MOL   H28327787   2.034   2.538   6.543 -0.5730  0.3839 -3.8263
   73MOL   H28427788   1.899   2.636   6.570  1.1340 -0.1135 -0.8288
   73MOL   H28527789   1.758   2.706   6.400  1.4168 -2.1143  1.4669
   73MOL   H28627790   1.700   2.661   6.242  0.0932  0.0093 -0.3624
   73MOL   C28727791   1.878   2.806   6.248  0.1369 -0.1953 -0.4578
   73MOL   C28827792   1.786   2.924   6.208 -0.8198 -0.6184  0.2897
   73MOL   C28927793   1.697   2.893   6.089  0.2977 -0.7089  0.5867
   73MOL   C29027794   1.567   2.982   6.096  0.0016  0.1538 -0.3917
   73MOL   C29127795   1.552   3.028   6.244 -0.0488 -0.4362  0.0899
   73MOL   C29227796   1.676   2.963   6.319  0.7389 -0.7793  0.0861
   73MOL   C29327797   1.978   2.856   6.353 -0.1271 -0.2847 -0.3142
   73MOL   H29427798   1.930   2.784   6.155 -2.5456 -1.0506 -1.8007
   73MOL   H29527799   1.845   3.013   6.189  1.7128 -2.5847 -1.3380
   73MOL   H29627800   1.751   2.926   6.000 -1.2637 -0.2680 -0.2134
   73MOL   H29727801   1.666   2.791   6.069  0.1387 -0.3997 -0.8247
   73MOL   H29827802   1.565   3.066   6.027  1.6982 -1.2132 -2.1892
   73MOL   H29927803   1.482   2.921   6.066  1.7241 -3.7866  2.3537
   73MOL   H30027804   1.465   2.981   6.290 -1.8636  3.0677  0.4849
   73MOL   H30127805   1.559   3.137   6.252  0.1463 -0.4341 -0.1203
   73MOL   H30227806   1.642   2.873   6.371  1.8197 -1.1719  0.1310
   73MOL   H30327807   1.724   3.030   6.390  1.8072 -1.6763  0.2322
   73MOL   H30427808   2.026   2.767   6.394  0.7491 -0.4032 -1.5407
   73MOL   H30527809   1.916   2.890   6.435  0.9989  0.7623  0.1141
   73MOL   C30627810   2.085   2.966   6.317 -0.6102 -1.0860 -0.4756
   73MOL   C30727811   2.149   3.040   6.437 -0.2296  0.2132  0.3636
   73MOL   C30827812   2.054   3.132   6.507 -0.2693  0.4333  0.0342
   73MOL   C30927813   2.038   3.090   6.654 -0.3794 -0.9324 -0.2907
   73MOL   C31027814   2.094   2.952   6.662 -0.1801  0.0335  0.6741
   73MOL   C31127815   2.206   2.947   6.550  0.0748  0.2507  0.2656
   73MOL   C31227816   2.193   2.892   6.236 -0.3953 -0.4659  0.0733
   73MOL   H31327817   2.023   3.035   6.260 -3.4774 -0.1580  3.5093
   73MOL   H31427818   2.223   3.112   6.401 -1.8097  1.2357 -0.8661
   73MOL   H31527819   1.956   3.119   6.459 -0.9698 -1.6870  1.9848
   73MOL   H31627820   2.082   3.237   6.513  0.6128  0.2869 -1.3438
   73MOL   H31727821   2.108   3.149   6.712 -0.6825 -0.0787 -0.7959
   73MOL   H31827822   1.939   3.120   6.688 -0.2296  1.3425 -1.7989
   73MOL   H31927823   2.015   2.883   6.632  0.7276 -0.0512 -1.6562
   73MOL   H32027824   2.120   2.921   6.763 -1.8702 -2.7602  0.3022
   73MOL   H32127825   2.302   2.983   6.587  0.0582  0.7821 -0.1911
   73MOL   H32227826   2.213   2.841   6.527  3.4946  0.6569 -0.7751
   73MOL   H32327827   2.153   2.817   6.167 -1.0692  1.3924 -1.5985
   73MOL   H32427828   2.261   2.838   6.302  2.0349  2.3368 -0.0620
   73MOL   C32527829   2.288   2.986   6.153 -0.1966  0.2234  0.1156
   73MOL   C32627830   2.219   3.077   6.046 -0.2850  0.6640  0.8481
   73MOL   C32727831   2.134   3.010   5.945  0.4324 -0.4526 -0.3322
   73MOL   C32827832   2.103   3.130   5.845 -0.3925 -0.6100  0.3913
   73MOL   C32927833   2.233   3.211   5.839 -0.2826  0.5710  0.3982
   73MOL   C33027834   2.310   3.181   5.969  0.3881  0.4320  0.1782
   73MOL   C33127835   2.411   2.902   6.114 -0.2176  0.0802  0.2271
   73MOL   H33227836   2.323   3.051   6.233 -1.0505 -1.6421  2.0443
   73MOL   H33327837   2.156   3.135   6.115  0.7969 -1.8596  4.0876
   73MOL   H33427838   2.049   2.961   5.992 -0.7090  0.7814 -1.0582
   73MOL   H33527839   2.182   2.923   5.900  2.1176  0.4220 -0.2725
   73MOL   H33627840   2.017   3.188   5.877  0.2528 -0.0002  1.0158
   73MOL   H33727841   2.071   3.098   5.746  1.4745 -0.0484 -0.3958
   73MOL   H33827842   2.208   3.316   5.830  0.3784  0.7701  0.8544
   73MOL   H33927843   2.299   3.179   5.758  1.9541  1.8728  1.6670
   73MOL   H34027844   2.310   3.271   6.031 -0.7733 -0.8804  2.0898
   73MOL   H34127845   2.414   3.150   5.960  0.4490  0.8304 -0.6014
   73MOL   H34227846   2.471   2.873   6.201  0.1988  1.5203  0.4385
   73MOL   H34327847   2.479   2.979   6.076 -0.4140  0.1462  0.0016
   73MOL   C34427848   2.376   2.790   6.017 -0.0802  0.6628  0.3961
   73MOL   C34527849   2.431   2.655   6.065 -0.4928  0.1394 -0.1645
   73MOL   C34627850   2.387   2.601   6.205  0.1953  0.4966 -0.1997
   73MOL   C34727851   2.478   2.478   6.232 -0.1820  0.3694  0.4130
   73MOL   C34827852   2.602   2.499   6.147  0.7231 -0.5448  0.0273
   73MOL   C34927853   2.588   2.635   6.075 -0.7869  0.3346  0.6173
   73MOL   C35027854   2.435   2.834   5.874 -0.4778  0.0440  0.2702
   73MOL   H35127855   2.269   2.778   6.004 -0.0165 -0.2386  0.6382
   73MOL   H35227856   2.399   2.577   5.997  2.0510 -0.8277 -0.3310
   73MOL   H35327857   2.281   2.577   6.204  0.1466  0.5732  1.3755
   73MOL   H35427858   2.404   2.678   6.281  2.6452  0.6278 -0.8176
   73MOL   H35527859   2.509   2.475   6.337  0.9288 -2.3887  0.0453
   73MOL   H35627860   2.434   2.382   6.209 -1.5771  1.0693  0.1170
   73MOL   H35727861   2.606   2.416   6.077 -0.7372 -2.6943  2.3906
   73MOL   H35827862   2.693   2.486   6.206  0.7022 -2.6644 -0.3662
   73MOL   H35927863   2.637   2.719   6.125 -1.5377  0.2903  1.4522
   73MOL   H36027864   2.622   2.628   5.972 -1.0854 -2.5652  0.6596
   73MOL   H36127865   2.544   2.844   5.881 -0.6952  1.5627  1.7057
   73MOL   H36227866   2.406   2.938   5.872  1.2922  0.5463 -1.2859
   73MOL   C36327867   2.376   2.767   5.748  0.5441 -0.3965  0.7534
   73MOL   C36427868   2.353   2.865   5.629  0.4272 -0.9162  0.0210
   73MOL   C36527869   2.295   2.808   5.496 -1.4581 -0.1605 -0.2560
   73MOL   C36627870   2.335   2.908   5.392  0.2333  0.2778  0.3759
   73MOL   C36727871   2.477   2.952   5.440 -0.4285 -0.4554  0.1792
   73MOL   C36827872   2.468   2.962   5.590 -0.8345 -0.0304 -1.1505
   73MOL   C36927873   2.453   2.635   5.718 -0.2801  0.6528  0.3154
   73MOL   H37027874   2.276   2.738   5.780  1.2581 -1.4641  2.0684
   73MOL   H37127875   2.268   2.924   5.666  0.3898  0.2339 -1.8393
   73MOL   H37227876   2.342   2.711   5.478  0.8240  0.8409  0.1241
   73MOL   H37327877   2.189   2.784   5.499 -1.4775  0.0476  1.1676
   73MOL   H37427878   2.340   2.877   5.288  1.7133 -1.1825  0.8673
   73MOL   H37527879   2.263   2.990   5.394 -0.5470 -0.3174 -2.2457
   73MOL   H37627880   2.551   2.881   5.402 -0.4026 -0.5223  0.3544
   73MOL   H37727881   2.505   3.046   5.392  2.4215 -1.2857  0.1397
   73MOL   H37827882   2.448   3.063   5.626  1.6153  0.5780 -1.4131
   73MOL   H37927883   2.561   2.927   5.635  0.2436  2.1662 -1.6074
   73MOL   H38027884   2.404   2.558   5.659 -0.7162 -1.7686  3.7008
   73MOL   H38127885   2.480   2.575   5.805 -0.4927  0.6035  0.3469
   73MOL   H38227886   2.549   2.655   5.669  1.2430 -0.7316  2.6176
   74MOL     C127887   1.593   4.568   6.574 -0.1719 -0.6245  0.8315
   74MOL     C227888   1.593   4.534   6.419  0.7379 -0.9102  0.5402
   74MOL     C327889   1.610   4.647   6.324 -0.0109 -0.0030 -0.5347
   74MOL     C427890   1.496   4.628   6.224  0.0811 -0.3029 -0.8668
   74MOL     C527891   1.452   4.486   6.231  0.1229  0.8801 -0.6969
   74MOL     C627892   1.473   4.450   6.378 -0.0867 -0.3979  0.7343
   74MOL     C727893   1.727   4.615   6.635 -0.5057  1.2244 -0.2889
   74MOL     H827894   1.513   4.640   6.590  1.2707  1.2188 -0.0153
   74MOL     H927895   1.677   4.468   6.395  0.9770 -0.0061 -1.1130
   74MOL    H1027896   1.612   4.743   6.375  2.2784 -1.1095  1.5562
   74MOL    H1127897   1.710   4.644   6.280  1.0763 -1.2597  1.9362
   74MOL    H1227898   1.420   4.698   6.260 -0.6914 -2.3434  1.5641
   74MOL    H1327899   1.530   4.666   6.127  1.5860  4.0630  1.2413
   74MOL    H1427900   1.344   4.473   6.221 -0.0237  0.2169  1.5166
   74MOL    H1527901   1.512   4.422   6.167 -2.0302 -0.2381 -1.6244
   74MOL    H1627902   1.498   4.348   6.406 -0.7058 -0.2708  1.8252
   74MOL    H1727903   1.385   4.465   6.441 -1.0379 -1.5398 -0.2981
   74MOL    H1827904   1.806   4.543   6.615 -0.3540  0.0584  4.0896
   74MOL    H1927905   1.760   4.706   6.585  2.7340  0.1177 -0.3025
   74MOL    H2027906   1.566   4.473   6.620 -2.8831 -0.1321  0.3484
   74MOL    C2127907   1.717   4.630   6.790 -0.2543  0.9260 -0.0440
   74MOL    C2227908   1.852   4.609   6.865  0.3121  0.0912 -0.1031
   74MOL    C2327909   1.975   4.673   6.797  0.1301 -0.0559  1.1075
   74MOL    C2427910   2.095   4.597   6.855 -0.0297 -0.3576 -0.2205
   74MOL    C2527911   2.043   4.450   6.852 -0.0984  0.1495  0.2984
   74MOL    C2627912   1.894   4.455   6.880  0.2758 -0.0593  0.0036
   74MOL    C2727913   1.675   4.769   6.834 -0.2288 -0.1201 -0.2668
   74MOL    H2827914   1.638   4.563   6.822 -0.8158  0.4619 -2.3446
   74MOL    H2927915   1.827   4.663   6.956  0.2041  0.8937 -0.6072
   74MOL    H3027916   1.970   4.782   6.804 -0.7512  0.0154 -0.3958
   74MOL    H3127917   1.974   4.645   6.692 -1.0937 -1.1454  1.3820
   74MOL    H3227918   2.182   4.600   6.789 -0.1650 -2.4174 -0.5120
   74MOL    H3327919   2.119   4.630   6.957  1.8153 -0.7933 -0.4938
   74MOL    H3427920   2.086   4.386   6.929 -0.3982 -0.6921 -0.2309
   74MOL    H3527921   2.060   4.414   6.751  0.3030  1.4594 -0.1065
   74MOL    H3627922   1.865   4.424   6.980 -0.3993 -1.4223 -0.5998
   74MOL    H3727923   1.849   4.398   6.799 -2.4903  2.6431 -0.4639
   74MOL    H3827924   1.756   4.842   6.830 -0.1385 -0.1889  0.3831
   74MOL    H3927925   1.591   4.805   6.773 -2.4360 -4.8409 -0.2577
   74MOL    C4027926   1.610   4.789   6.981  0.1068  0.2136  0.4467
   74MOL    C4127927   1.648   4.920   7.047 -0.0091 -0.3662 -0.4108
   74MOL    C4227928   1.583   4.947   7.185 -0.2530 -0.1870  0.0631
   74MOL    C4327929   1.619   5.098   7.210  0.4376 -0.6426  0.1379
   74MOL    C4427930   1.612   5.171   7.074  0.2043 -0.0419 -0.8365
   74MOL    C4527931   1.607   5.050   6.975 -0.3413  0.1365  0.2291
   74MOL    C4627932   1.458   4.748   6.991 -0.5463  0.0858  0.3712
   74MOL    H4727933   1.660   4.712   7.039 -0.5903 -2.0051 -1.8009
   74MOL    H4827934   1.756   4.931   7.061 -0.3423  0.0792  1.9951
   74MOL    H4927935   1.621   4.883   7.265  2.4238  0.4698 -0.6333
   74MOL    H5027936   1.476   4.929   7.182 -0.3933  0.0223  3.0212
   74MOL    H5127937   1.714   5.100   7.263  2.1684  0.0003 -2.8859
   74MOL    H5227938   1.549   5.149   7.276  1.6612 -0.0543  1.0000
   74MOL    H5327939   1.526   5.238   7.077 -0.3000 -0.5995 -2.1597
   74MOL    H5427940   1.706   5.223   7.057  0.2466 -0.2453 -1.2457
   74MOL    H5527941   1.503   5.056   6.946  0.1275  2.5210 -1.1086
   74MOL    H5627942   1.664   5.079   6.887 -0.0444  0.7273  0.6146
   74MOL    H5727943   1.402   4.839   6.970  0.6107  0.4715 -1.1483
   74MOL    H5827944   1.444   4.684   6.904  0.2658  2.4340 -1.5175
   74MOL    C5927945   1.421   4.657   7.109 -0.4369 -0.6356 -0.1684
   74MOL    C6027946   1.268   4.657   7.154  0.7065 -0.1938 -0.4106
   74MOL    C6127947   1.159   4.585   7.069  0.1035  0.3157  0.6183
   74MOL    C6227948   1.031   4.673   7.077  0.1283  0.0049  0.4476
   74MOL    C6327949   1.057   4.775   7.191  0.5432 -1.0555 -1.0134
   74MOL    C6427950   1.208   4.795   7.182 -0.4565 -0.6991 -0.6227
   74MOL    C6527951   1.479   4.511   7.097  0.0307 -0.6986 -0.2232
   74MOL    H6627952   1.480   4.702   7.189  0.8311  0.6531 -1.7909
   74MOL    H6727953   1.256   4.603   7.248  0.8445  0.8249  0.2068
   74MOL    H6827954   1.115   4.495   7.111 -0.5524  0.8998  1.1923
   74MOL    H6927955   1.186   4.582   6.963 -1.7704  0.5811  0.1199
   74MOL    H7027956   0.944   4.609   7.091  0.2516 -0.1783  0.3892
   74MOL    H7127957   1.019   4.731   6.985 -2.2975 -0.6989  0.3019
   74MOL    H7227958   1.021   4.723   7.279  0.8155 -1.4973 -1.1611
   74MOL    H7327959   1.008   4.872   7.182  2.4633 -0.1938 -2.7629
   74MOL    H7427960   1.226   4.867   7.102 -0.7792  1.1915  0.9460
   74MOL    H7527961   1.249   4.832   7.276  2.7637 -0.6543 -1.9836
   74MOL    H7627962   1.574   4.517   7.045 -0.0717 -0.2070 -0.3593
   74MOL    H7727963   1.415   4.453   7.030 -0.1940 -0.9054  0.1663
   74MOL    C7827964   1.496   4.432   7.235 -0.3974  0.1577 -0.4156
   74MOL    C7927965   1.442   4.290   7.232 -0.1427 -0.4083 -0.2241
   74MOL    C8027966   1.306   4.256   7.169  0.4872  0.1016 -0.1308
   74MOL    C8127967   1.255   4.133   7.244 -0.8056  0.0339  0.5025
   74MOL    C8227968   1.314   4.140   7.390 -0.8853 -0.0740  0.3651
   74MOL    C8327969   1.426   4.244   7.382 -0.1324  0.1213 -0.1585
   74MOL    C8427970   1.637   4.425   7.292 -0.3991 -0.2044  0.0571
   74MOL    H8527971   1.446   4.504   7.300  2.0883  1.7801 -0.2498
   74MOL    H8627972   1.516   4.223   7.189 -0.9874 -1.6213  0.1643
   74MOL    H8727973   1.316   4.227   7.065  1.0323 -0.5923  0.1085
   74MOL    H8827974   1.242   4.341   7.191 -0.0791 -0.3206 -0.1555
   74MOL    H8927975   1.281   4.036   7.202  3.3523  1.4733 -0.4013
   74MOL    H9027976   1.146   4.146   7.248 -0.4966  2.6803  1.5525
   74MOL    H9127977   1.229   4.177   7.448 -0.1612  1.5020  0.4657
   74MOL    H9227978   1.356   4.045   7.423 -1.3629  0.1197  1.5729
   74MOL    H9327979   1.394   4.322   7.451  0.3077  0.1976 -0.0400
   74MOL    H9427980   1.520   4.205   7.422  0.3009  0.6669 -0.6423
   74MOL    H9527981   1.709   4.412   7.211  1.5042 -1.5661  1.9019
   74MOL    H9627982   1.651   4.345   7.365 -0.9920 -0.5278 -0.1832
   74MOL    C9727983   1.675   4.552   7.370  0.4147 -0.0152  0.5201
   74MOL    C9827984   1.833   4.570   7.376  0.7488  0.3123  0.2247
   74MOL    C9927985   1.930   4.460   7.416 -0.4219 -0.0821 -0.1951
   74MOL   C10027986   2.067   4.511   7.392  0.2850 -0.1432 -0.2624
   74MOL   C10127987   2.049   4.615   7.277 -0.4812 -0.4437 -0.2574
   74MOL   C10227988   1.896   4.620   7.252 -0.2930  0.8632 -0.2927
   74MOL   C10327989   1.613   4.553   7.508 -0.1508 -0.1828 -0.0749
   74MOL   H10427990   1.626   4.634   7.318  2.1583 -0.0258 -1.1652
   74MOL   H10527991   1.847   4.645   7.454 -0.5739  1.6187 -0.7648
   74MOL   H10627992   1.922   4.421   7.518 -0.5722 -0.2830 -0.2849
   74MOL   H10727993   1.905   4.369   7.362  1.0452 -1.0469  0.7053
   74MOL   H10827994   2.144   4.439   7.364  0.7871  0.1580  0.3331
   74MOL   H10927995   2.107   4.558   7.482 -1.9582  0.3794  0.5027
   74MOL   H11027996   2.097   4.579   7.186 -0.9897 -2.2714  0.1820
   74MOL   H11127997   2.081   4.715   7.308  0.9796 -0.5652 -1.2983
   74MOL   H11227998   1.871   4.722   7.223  3.0449  1.3131 -1.8062
   74MOL   H11327999   1.865   4.560   7.166 -0.8548 -0.6138  0.9145
   74MOL   H11428000   1.511   4.515   7.517 -0.0027 -0.7430 -0.7505
   74MOL   H11528001   1.681   4.493   7.569  0.6069  0.0323 -0.7081
   74MOL   C11628002   1.598   4.698   7.569  0.1751  0.0090 -0.0089
   74MOL   C11728003   1.467   4.770   7.515  0.7764 -0.1965 -0.0203
   74MOL   C11828004   1.324   4.717   7.571 -0.3562  0.2683 -0.6296
   74MOL   C11928005   1.226   4.843   7.574  0.0734  0.2911  0.1099
   74MOL   C12028006   1.314   4.962   7.542  0.2113 -0.1628 -0.5223
   74MOL   C12128007   1.460   4.919   7.553 -0.3863  0.0901  0.0766
   74MOL   C12228008   1.624   4.691   0.029 -0.3154 -0.3125 -0.2868
   74MOL   H12328009   1.679   4.754   7.522 -0.6199 -0.6555 -2.2829
   74MOL   H12428010   1.461   4.752   7.408 -0.6532 -2.2326  0.3602
   74MOL   H12528011   1.284   4.633   7.515 -4.4355  0.2783  2.0440
   74MOL   H12628012   1.339   4.682   7.674  0.4401  0.7506 -0.5771
   74MOL   H12728013   1.172   4.854   7.668 -1.9650 -2.0737 -0.7324
   74MOL   H12828014   1.152   4.833   7.494 -0.6046 -0.1445  0.7806
   74MOL   H12928015   1.289   5.044   7.609 -1.7011  1.3701 -2.9868
   74MOL   H13028016   1.296   5.000   7.441 -0.8072  0.7709 -0.0042
   74MOL   H13128017   1.535   4.981   7.504  1.8969 -1.2623  1.7819
   74MOL   H13228018   1.482   4.929   7.660  0.3837 -2.0229  0.1376
   74MOL   H13328019   1.582   4.602   0.077  1.1041  0.3176  2.2119
   74MOL   H13428020   1.547   4.758   0.066 -1.4234 -1.8733  0.3154
   74MOL   C13528021   1.766   4.742   0.082 -0.1903  0.6763 -0.0585
   74MOL   C13628022   1.870   4.624   0.076  0.3975  0.3680 -0.0178
   74MOL   C13728023   1.886   4.541   0.209 -0.9996 -0.5364  0.3299
   74MOL   C13828024   2.021   4.481   0.197  0.3584  0.1755  0.8271
   74MOL   C13928025   2.109   4.566   0.105 -0.2057  1.2802  0.0854
   74MOL   C14028026   2.014   4.677   0.057  0.4417 -0.0824  0.0831
   74MOL   C14128027   1.758   4.811   0.221 -0.0994 -0.1715  0.0294
   74MOL   H14228028   1.804   4.809   0.006 -0.0114 -0.1545 -0.7165
   74MOL   H14328029   1.844   4.559   7.682 -0.3164 -0.2628  0.6879
   74MOL   H14428030   1.875   4.606   0.296  1.3592 -0.0818  0.3147
   74MOL   H14528031   1.819   4.456   0.226  0.6391 -2.6302 -3.2002
   74MOL   H14628032   2.023   4.386   0.145  0.1914  0.0714  1.0095
   74MOL   H14728033   2.078   4.465   0.289 -2.6587 -2.0918  2.3918
   74MOL   H14828034   2.137   4.499   0.023 -4.1882 -2.0579  1.2693
   74MOL   H14928035   2.197   4.599   0.160 -2.2861  4.2063  1.7466
   74MOL   H15028036   2.038   4.768   0.111  1.4200 -0.8089  0.8960
   74MOL   H15128037   2.031   4.707   7.643  2.0250 -0.2903  0.2737
   74MOL   H15228038   1.853   4.824   0.271 -0.1522  2.2667 -0.4145
   74MOL   H15328039   1.690   4.749   0.279 -0.4981  0.2832  0.0554
   74MOL   C15428040   1.694   4.951   0.226 -0.3475  0.8327  0.5691
   74MOL   C15528041   1.607   4.977   0.358 -0.4705  0.9217 -0.3953
   74MOL   C15628042   1.487   4.888   0.385 -0.1047 -0.1328  0.0998
   74MOL   C15728043   1.385   4.967   0.466  0.2537  0.4136  0.2206
   74MOL   C15828044   1.437   5.114   0.467  0.3456 -0.1960  0.5413
   74MOL   C15928045   1.548   5.120   0.368 -0.1239 -0.0742 -0.3938
   74MOL   C16028046   1.807   5.059   0.212 -0.1759  0.2754 -0.0612
   74MOL   H16128047   1.623   4.955   0.143 -0.2170 -3.0896  0.1599
   74MOL   H16228048   1.682   4.978   0.437  0.8892 -4.6908 -1.4246
   74MOL   H16328049   1.433   4.856   0.297 -0.8861  1.3291  0.0296
   74MOL   H16428050   1.515   4.798   0.439 -2.6676 -0.7409  0.4573
   74MOL   H16528051   1.294   4.954   0.408 -0.8665 -1.5333  2.3030
   74MOL   H16628052   1.373   4.917   0.562 -1.4697  0.1945 -0.0904
   74MOL   H16728053   1.482   5.137   0.564  0.3260  1.1000  0.2551
   74MOL   H16828054   1.357   5.184   0.441 -1.1863 -2.0060  0.3045
   74MOL   H16928055   1.627   5.189   0.397 -0.0021  0.2558 -1.4951
   74MOL   H17028056   1.522   5.160   0.271  1.4882 -1.8582 -1.5939
   74MOL   H17128057   1.895   5.006   0.176  0.0475  0.9343 -0.4853
   74MOL   H17228058   1.837   5.100   0.308  0.3412  0.3064 -0.2381
   74MOL   C17328059   1.784   5.175   0.114  0.4153  0.1559 -0.1311
   74MOL   C17428060   1.804   5.125   7.656 -0.1634  0.1533  0.5910
   74MOL   C17528061   1.951   5.106   7.605 -0.0809  0.2237  0.2710
   74MOL   C17628062   1.967   5.173   7.464 -0.1563 -0.4157  0.1478
   74MOL   C17728063   1.842   5.260   7.447 -0.0645 -1.0189 -0.5009
   74MOL   C17828064   1.735   5.201   7.546 -0.6006 -0.0718  0.6008
   74MOL   C17928065   1.872   5.306   0.143  0.2699 -0.6746  0.3916
   74MOL   H18028066   1.680   5.209   0.118  1.4190  3.2395  0.3600
   74MOL   H18128067   1.755   5.028   7.646  0.7827 -0.3226  0.5575
   74MOL   H18228068   1.985   5.003   7.612 -2.8836 -0.6596  1.9277
   74MOL   H18328069   2.018   5.161   7.671 -0.0470 -0.7898  1.1000
   74MOL   H18428070   2.054   5.237   7.448 -1.2517  1.6839  2.3642
   74MOL   H18528071   1.961   5.095   7.388 -0.4830  2.3431 -2.7487
   74MOL   H18628072   1.799   5.281   7.349 -1.0177  2.8137  0.6564
   74MOL   H18728073   1.875   5.356   7.487 -2.0379 -0.8951  0.8825
   74MOL   H18828074   1.671   5.274   7.596 -1.1541  1.3771 -2.1262
   74MOL   H18928075   1.668   5.132   7.495  1.0242 -1.3942  0.2102
   74MOL   H19028076   1.977   5.280   0.154  0.4937 -0.6105 -1.5127
   74MOL   H19128077   1.870   5.365   0.052  2.8152 -3.3544 -1.4647
   74MOL   C19228078   1.831   5.382   0.273 -0.3273  0.6671  0.2372
   74MOL   C19328079   1.743   5.515   0.253 -0.1313  0.0311  0.1425
   74MOL   C19428080   1.606   5.486   0.202 -0.3901 -0.4299  0.2985
   74MOL   C19528081   1.561   5.607   0.120 -0.1922 -0.0019 -0.0479
   74MOL   C19628082   1.679   5.710   0.138 -0.5418  0.8561 -0.1982
   74MOL   C19728083   1.802   5.624   0.176 -0.2449 -0.4592 -0.2873
   74MOL   C19828084   1.963   5.407   0.362 -0.0585  0.1259 -0.0857
   74MOL   H19928085   1.767   5.317   0.333 -1.6011 -0.3235 -2.1366
   74MOL   H20028086   1.721   5.552   0.353 -0.9044 -0.5475  0.1966
   74MOL   H20128087   1.537   5.474   0.286 -1.4990 -0.3074 -0.5772
   74MOL   H20228088   1.588   5.394   0.145  2.2392 -0.3227 -0.7656
   74MOL   H20328089   1.545   5.576   0.017  1.0056 -1.1047  0.0896
   74MOL   H20428090   1.469   5.648   0.162 -0.9542 -0.9883 -0.7348
   74MOL   H20528091   1.646   5.784   0.210 -0.9183 -0.0643  0.5880
   74MOL   H20628092   1.705   5.764   0.047 -1.3580  1.1437 -0.2630
   74MOL   H20728093   1.868   5.676   0.245  0.3127 -1.6298  0.0711
   74MOL   H20828094   1.866   5.583   0.098 -0.4979 -2.5588  0.5724
   74MOL   H20928095   2.037   5.463   0.304 -1.0697  2.1667  0.5089
   74MOL   H21028096   1.918   5.469   0.440 -1.1482  0.7984 -1.2210
   74MOL   C21128097   2.041   5.288   0.425 -0.2650  0.4759 -0.2720
   74MOL   C21228098   2.178   5.329   0.477  0.3366  0.4197 -0.2279
   74MOL   C21328099   2.278   5.369   0.372  0.5092 -0.0262 -0.1506
   74MOL   C21428100   2.393   5.412   0.455  0.2257  0.0908 -0.1821
   74MOL   C21528101   2.332   5.499   0.571 -0.2862  0.3539 -0.6823
   74MOL   C21628102   2.186   5.443   0.581  0.1238 -0.6471  0.7983
   74MOL   C21728103   1.959   5.212   0.535 -0.2376  0.0149 -0.0610
   74MOL   H21828104   2.070   5.220   0.344 -0.9599 -1.9494  1.4610
   74MOL   H21928105   2.229   5.246   0.525 -0.1854  0.6289  0.7112
   74MOL   H22028106   2.315   5.280   0.321 -0.5566 -0.7497  0.3162
   74MOL   H22128107   2.242   5.455   0.316 -0.6268  2.0133  3.5406
   74MOL   H22228108   2.443   5.324   0.495  1.2809  1.0098  0.5665
   74MOL   H22328109   2.469   5.476   0.410 -0.1339  0.8327  0.2551
   74MOL   H22428110   2.325   5.606   0.556 -0.6265  0.2463 -1.3146
   74MOL   H22528111   2.390   5.493   0.663 -1.0880  1.0409 -0.1280
   74MOL   H22628112   2.177   5.399   0.681 -1.2703 -3.2508 -0.4276
   74MOL   H22728113   2.109   5.520   0.570  2.5771  1.9338  1.1129
   74MOL   H22828114   1.863   5.175   0.501  0.6362 -2.1081 -0.2816
   74MOL   H22928115   1.956   5.287   0.613  0.9974 -0.1745  0.1787
   74MOL   C23028116   2.000   5.082   0.612  0.4214 -0.3933  0.8309
   74MOL   C23128117   2.036   4.966   0.514 -0.3877 -0.2859 -0.4925
   74MOL   C23228118   2.180   4.972   0.447 -0.0250  0.3342 -0.0772
   74MOL   C23328119   2.224   4.828   0.406  0.0269 -0.6927  0.2179
   74MOL   C23428120   2.107   4.742   0.465 -0.4645 -0.0894 -0.2917
   74MOL   C23528121   2.032   4.827   0.568  0.1907  0.1867 -0.3682
   74MOL   C23628122   1.882   5.043   0.712 -0.4889 -0.0896  0.4469
   74MOL   H23728123   2.091   5.101   0.669  0.8793 -0.5932  0.1708
   74MOL   H23828124   1.965   4.978   0.432  0.5370  0.3597 -1.2147
   74MOL   H23928125   2.187   5.051   0.373  2.2578  0.6529  0.4276
   74MOL   H24028126   2.233   5.015   0.532 -0.4474  0.9682 -0.1338
   74MOL   H24128127   2.236   4.822   0.298 -1.2072  0.8946 -0.0243
   74MOL   H24228128   2.321   4.821   0.454  1.3333  1.5618 -1.9764
   74MOL   H24328129   2.158   4.660   0.514 -0.4867 -0.1226 -0.3242
   74MOL   H24428130   2.049   4.716   0.376  1.9167  1.7964 -2.4748
   74MOL   H24528131   2.078   4.814   0.666 -0.4908  1.1814  0.0872
   74MOL   H24628132   1.931   4.787   0.581 -0.2862  0.7924 -2.0738
   74MOL   H24728133   1.913   4.953   0.766  0.8229  0.4087  0.5545
   74MOL   H24828134   1.800   5.016   0.646  0.6123 -0.9458 -0.6114
   74MOL   C24928135   1.845   5.149   0.819  0.0503  0.0695  0.6685
   74MOL   C25028136   1.819   5.085   0.953  0.1285 -0.1943 -0.1342
   74MOL   C25128137   1.941   5.014   1.013  0.0148 -0.4583 -0.8120
   74MOL   C25228138   1.898   4.874   1.045  0.2362  0.2074 -0.4096
   74MOL   C25328139   1.744   4.871   1.057  0.1819 -0.0715 -0.7808
   74MOL   C25428140   1.702   4.979   0.956  0.3380 -0.4610 -0.3805
   74MOL   C25528141   1.727   5.239   0.778  0.1166  0.0491  0.1268
   74MOL   H25628142   1.935   5.206   0.841  0.1777 -0.5047  1.6612
   74MOL   H25728143   1.792   5.162   1.026 -1.1560 -0.7410 -0.0185
   74MOL   H25828144   1.971   5.066   1.103 -0.4598 -2.3431  0.4583
   74MOL   H25928145   2.022   5.018   0.940  0.9568 -1.2684  0.1789
   74MOL   H26028146   1.936   4.844   1.143  0.0466  0.7057 -0.1842
   74MOL   H26128147   1.927   4.802   0.968 -1.6077 -0.5763 -0.3936
   74MOL   H26228148   1.721   4.911   1.156 -0.4746  0.3765 -1.1144
   74MOL   H26328149   1.706   4.771   1.036 -0.5487  0.1951 -0.7491
   74MOL   H26428150   1.608   5.027   0.983  1.5339  0.7399  1.7618
   74MOL   H26528151   1.682   4.935   0.858 -1.6362 -0.5558  0.0349
   74MOL   H26628152   1.752   5.264   0.675  0.9551 -0.1165  0.2827
   74MOL   H26728153   1.636   5.180   0.774  0.9766 -1.2483 -0.7206
   74MOL   C26828154   1.703   5.378   0.852  0.0699  1.0500  0.1284
   74MOL   C26928155   1.562   5.433   0.822 -0.6991  0.3120  0.1300
   74MOL   C27028156   1.459   5.346   0.883  0.2368  0.3601  0.2420
   74MOL   C27128157   1.343   5.328   0.782 -0.4995 -0.1263  0.5468
   74MOL   C27228158   1.369   5.427   0.671 -0.6722 -0.1299 -0.3679
   74MOL   C27328159   1.523   5.439   0.675 -0.3146  0.5565 -0.3895
   74MOL   C27428160   1.819   5.482   0.821  0.4326  0.0168 -0.8778
   74MOL   H27528161   1.704   5.353   0.958 -0.0899  0.4715 -0.0027
   74MOL   H27628162   1.560   5.535   0.860  2.1687 -0.0617  1.4763
   74MOL   H27728163   1.497   5.249   0.917  1.6330  0.9589  0.3963
   74MOL   H27828164   1.424   5.391   0.975  0.7301  0.8512  0.1911
   74MOL   H27928165   1.325   5.229   0.741 -0.3820 -0.6716  1.7690
   74MOL   H28028166   1.244   5.354   0.820 -1.2258 -2.1506  0.1123
   74MOL   H28128167   1.331   5.529   0.682  2.7808  1.1424  0.1139
   74MOL   H28228168   1.333   5.405   0.570  0.6850  2.3867 -1.4548
   74MOL   H28328169   1.561   5.533   0.635  2.0703  1.5772  4.0363
   74MOL   H28428170   1.558   5.355   0.615 -2.1513 -0.6801  0.2428
   74MOL   H28528171   1.786   5.543   0.737  0.3350 -1.6024 -2.0343
   74MOL   H28628172   1.904   5.428   0.778  0.1073 -1.3959  0.2337
   74MOL   C28728173   1.860   5.576   0.935  0.9175 -0.0533  0.0087
   74MOL   C28828174   2.006   5.562   0.985  0.8451  0.1393 -0.0393
   74MOL   C28928175   2.042   5.637   1.115 -0.2868 -0.3151 -0.0744
   74MOL   C29028176   2.123   5.547   1.199  0.6086  0.1143  0.1025
   74MOL   C29128177   2.157   5.428   1.118 -0.3138  0.3818 -0.2061
   74MOL   C29228178   2.044   5.415   1.013 -0.1224 -0.5455 -0.0022
   74MOL   C29328179   1.810   5.722   0.907 -0.3687 -0.9080 -0.0378
   74MOL   H29428180   1.786   5.545   1.009  0.0936  0.6774 -0.4906
   74MOL   H29528181   2.072   5.605   0.910  0.9727  1.2673  0.7057
   74MOL   H29628182   2.096   5.729   1.091  1.9312 -2.0957 -2.1056
   74MOL   H29728183   1.948   5.675   1.155 -0.3743  0.7105 -1.2179
   74MOL   H29828184   2.204   5.596   1.252  0.7726 -0.8043  0.7170
   74MOL   H29928185   2.063   5.507   1.281 -0.3006 -0.4086 -0.8061
   74MOL   H30028186   2.160   5.335   1.174 -1.2736 -0.2411 -1.1612
   74MOL   H30128187   2.255   5.437   1.070  0.0174  0.5093  0.4871
   74MOL   H30228188   1.963   5.362   1.063  0.8006 -0.5388  1.5056
   74MOL   H30328189   2.065   5.351   0.927 -1.0756 -0.7356 -0.0997
   74MOL   H30428190   1.791   5.779   0.999  1.8833  0.1716 -0.2118
   74MOL   H30528191   1.710   5.710   0.867 -0.3430 -1.1348 -0.0355
   74MOL   C30628192   1.890   5.826   0.823  0.2829 -0.0836 -0.3063
   74MOL   C30728193   1.899   5.779   0.672 -0.3317 -0.0421  0.0262
   74MOL   C30828194   1.769   5.782   0.591 -0.2796  0.5277 -0.1251
   74MOL   C30928195   1.803   5.856   0.471  0.3278 -0.1468  0.3463
   74MOL   C31028196   1.955   5.850   0.464  0.8194  0.3708 -0.1676
   74MOL   C31128197   2.006   5.860   0.602  0.1902 -0.1537  0.4676
   74MOL   C31228198   1.824   5.961   0.845  0.1188 -0.0132  0.2234
   74MOL   H31328199   1.991   5.821   0.865  0.2084 -2.1246 -0.3091
   74MOL   H31428200   1.940   5.678   0.673 -0.3869 -0.0672 -0.2485
   74MOL   H31528201   1.683   5.832   0.636 -1.9790 -1.1685 -1.3450
   74MOL   H31628202   1.742   5.680   0.561  0.8525  0.8565 -2.3369
   74MOL   H31728203   1.745   5.849   0.379  1.7321  3.0862 -0.8557
   74MOL   H31828204   1.771   5.958   0.489 -1.5891 -0.5765 -0.4550
   74MOL   H31928205   2.003   5.933   0.411 -1.5822  1.0506 -1.3246
   74MOL   H32028206   1.980   5.752   0.424 -0.6001 -1.3230  2.9108
   74MOL   H32128207   2.103   5.814   0.624  0.8296  1.0254  0.1503
   74MOL   H32228208   2.005   5.963   0.637 -2.3679  0.0714 -0.1637
   74MOL   H32328209   1.721   5.953   0.881 -0.2302 -0.0428 -0.7727
   74MOL   H32428210   1.802   6.010   0.750 -2.8467 -0.0084  0.8532
   74MOL   C32528211   1.901   6.061   0.929  0.2916 -0.6468  0.0791
   74MOL   C32628212   1.882   6.031   1.080  0.9076 -0.3248  0.1717
   74MOL   C32728213   1.739   6.050   1.133 -0.1675  0.4117  0.4904
   74MOL   C32828214   1.755   6.090   1.285 -0.3701  0.9487 -0.3731
   74MOL   C32928215   1.907   6.086   1.315 -0.5089  1.0879 -0.1115
   74MOL   C33028216   1.972   6.105   1.177 -0.0292  0.0636 -0.1913
   74MOL   C33128217   1.854   6.206   0.896 -0.6389 -0.0754 -0.4974
   74MOL   H33228218   2.007   6.056   0.902  0.5739 -0.0977  1.0454
   74MOL   H33328219   1.911   5.926   1.088 -2.7994 -1.6810 -2.7523
   74MOL   H33428220   1.687   5.956   1.114 -0.0950  0.4282  0.1944
   74MOL   H33528221   1.686   6.124   1.074 -0.1500  0.2425  0.2601
   74MOL   H33628222   1.701   6.029   1.357  1.9500 -1.5795 -0.6924
   74MOL   H33728223   1.739   6.198   1.284 -0.3130  0.9590 -2.4302
   74MOL   H33828224   1.942   5.989   1.353 -0.8176  0.4160 -1.5249
   74MOL   H33928225   1.940   6.160   1.388  0.3011  1.8943 -1.2858
   74MOL   H34028226   2.071   6.061   1.182 -0.3450 -0.3830  3.1019
   74MOL   H34128227   1.984   6.212   1.156 -1.1210  0.1491 -0.4360
   74MOL   H34228228   1.866   6.272   0.982 -0.7157 -1.1371  0.3309
   74MOL   H34328229   1.746   6.207   0.880 -0.8174 -2.5156  0.3970
   74MOL   C34428230   1.922   6.283   0.779  0.0319 -0.3378  0.5296
   74MOL   C34528231   1.860   6.251   0.633  0.3041 -0.2979  0.4601
   74MOL   C34628232   1.900   6.359   0.526  0.3916 -0.4400 -0.5414
   74MOL   C34728233   1.797   6.339   0.408  0.5648 -0.1782 -0.1426
   74MOL   C34828234   1.677   6.282   0.472  0.0554 -0.1427 -0.4848
   74MOL   C34928235   1.704   6.253   0.619  0.1627 -0.4800 -0.2596
   74MOL   C35028236   2.073   6.277   0.769 -0.2488 -0.4479 -0.1018
   74MOL   H35128237   1.900   6.387   0.803 -2.2177 -1.2027  2.4124
   74MOL   H35228238   1.896   6.155   0.596  0.9321 -0.3405  1.1591
   74MOL   H35328239   2.008   6.359   0.512  0.5950  1.0830  0.9096
   74MOL   H35428240   1.891   6.462   0.560 -1.0234 -0.6954 -0.0871
   74MOL   H35528241   1.778   6.430   0.350 -2.0057 -0.3246  0.3847
   74MOL   H35628242   1.832   6.277   0.326  1.3456  2.8368 -2.1948
   74MOL   H35728243   1.643   6.194   0.418 -0.7025  0.2098 -0.5929
   74MOL   H35828244   1.598   6.357   0.464  0.9880  0.7466 -1.6631
   74MOL   H35928245   1.670   6.334   0.685  1.5489 -0.6264  0.6591
   74MOL   H36028246   1.661   6.158   0.650  0.3069 -1.4611 -2.9884
   74MOL   H36128247   2.107   6.338   0.685  0.6774 -2.2499 -1.0704
   74MOL   H36228248   2.098   6.175   0.740 -0.4985  0.4478 -3.6337
   74MOL   C36328249   2.151   6.311   0.891  0.4581 -0.3035 -0.6638
   74MOL   C36428250   2.296   6.265   0.888  0.0848  0.6918 -0.8435
   74MOL   C36528251   2.382   6.316   0.767  0.3298  0.1574  0.5572
   74MOL   C36628252   2.473   6.199   0.732  0.4392  0.7416 -0.0981
   74MOL   C36728253   2.461   6.101   0.843 -0.1566  0.2686  0.4258
   74MOL   C36828254   2.321   6.111   0.891  0.9769 -0.3895  0.8210
   74MOL   C36928255   2.137   6.466   0.917  0.1279  0.2884  0.7794
   74MOL   H37028256   2.098   6.253   0.966  0.8675 -0.1862 -0.2733
   74MOL   H37128257   2.338   6.299   0.983 -0.8693  0.1391 -0.2184
   74MOL   H37228258   2.321   6.364   0.690  1.5441  0.1717 -0.3998
   74MOL   H37328259   2.441   6.394   0.815  2.3065 -0.8951 -0.1120
   74MOL   H37428260   2.436   6.164   0.636  0.4272  1.0950 -0.2206
   74MOL   H37528261   2.578   6.228   0.734  0.2014  1.5515  1.3317
   74MOL   H37628262   2.488   6.000   0.812  0.7591  0.3763  0.8495
   74MOL   H37728263   2.529   6.129   0.923  1.2808  3.1823 -1.6822
   74MOL   H37828264   2.276   6.076   0.984 -2.5495  1.7636  0.0464
   74MOL   H37928265   2.264   6.063   0.811  0.4733  1.7482 -0.1503
   74MOL   H38028266   2.187   6.523   0.839  0.2228 -0.5090  0.2504
   74MOL   H38128267   2.186   6.506   1.005  1.3033  0.7559 -0.0756
   74MOL   H38228268   2.032   6.493   0.926 -0.0671 -0.6931  1.6106
   75MOL     C128269   3.778   4.575   3.655 -0.2473 -0.3988  0.2304
   75MOL     C228270   3.698   4.587   3.515  0.7349 -0.6063 -0.3408
   75MOL     C328271   3.700   4.726   3.456  0.5287  0.3267 -0.1071
   75MOL     C428272   3.590   4.733   3.351 -0.1509  0.6537 -0.0243
   75MOL     C528273   3.479   4.656   3.422 -0.3377  0.0558 -0.9770
   75MOL     C628274   3.552   4.558   3.509  0.1220 -0.1646 -0.3557
   75MOL     C728275   3.751   4.444   3.730  0.1940 -0.3546 -0.1480
   75MOL     H828276   3.884   4.579   3.629  0.1455 -1.5219  1.6213
   75MOL     H928277   3.755   4.535   3.438 -1.2112  0.5613 -2.6456
   75MOL    H1028278   3.685   4.792   3.541  1.1422 -0.0804  0.3229
   75MOL    H1128279   3.796   4.754   3.411  1.4955 -1.4565  0.8002
   75MOL    H1228280   3.574   4.837   3.322  3.6836  1.0503 -1.0416
   75MOL    H1328281   3.606   4.686   3.255 -1.9212 -0.4657  0.2122
   75MOL    H1428282   3.420   4.714   3.493 -0.4904 -0.0142 -1.0456
   75MOL    H1528283   3.415   4.611   3.346 -0.5340 -0.5563 -0.4587
   75MOL    H1628284   3.543   4.460   3.463  0.6611 -0.8446  0.9853
   75MOL    H1728285   3.515   4.543   3.610  0.0217  2.4385  0.0262
   75MOL    H1828286   3.645   4.433   3.755  0.0088 -1.2004 -1.2687
   75MOL    H1928287   3.755   4.366   3.655  0.8327 -1.2209  0.7735
   75MOL    H2028288   3.757   4.655   3.726 -0.0260 -0.7605  0.7075
   75MOL    C2128289   3.856   4.413   3.841  0.3139 -0.3453 -0.4905
   75MOL    C2228290   3.791   4.412   3.985 -0.5909 -0.7238  0.0982
   75MOL    C2328291   3.680   4.308   4.001  1.1251  0.2344  0.1933
   75MOL    C2428292   3.577   4.364   4.101 -0.3656  0.1623  0.7502
   75MOL    C2528293   3.648   4.491   4.153 -0.8132  0.0562 -0.2272
   75MOL    C2628294   3.729   4.545   4.036 -0.4981  0.4077  0.5406
   75MOL    C2728295   3.945   4.283   3.817  0.4792 -0.5567 -0.5916
   75MOL    H2828296   3.921   4.500   3.842  1.2775 -1.0322  2.9330
   75MOL    H2928297   3.872   4.394   4.055  0.6058 -0.9380 -1.3297
   75MOL    H3028298   3.729   4.219   4.043 -1.5211 -1.2754  0.1513
   75MOL    H3128299   3.630   4.277   3.909 -1.0513  0.3394  1.3296
   75MOL    H3228300   3.479   4.374   4.054 -0.2697 -1.1141  0.2434
   75MOL    H3328301   3.565   4.296   4.186  0.8971  0.3983  1.1350
   75MOL    H3428302   3.717   4.461   4.231 -0.5936 -2.5921 -1.3883
   75MOL    H3528303   3.572   4.557   4.194 -2.1057  0.4279 -3.0502
   75MOL    H3628304   3.796   4.624   4.069  0.0927 -0.4196  1.3477
   75MOL    H3728305   3.665   4.574   3.952  0.1033 -0.1170 -0.1097
   75MOL    H3828306   3.997   4.259   3.909  3.0012  0.5874 -1.6635
   75MOL    H3928307   3.870   4.204   3.810  0.8801 -1.1218  1.2701
   75MOL    C4028308   4.048   4.280   3.707 -0.3486 -0.1300  0.1293
   75MOL    C4128309   4.183   4.348   3.744 -0.3418 -0.1899  0.6354
   75MOL    C4228310   4.175   4.484   3.791 -0.0164 -0.0583  0.5799
   75MOL    C4328311   4.322   4.542   3.777  0.1035  0.2614 -0.8568
   75MOL    C4428312   4.389   4.457   3.671  0.5057 -0.0068 -0.1169
   75MOL    C4528313   4.283   4.358   3.629  0.4962 -0.3625  0.3458
   75MOL    C4628314   4.069   4.131   3.667  0.0828 -0.2827  0.2211
   75MOL    H4728315   4.015   4.341   3.623  0.9348  0.3038 -0.0723
   75MOL    H4828316   4.212   4.289   3.831 -1.5239 -1.4348  0.2003
   75MOL    H4928317   4.122   4.504   3.884  0.5942  1.2723  0.6525
   75MOL    H5028318   4.126   4.531   3.706  0.6692 -0.5187 -0.0813
   75MOL    H5128319   4.375   4.509   3.867 -0.2708 -0.3610 -0.8574
   75MOL    H5228320   4.330   4.645   3.742  1.4782 -0.1614 -1.8291
   75MOL    H5328321   4.422   4.515   3.585 -0.9790  2.6911  1.0960
   75MOL    H5428322   4.473   4.406   3.720 -2.1399 -2.0025  2.5808
   75MOL    H5528323   4.237   4.402   3.541  1.7433  2.2594  0.9290
   75MOL    H5628324   4.322   4.258   3.608  4.0503  1.0760 -0.3264
   75MOL    H5728325   4.177   4.118   3.674  0.3774  1.1836 -1.1992
   75MOL    H5828326   4.017   4.063   3.734 -2.2181  1.6488  0.4647
   75MOL    C5928327   4.021   4.113   3.517 -0.1419 -0.2012  1.0515
   75MOL    C6028328   4.084   3.993   3.450 -1.2748 -0.0347  0.4377
   75MOL    C6128329   4.053   3.852   3.503 -0.0334 -0.3036 -0.5320
   75MOL    C6228330   4.183   3.770   3.479  0.6560 -0.0279 -0.2313
   75MOL    C6328331   4.285   3.859   3.407 -0.4104 -0.5529 -0.5659
   75MOL    C6428332   4.237   4.001   3.426  0.0047 -0.0519 -0.4073
   75MOL    C6528333   3.862   4.107   3.511  0.1495  0.7139  0.2701
   75MOL    H6628334   4.052   4.200   3.460  0.4454 -2.1690 -1.7202
   75MOL    H6728335   4.052   4.004   3.346  0.7508  1.8693 -0.0254
   75MOL    H6828336   3.961   3.802   3.473 -0.5098  1.4795 -2.1409
   75MOL    H6928337   4.047   3.859   3.612 -0.0603 -0.3237 -0.5325
   75MOL    H7028338   4.159   3.676   3.430  0.1162  0.2672 -0.5461
   75MOL    H7128339   4.226   3.741   3.575  1.2547 -2.6609 -1.2707
   75MOL    H7228340   4.284   3.836   3.300 -0.4446 -0.7388 -0.5258
   75MOL    H7328341   4.386   3.843   3.445 -0.5853  0.1852  0.2343
   75MOL    H7428342   4.286   4.043   3.514  4.0833  3.0646 -3.9157
   75MOL    H7528343   4.262   4.072   3.346 -0.2667  1.0314  0.4623
   75MOL    H7628344   3.805   4.154   3.592 -0.6903  1.4777 -0.7500
   75MOL    H7728345   3.829   4.005   3.532  0.4232 -0.1678 -3.3400
   75MOL    C7828346   3.781   4.141   3.383 -0.6583  0.2030 -0.3239
   75MOL    C7928347   3.631   4.116   3.409  0.1734 -0.1448  0.3437
   75MOL    C8028348   3.594   3.978   3.466 -0.1971  0.3221  0.3832
   75MOL    C8128349   3.450   3.957   3.439  0.4994  0.2171 -0.1834
   75MOL    C8228350   3.409   4.068   3.338  0.3877  0.0808  0.0782
   75MOL    C8328351   3.542   4.127   3.286  0.2654  0.6730  0.6150
   75MOL    C8428352   3.811   4.285   3.331 -0.8711 -0.0171 -0.2893
   75MOL    H8528353   3.799   4.068   3.304 -1.2132 -0.2287 -0.0550
   75MOL    H8628354   3.593   4.181   3.488 -1.0149 -0.6309  0.1715
   75MOL    H8728355   3.617   3.966   3.572  0.1753 -0.3450  0.2305
   75MOL    H8828356   3.642   3.895   3.413 -0.4079  1.0339 -0.9328
   75MOL    H8928357   3.401   3.973   3.535  1.2984  2.0901 -0.0670
   75MOL    H9028358   3.434   3.854   3.406 -3.0235  0.8179 -0.5664
   75MOL    H9128359   3.337   4.024   3.269 -0.8692 -0.7043  1.8534
   75MOL    H9228360   3.356   4.137   3.404 -0.0867  1.3226 -1.5545
   75MOL    H9328361   3.585   4.071   3.203  0.5982 -0.3855  1.5007
   75MOL    H9428362   3.531   4.229   3.247 -1.2599 -0.0629 -0.9503
   75MOL    H9528363   3.840   4.340   3.421  1.8698  0.4054 -1.4157
   75MOL    H9628364   3.712   4.322   3.304 -1.6884 -0.4722  1.9556
   75MOL    C9728365   3.896   4.297   3.195  0.0707 -0.3294 -0.7556
   75MOL    C9828366   3.947   4.437   3.163  0.3863 -0.2535 -0.0079
   75MOL    C9928367   3.850   4.545   3.140 -0.3592  0.3023 -0.5507
   75MOL   C10028368   3.924   4.683   3.162  0.1826 -0.4140  1.2247
   75MOL   C10128369   4.059   4.651   3.240  0.6049  0.8106  0.8507
   75MOL   C10228370   4.040   4.500   3.270 -0.1115  0.2165 -0.5266
   75MOL   C10328371   3.809   4.223   3.082 -0.0889 -0.8097 -0.8211
   75MOL   H10428372   3.987   4.239   3.206  1.4774  2.0754  0.7795
   75MOL   H10528373   4.008   4.436   3.072 -0.1731 -2.3530 -0.3678
   75MOL   H10628374   3.801   4.521   3.046 -0.6847  1.6968 -0.7499
   75MOL   H10728375   3.780   4.541   3.223  2.1307  2.7203  1.8055
   75MOL   H10828376   3.870   4.763   3.211  2.6069  0.6120  2.2989
   75MOL   H10928377   3.959   4.723   3.066  0.8591 -1.1922  1.1361
   75MOL   H11028378   4.089   4.720   3.320  1.4483  1.2936  0.1261
   75MOL   H11128379   4.139   4.649   3.166 -0.8034  0.4855 -0.6592
   75MOL   H11228380   4.138   4.453   3.263  0.2088  0.8181 -0.1202
   75MOL   H11328381   4.003   4.496   3.372  0.0170 -0.2807 -0.4999
   75MOL   H11428382   3.798   4.118   3.108 -0.3765 -1.3712 -3.0834
   75MOL   H11528383   3.705   4.258   3.082  0.2402  0.2415  0.9905
   75MOL   C11628384   3.854   4.227   2.933 -0.3014 -0.0182  0.5075
   75MOL   C11728385   4.004   4.169   2.932 -0.4769  0.4798 -0.1847
   75MOL   C11828386   4.031   4.029   2.985 -0.4632 -0.0877  0.2839
   75MOL   C11928387   4.167   3.988   2.913 -0.2420  0.0925 -0.2718
   75MOL   C12028388   4.186   4.076   2.792 -0.5728 -0.1509  0.3240
   75MOL   C12128389   4.066   4.166   2.793 -0.4948  0.0048  0.1876
   75MOL   C12228390   3.756   4.148   2.846 -0.4082 -0.2857 -0.0780
   75MOL   H12328391   3.866   4.327   2.891  1.1201 -0.2769  0.2720
   75MOL   H12428392   4.060   4.240   2.993  0.0856 -0.9029  0.9537
   75MOL   H12528393   4.028   4.013   3.093 -0.0791  0.6498  0.4093
   75MOL   H12628394   3.949   3.963   2.954 -1.0266  0.6570  0.1920
   75MOL   H12728395   4.183   3.884   2.887  0.7194  0.2569 -0.3343
   75MOL   H12828396   4.247   4.011   2.983  1.7792 -2.0118 -1.8255
   75MOL   H12928397   4.197   4.013   2.704  0.8973  1.1659 -0.4590
   75MOL   H13028398   4.282   4.127   2.786 -0.4071 -0.6616 -1.7680
   75MOL   H13128399   4.097   4.266   2.766 -0.3701  0.5234  2.2094
   75MOL   H13228400   3.993   4.143   2.714  0.9876  0.0587 -1.2165
   75MOL   H13328401   3.747   4.055   2.903 -0.5690 -0.2677 -0.0724
   75MOL   H13428402   3.800   4.124   2.749  1.5059  0.4196  0.5887
   75MOL   C13528403   3.616   4.202   2.822 -0.3176 -0.0577 -0.9694
   75MOL   C13628404   3.527   4.086   2.761  0.6115 -0.2727 -0.1542
   75MOL   C13728405   3.378   4.122   2.734 -0.0474 -0.5455 -0.8425
   75MOL   C13828406   3.309   3.986   2.726  0.0795  0.4776  0.4681
   75MOL   C13928407   3.401   3.880   2.792 -0.2538 -0.6851  0.1045
   75MOL   C14028408   3.523   3.962   2.844  1.1292 -0.4445 -0.0768
   75MOL   C14128409   3.613   4.333   2.739 -0.4955  0.2186  0.6528
   75MOL   H14228410   3.575   4.229   2.919  2.1282  0.3817 -0.0014
   75MOL   H14328411   3.561   4.056   2.661 -1.2837 -1.4928 -0.4586
   75MOL   H14428412   3.347   4.177   2.822  1.8215  0.5242 -0.8414
   75MOL   H14528413   3.363   4.179   2.642 -0.4857 -1.1623 -1.1660
   75MOL   H14628414   3.300   3.934   2.630  1.0877 -1.5773  1.4660
   75MOL   H14728415   3.212   3.986   2.777  1.5539 -1.1262  3.3689
   75MOL   H14828416   3.435   3.804   2.722  1.8755  1.0526 -0.7829
   75MOL   H14928417   3.351   3.823   2.870  0.5078 -1.9146 -0.2958
   75MOL   H15028418   3.513   3.976   2.951 -0.9399 -1.2819 -0.1379
   75MOL   H15128419   3.607   3.899   2.815 -0.4916 -3.0809  0.8592
   75MOL   H15228420   3.554   4.320   2.648 -1.2251  2.0378  0.8466
   75MOL   H15328421   3.716   4.337   2.705 -0.5840 -1.1963  0.1886
   75MOL   C15428422   3.573   4.456   2.824  0.2901 -0.6452 -0.4145
   75MOL   C15528423   3.640   4.582   2.765 -0.6961 -0.1942  0.6345
   75MOL   C15628424   3.796   4.572   2.735 -0.1167  0.1244 -0.6962
   75MOL   C15728425   3.842   4.717   2.734  0.4231 -0.2417  0.4042
   75MOL   C15828426   3.727   4.809   2.782  0.2577 -0.6871 -0.2690
   75MOL   C15928427   3.638   4.708   2.853  0.3167  0.5118  0.2232
   75MOL   C16028428   3.413   4.462   2.815 -0.5757  0.9462 -0.2149
   75MOL   H16128429   3.593   4.441   2.930  2.4229  0.9501 -0.5378
   75MOL   H16228430   3.587   4.589   2.670  0.9422 -0.3920 -0.3125
   75MOL   H16328431   3.850   4.511   2.808 -1.1802 -0.1357 -0.1032
   75MOL   H16428432   3.820   4.512   2.647  0.4332  0.3599 -0.7074
   75MOL   H16528433   3.922   4.711   2.808  0.6281 -3.1449 -0.0143
   75MOL   H16628434   3.896   4.745   2.643  1.3855  2.3240  1.7064
   75MOL   H16728435   3.678   4.862   2.700  0.9880  2.2338  1.1269
   75MOL   H16828436   3.773   4.871   2.858  0.5803 -2.3139  0.8871
   75MOL   H16928437   3.544   4.763   2.858  0.5852  0.8353  1.9945
   75MOL   H17028438   3.670   4.682   2.954  3.9394  0.8392 -0.7731
   75MOL   H17128439   3.362   4.368   2.832 -0.4385  0.8070 -0.5736
   75MOL   H17228440   3.396   4.497   2.713 -0.3938  1.2021 -0.1579
   75MOL   C17328441   3.350   4.570   2.906  0.0424 -0.9431 -0.1768
   75MOL   C17428442   3.260   4.497   3.019 -0.0670  0.9177 -0.5499
   75MOL   C17528443   3.201   4.592   3.118  0.1900 -0.1587  0.0732
   75MOL   C17628444   3.150   4.518   3.237 -0.2372  0.5881 -0.0463
   75MOL   C17728445   3.228   4.381   3.234  0.3901 -0.9958 -0.4650
   75MOL   C17828446   3.328   4.392   3.107 -0.4245 -0.1516 -0.1326
   75MOL   C17928447   3.271   4.678   2.827 -0.0097 -0.1696 -0.0325
   75MOL   H18028448   3.432   4.622   2.955 -1.7092 -0.7208  2.6604
   75MOL   H18128449   3.176   4.442   2.976  1.1292 -0.1593 -1.5457
   75MOL   H18228450   3.124   4.661   3.082  1.1795  0.8774 -0.0805
   75MOL   H18328451   3.284   4.655   3.151 -0.2877  0.2972  0.4242
   75MOL   H18428452   3.162   4.580   3.325  0.3929 -0.0897  0.3511
   75MOL   H18528453   3.042   4.511   3.234 -0.2141  0.6073 -1.5986
   75MOL   H18628454   3.164   4.293   3.243 -0.8863  0.0778  1.1643
   75MOL   H18728455   3.289   4.379   3.324  2.2381 -4.4612 -1.6914
   75MOL   H18828456   3.428   4.426   3.135 -0.2751 -0.7168  0.0193
   75MOL   H18928457   3.339   4.292   3.065 -2.4774  0.4305 -2.1794
   75MOL   H19028458   3.238   4.760   2.890  0.3771  0.1721 -0.2711
   75MOL   H19128459   3.352   4.727   2.772 -1.4693  1.6504 -0.5886
   75MOL   C19228460   3.151   4.632   2.733 -0.0484 -0.6007 -0.0719
   75MOL   C19328461   3.154   4.723   2.601 -0.5099 -0.0007  0.0084
   75MOL   C19428462   3.276   4.717   2.518  0.5237 -0.3072  0.2245
   75MOL   C19528463   3.333   4.859   2.503 -1.0268 -0.2887 -0.8244
   75MOL   C19628464   3.214   4.946   2.527 -0.1101 -0.2746  0.4505
   75MOL   C19728465   3.127   4.872   2.628 -0.1302  0.7265 -0.5404
   75MOL   C19828466   3.016   4.633   2.795  0.3418  0.0437  0.2962
   75MOL   H19928467   3.180   4.536   2.690  0.5359 -0.2782 -0.4010
   75MOL   H20028468   3.080   4.691   2.527  1.2975 -2.8276 -0.6815
   75MOL   H20128469   3.245   4.686   2.418 -0.3128  0.1146  0.3467
   75MOL   H20228470   3.348   4.640   2.548  0.0105 -0.8313  0.1304
   75MOL   H20328471   3.405   4.873   2.584 -1.5905 -0.4635 -0.2939
   75MOL   H20428472   3.391   4.867   2.411 -0.3530  1.7531 -0.2361
   75MOL   H20528473   3.162   4.941   2.431  1.6291  0.0088 -0.5254
   75MOL   H20628474   3.231   5.051   2.552  0.1254 -0.2749  0.2858
   75MOL   H20728475   3.023   4.900   2.611 -0.4423 -0.7026 -0.9844
   75MOL   H20828476   3.149   4.918   2.725 -0.3981  1.4487 -0.8181
   75MOL   H20928477   3.021   4.567   2.882  1.4316  2.4569  2.1272
   75MOL   H21028478   3.017   4.722   2.857 -0.7122  0.6713 -0.5789
   75MOL   C21128479   2.882   4.623   2.720 -1.3069  0.8440 -0.1254
   75MOL   C21228480   2.872   4.480   2.656  0.0484 -0.3190  0.2981
   75MOL   C21328481   2.847   4.373   2.750 -0.1364 -0.1955  0.8839
   75MOL   C21428482   2.818   4.251   2.660 -0.3612  0.0382 -0.8832
   75MOL   C21528483   2.733   4.313   2.543 -0.0622 -0.0351  0.6527
   75MOL   C21628484   2.763   4.467   2.547 -0.1736 -0.0062 -0.0492
   75MOL   C21728485   2.762   4.675   2.805  0.0418  0.3090 -0.3765
   75MOL   H21828486   2.891   4.693   2.637  1.4602 -2.0223 -2.3729
   75MOL   H21928487   2.972   4.463   2.615  0.6650  2.3105  0.6703
   75MOL   H22028488   2.932   4.355   2.817  1.5501 -0.1088 -1.1685
   75MOL   H22128489   2.758   4.407   2.803  0.1585 -0.6972  1.7165
   75MOL   H22228490   2.910   4.209   2.619 -0.2378  0.8471 -1.4247
   75MOL   H22328491   2.762   4.179   2.721  0.0952  0.4655  0.0375
   75MOL   H22428492   2.629   4.288   2.559 -0.1512 -0.7909 -1.0054
   75MOL   H22528493   2.754   4.279   2.441  0.5353 -0.6517  0.9794
   75MOL   H22628494   2.792   4.508   2.450 -1.0578 -0.0787 -0.3401
   75MOL   H22728495   2.667   4.513   2.569  0.5659  1.4522  0.2304
   75MOL   H22828496   2.746   4.598   2.881 -0.5474 -0.7232 -1.5172
   75MOL   H22928497   2.673   4.669   2.741 -0.4565 -0.6621  0.3893
   75MOL   C23028498   2.769   4.806   2.878  1.2099 -0.5394  0.7128
   75MOL   C23128499   2.798   4.798   3.033 -0.2199  0.1750  0.3051
   75MOL   C23228500   2.828   4.928   3.107  0.1477 -0.3606  0.6156
   75MOL   C23328501   2.701   4.953   3.188  0.2338 -0.2556 -0.3633
   75MOL   C23428502   2.668   4.815   3.237  0.2209  0.4644 -0.1968
   75MOL   C23528503   2.693   4.723   3.110 -0.4250  0.2584 -0.2775
   75MOL   C23628504   2.638   4.892   2.854  0.1049  0.9419 -0.2409
   75MOL   H23728505   2.858   4.850   2.833  0.5399  1.0529  0.9126
   75MOL   H23828506   2.889   4.741   3.046  0.7922  1.9336  1.0443
   75MOL   H23928507   2.903   4.907   3.183  1.0476 -0.3407 -0.2501
   75MOL   H24028508   2.878   5.011   3.056  0.2798 -0.1283  1.1195
   75MOL   H24128509   2.737   5.022   3.264 -2.7493  1.3896 -0.3809
   75MOL   H24228510   2.618   4.986   3.125  1.4187  0.9999 -1.2815
   75MOL   H24328511   2.568   4.801   3.279 -0.2573 -0.7150 -1.7215
   75MOL   H24428512   2.744   4.790   3.312 -0.6791 -0.6359  0.3649
   75MOL   H24528513   2.609   4.701   3.044 -1.1401  0.7954  0.4244
   75MOL   H24628514   2.743   4.628   3.126 -0.5092  0.1389 -0.7355
   75MOL   H24728515   2.655   4.983   2.912 -0.8289  1.9003 -1.4260
   75MOL   H24828516   2.550   4.839   2.889  0.6357 -0.0080 -0.3200
   75MOL   C24928517   2.637   4.931   2.703  0.2530 -0.5424  0.7310
   75MOL   C25028518   2.687   5.073   2.673  0.6991  0.2298 -0.7762
   75MOL   C25128519   2.820   5.114   2.738 -0.5276 -0.2303 -0.5807
   75MOL   C25228520   2.813   5.265   2.771 -0.7032  0.0888  0.8276
   75MOL   C25328521   2.675   5.308   2.754 -0.1696 -0.0074 -0.3356
   75MOL   C25428522   2.593   5.185   2.724 -0.2162  0.4484 -0.5142
   75MOL   C25528523   2.503   4.901   2.629  0.0516 -1.0657 -0.3718
   75MOL   H25628524   2.713   4.869   2.655 -0.4623 -1.0612  0.2577
   75MOL   H25728525   2.701   5.077   2.565 -3.7222 -4.8290 -1.8129
   75MOL   H25828526   2.906   5.104   2.672 -0.6272  0.2564 -0.7894
   75MOL   H25928527   2.849   5.063   2.830 -1.1645  0.6328  0.1050
   75MOL   H26028528   2.871   5.316   2.693 -0.7837  1.4537  1.6374
   75MOL   H26128529   2.852   5.297   2.868 -1.1681 -1.6873  1.6064
   75MOL   H26228530   2.666   5.372   2.666  2.3459  2.3546  1.0670
   75MOL   H26328531   2.647   5.363   2.843 -0.7049  0.4214 -0.7719
   75MOL   H26428532   2.508   5.206   2.660  0.5229  0.7420 -1.4009
   75MOL   H26528533   2.552   5.149   2.819 -0.2114 -0.1523 -0.7381
   75MOL   H26628534   2.477   4.802   2.669  0.4430 -0.8425  0.4550
   75MOL   H26728535   2.430   4.975   2.663  1.1402 -0.4326  0.6188
   75MOL   C26828536   2.510   4.903   2.468  0.3239  0.1738  0.3660
   75MOL   C26928537   2.357   4.915   2.400 -0.0878  0.0263 -0.3555
   75MOL   C27028538   2.306   5.060   2.400  0.2592 -0.3884  0.3457
   75MOL   C27128539   2.159   5.059   2.368 -0.3001  0.5328 -0.2106
   75MOL   C27228540   2.122   4.915   2.425 -0.7105  0.0031 -0.4194
   75MOL   C27328541   2.245   4.834   2.467  0.0881  0.7864  0.8752
   75MOL   C27428542   2.597   4.789   2.403 -0.0864  0.1737  0.0346
   75MOL   H27528543   2.554   5.000   2.448 -1.0084  0.2931 -2.1124
   75MOL   H27628544   2.365   4.899   2.292 -0.5932  2.3842 -0.7855
   75MOL   H27728545   2.319   5.098   2.502 -0.9580  0.9356  0.0265
   75MOL   H27828546   2.373   5.118   2.337 -0.6946 -0.2148 -0.5283
   75MOL   H27928547   2.108   5.142   2.417 -1.4474 -0.1479 -0.2244
   75MOL   H28028548   2.131   5.077   2.265 -0.4335 -0.1858 -0.3011
   75MOL   H28128549   2.077   4.853   2.346  0.8795 -2.1390  0.2968
   75MOL   H28228550   2.052   4.922   2.508 -1.9100 -2.0779 -1.1980
   75MOL   H28328551   2.249   4.730   2.434  2.3078  0.9587  0.5264
   75MOL   H28428552   2.262   4.828   2.574  2.2830 -1.0807  0.4579
   75MOL   H28528553   2.551   4.693   2.427  1.9513 -0.6342  0.8244
   75MOL   H28628554   2.692   4.796   2.455 -1.4671 -1.0416  2.8227
   75MOL   C28728555   2.621   4.801   2.252 -0.3633 -0.8138 -0.1848
   75MOL   C28828556   2.745   4.894   2.220 -0.0927  0.7360  0.2512
   75MOL   C28928557   2.875   4.843   2.271  0.2982 -0.5726  0.6371
   75MOL   C29028558   2.987   4.853   2.163  0.3352  0.3481  0.1251
   75MOL   C29128559   2.928   4.959   2.065 -0.4459  0.3650 -0.0015
   75MOL   C29228560   2.771   4.935   2.072 -0.0125 -0.5479  0.4718
   75MOL   C29328561   2.646   4.661   2.180 -0.0843 -0.4552  0.6556
   75MOL   H29428562   2.538   4.850   2.201  2.0961  0.9018 -2.6915
   75MOL   H29528563   2.731   4.990   2.270  1.5183  1.3369 -0.4417
   75MOL   H29628564   2.918   4.899   2.354 -1.0821  1.3417  0.1014
   75MOL   H29728565   2.871   4.740   2.307  1.4600 -0.7467  0.2786
   75MOL   H29828566   3.084   4.885   2.202  0.9721  1.0375 -1.9809
   75MOL   H29928567   3.004   4.760   2.109  3.7659  0.2305  1.2579
   75MOL   H30028568   2.971   4.945   1.966  2.2177 -2.1475  1.4374
   75MOL   H30128569   2.948   5.061   2.098 -2.1854  0.4021  1.0171
   75MOL   H30228570   2.758   4.860   1.994  0.4890  1.6863 -1.8265
   75MOL   H30328571   2.727   5.032   2.048  2.1227 -0.0199 -1.5055
   75MOL   H30428572   2.704   4.603   2.251  1.8466  1.0009  0.2997
   75MOL   H30528573   2.706   4.684   2.091 -0.9674  0.8129  0.3683
   75MOL   C30628574   2.521   4.572   2.140 -0.4180 -1.2902  0.2958
   75MOL   C30728575   2.574   4.462   2.050 -0.6314  0.1540 -1.2688
   75MOL   C30828576   2.607   4.512   1.905 -0.0341 -0.1582 -0.5198
   75MOL   C30928577   2.741   4.441   1.885 -0.0445  0.0714  0.4947
   75MOL   C31028578   2.755   4.324   1.978 -0.8599  0.1393 -0.4452
   75MOL   C31128579   2.680   4.370   2.107  0.1086 -0.3201 -0.2189
   75MOL   C31228580   2.438   4.527   2.259  0.2908  0.4562  0.1195
   75MOL   H31328581   2.457   4.634   2.077 -0.6272 -1.2890  0.5045
   75MOL   H31428582   2.480   4.408   2.034 -1.4055  0.6815  1.1828
   75MOL   H31528583   2.608   4.621   1.905  0.1231 -0.1588 -1.8688
   75MOL   H31628584   2.532   4.484   1.831 -2.2000  0.1203  1.4877
   75MOL   H31728585   2.753   4.413   1.780 -1.7252  2.3382 -0.3482
   75MOL   H31828586   2.816   4.515   1.910  0.7775 -0.6164  0.0895
   75MOL   H31928587   2.856   4.293   2.002 -1.0076 -0.6399 -0.8357
   75MOL   H32028588   2.704   4.238   1.936  0.2918 -0.6231 -0.2918
   75MOL   H32128589   2.639   4.293   2.172 -1.3508 -0.3854 -1.2071
   75MOL   H32228590   2.753   4.424   2.167  1.1989 -1.0268 -0.8640
   75MOL   H32328591   2.395   4.611   2.313  0.9305  0.5257  0.5271
   75MOL   H32428592   2.512   4.477   2.322  1.1928 -0.5380 -1.6840
   75MOL   C32528593   2.308   4.447   2.228 -0.0903 -0.4767  0.3396
   75MOL   C32628594   2.205   4.530   2.135  0.7618  0.7122 -0.2340
   75MOL   C32728595   2.123   4.650   2.179  0.4902  0.4887 -0.7069
   75MOL   C32828596   1.986   4.635   2.125  0.6534 -0.5912 -0.0144
   75MOL   C32928597   1.961   4.489   2.090 -0.0889  0.6940 -0.3268
   75MOL   C33028598   2.105   4.432   2.062  0.1673  0.1161 -0.0805
   75MOL   C33128599   2.238   4.403   2.362  0.0342  0.0739  0.0316
   75MOL   H33228600   2.338   4.353   2.182 -3.9472 -1.7280  0.2653
   75MOL   H33328601   2.265   4.569   2.053  1.7205 -0.1654  0.0384
   75MOL   H33428602   2.162   4.749   2.156  0.2790  0.8308  0.3387
   75MOL   H33528603   2.131   4.641   2.288  2.0645  1.5739 -0.7206
   75MOL   H33628604   1.978   4.691   2.032  0.7350 -0.8857 -0.1995
   75MOL   H33728605   1.906   4.673   2.189 -0.6486 -2.3962 -0.5117
   75MOL   H33828606   1.897   4.474   2.003 -0.4596 -0.9109  0.1955
   75MOL   H33928607   1.918   4.438   2.177  1.7962 -0.4456 -0.0216
   75MOL   H34028608   2.112   4.451   1.955 -2.7563 -0.4153 -0.4329
   75MOL   H34128609   2.128   4.329   2.088  0.8241 -0.1652 -1.7200
   75MOL   H34228610   2.143   4.353   2.346  0.3071 -0.2125 -0.7481
   75MOL   H34328611   2.225   4.493   2.421 -0.1207 -0.6366  1.0939
   75MOL   C34428612   2.314   4.305   2.454 -0.4011  0.2951 -0.3530
   75MOL   C34528613   2.342   4.173   2.394 -0.6295 -0.2310  0.1713
   75MOL   C34628614   2.223   4.080   2.357 -0.5165 -0.3638  0.4429
   75MOL   C34728615   2.266   3.934   2.373 -0.2740  0.7987 -0.6816
   75MOL   C34828616   2.423   3.950   2.386  0.2369 -0.1050  0.0985
   75MOL   C34928617   2.441   4.082   2.471 -0.0020 -0.3741 -0.1133
   75MOL   C35028618   2.235   4.301   2.586 -0.1767 -0.4220 -0.2056
   75MOL   H35128619   2.413   4.350   2.466 -0.3447  0.0990 -0.0653
   75MOL   H35228620   2.390   4.192   2.298 -1.8394  1.1328 -0.1818
   75MOL   H35328621   2.191   4.096   2.254 -0.6793  0.0384  0.5558
   75MOL   H35428622   2.130   4.088   2.413  0.5434  1.6965  2.0214
   75MOL   H35528623   2.224   3.898   2.467  2.4761 -0.0350  0.2686
   75MOL   H35628624   2.223   3.869   2.297 -3.0124  0.3206  1.1898
   75MOL   H35728625   2.460   3.959   2.284 -0.5687 -1.0044 -0.2820
   75MOL   H35828626   2.474   3.866   2.432 -0.4017 -1.5195 -1.6965
   75MOL   H35928627   2.414   4.063   2.575  0.2411  1.2824  0.2720
   75MOL   H36028628   2.544   4.118   2.463  0.5805 -2.2298 -1.4228
   75MOL   H36128629   2.166   4.217   2.595  1.0006 -1.3865  0.1500
   75MOL   H36228630   2.173   4.389   2.594  2.6439  1.8799 -2.6357
   75MOL   C36328631   2.323   4.303   2.704 -0.2981  0.3752 -0.3757
   75MOL   C36428632   2.330   4.455   2.749  0.3261 -0.1575  0.4685
   75MOL   C36528633   2.442   4.476   2.852 -0.0507 -0.5052 -0.8144
   75MOL   C36628634   2.378   4.542   2.969  0.0025  0.0337  0.2954
   75MOL   C36728635   2.237   4.513   2.959  0.6146 -0.6204  0.0696
   75MOL   C36828636   2.207   4.515   2.814  0.1041 -0.2689  0.4477
   75MOL   C36928637   2.273   4.201   2.820 -0.0067  0.8280 -0.1000
   75MOL   H37028638   2.422   4.265   2.677 -1.4870 -2.7029 -0.7021
   75MOL   H37128639   2.353   4.515   2.661 -1.7893  0.0430  0.0182
   75MOL   H37228640   2.498   4.386   2.877 -2.4842 -2.0845 -0.9175
   75MOL   H37328641   2.505   4.558   2.815 -0.9687  1.2994  1.4955
   75MOL   H37428642   2.415   4.508   3.066  1.3895  2.0078  0.4790
   75MOL   H37528643   2.387   4.649   2.950  0.8815  0.1579  1.3594
   75MOL   H37628644   2.211   4.415   2.999 -0.0530 -0.5653 -0.2259
   75MOL   H37728645   2.185   4.584   3.024 -2.8264 -1.3758 -1.7247
   75MOL   H37828646   2.197   4.614   2.768  1.4766 -1.1153 -1.7100
   75MOL   H37928647   2.109   4.476   2.785  0.7888  0.4007 -3.0228
   75MOL   H38028648   2.166   4.213   2.838 -0.6737 -2.4947 -1.5282
   75MOL   H38128649   2.335   4.219   2.908  1.4290 -1.7261 -0.5345
   75MOL   H38228650   2.287   4.094   2.802 -2.0330  0.8456 -1.9831
   76MOL     C128651   0.205   2.241   7.313 -1.8313 -0.0898 -0.2913
   76MOL     C228652   0.337   2.316   7.323  0.4115  0.0817 -0.1611
   76MOL     C328653   0.327   2.451   7.270  0.4854  0.9458 -0.0961
   76MOL     C428654   0.459   2.498   7.237  0.0158 -0.3310  1.1143
   76MOL     C528655   0.549   2.372   7.228 -0.1236 -0.5458 -0.7805
   76MOL     C628656   0.456   2.255   7.250  0.5607 -0.1125  0.0206
   76MOL     C728657   0.089   2.286   7.405 -0.8040 -0.3133  0.0355
   76MOL     H828658   0.166   2.244   7.211  0.4067  1.1080 -1.1457
   76MOL     H928659   0.357   2.315   7.430  0.9013 -2.4180 -0.2385
   76MOL    H1028660   0.263   2.459   7.182  0.0029  0.7705  0.2331
   76MOL    H1128661   0.265   2.509   7.338 -2.1983 -1.3621 -0.4637
   76MOL    H1228662   0.469   2.553   7.143  0.5981  0.4141  1.5994
   76MOL    H1328663   0.483   2.568   7.318 -2.1364 -1.6735  2.9632
   76MOL    H1428664   0.596   2.354   7.131  0.3137 -2.5024 -0.2198
   76MOL    H1528665   0.632   2.378   7.298 -1.0291  0.6920  0.2110
   76MOL    H1628666   0.510   2.175   7.300  2.2088  0.0212 -1.4852
   76MOL    H1728667   0.413   2.222   7.156 -1.1401 -1.2639  1.1786
   76MOL    H1828668   0.108   2.253   7.507 -1.5730  0.9709  0.5980
   76MOL    H1928669   0.080   2.394   7.410  0.1315 -0.1539 -1.5710
   76MOL    H2028670   0.228   2.136   7.335 -2.3246  0.2564  1.9954
   76MOL    C2128671   7.641   2.228   7.363 -1.0488 -0.0271 -0.9535
   76MOL    C2228672   7.545   2.199   7.472 -0.6427 -0.1088  0.7835
   76MOL    C2328673   7.503   2.324   7.559 -0.1779  0.3053 -0.2577
   76MOL    C2428674   7.525   2.290   0.016  0.1278 -0.3683 -0.5750
   76MOL    C2528675   7.623   2.180   0.022  0.7661  0.6042 -0.7701
   76MOL    C2628676   7.607   2.115   7.573  0.2355 -0.3578 -0.2612
   76MOL    C2728677   7.587   2.330   7.250 -0.1171  0.5319 -0.6558
   76MOL    H2828678   7.657   2.131   7.316  1.0225  0.5889 -1.5828
   76MOL    H2928679   7.462   2.145   7.429 -0.7872  0.3647  0.4616
   76MOL    H3028680   7.405   2.355   7.525 -0.0682  1.7990  0.7692
   76MOL    H3128681   7.566   2.411   7.540 -0.5249  0.4900 -0.5476
   76MOL    H3228682   7.563   2.383   0.059  0.8912  0.0032 -2.0225
   76MOL    H3328683   7.435   2.259   0.069  0.8361 -2.2158 -0.4084
   76MOL    H3428684   7.595   2.104   0.096 -0.4415  0.1289 -1.7045
   76MOL    H3528685   0.031   2.220   0.049  1.6130 -2.0968  0.3281
   76MOL    H3628686   7.551   2.022   7.586 -0.3252 -0.2009 -1.5588
   76MOL    H3728687   0.012   2.079   7.533  0.4251  0.0861 -0.2093
   76MOL    H3828688   7.553   2.416   7.307 -0.9093  0.0229 -0.3398
   76MOL    H3928689   7.668   2.367   7.188 -0.5856  0.9258 -1.0337
   76MOL    C4028690   7.478   2.262   7.160  0.2042  0.1016 -0.0294
   76MOL    C4128691   7.339   2.284   7.217  0.3120 -0.7828 -0.1664
   76MOL    C4228692   7.232   2.193   7.158  0.2392  0.0399 -0.4675
   76MOL    C4328693   7.103   2.271   7.131  0.5025 -0.1831 -0.3179
   76MOL    C4428694   7.125   2.400   7.207 -0.3811  0.3396 -0.3801
   76MOL    C4528695   7.279   2.423   7.195 -0.9687  0.1974 -0.5892
   76MOL    C4628696   7.507   2.298   7.005 -0.3675 -0.1015 -0.9810
   76MOL    H4728697   7.491   2.153   7.160  2.5299  0.3340  1.3525
   76MOL    H4828698   7.331   2.265   7.324  0.2292 -0.4156 -0.1080
   76MOL    H4928699   7.221   2.111   7.229  1.0935  0.5635  0.2843
   76MOL    H5028700   7.257   2.144   7.064  0.2067 -0.5500 -0.1710
   76MOL    H5128701   7.008   2.223   7.155  0.1453  1.1640  1.0646
   76MOL    H5228702   7.096   2.289   7.024 -2.1968 -0.1472 -0.1633
   76MOL    H5328703   7.062   2.481   7.171  1.4567  1.7880 -0.3583
   76MOL    H5428704   7.103   2.391   7.314 -0.0848 -2.4867 -0.5214
   76MOL    H5528705   7.290   2.458   7.092  1.5024  0.9092 -0.1185
   76MOL    H5628706   7.305   2.498   7.270 -2.4641  0.6229 -0.4902
   76MOL    H5728707   7.410   2.298   6.956 -0.7551 -1.2004 -0.2224
   76MOL    H5828708   7.524   2.406   7.003  0.6596 -0.2495 -0.7367
   76MOL    C5928709   7.622   2.220   6.945 -0.7046  0.4523 -0.8032
   76MOL    C6028710   7.594   2.066   6.915  0.1576  0.3760 -0.5189
   76MOL    C6128711   0.030   1.981   6.875 -0.0958  0.3516  0.7864
   76MOL    C6228712   7.653   1.856   6.828  0.1750  0.5072 -0.3910
   76MOL    C6328713   7.523   1.889   6.768 -0.3593  0.4051  1.1590
   76MOL    C6428714   7.478   2.028   6.825 -0.1591  0.0236  0.0546
   76MOL    C6528715   7.658   2.286   6.808 -0.5945 -0.1885  0.1302
   76MOL    H6628716   0.012   2.227   7.019 -2.8456  1.1904  1.4757
   76MOL    H6728717   7.566   2.027   7.013  0.7095  0.4663 -0.3240
   76MOL    H6828718   0.098   1.958   6.958  1.2027  1.0131 -0.0731
   76MOL    H6928719   0.098   2.027   6.804  1.4774 -1.7551  0.8607
   76MOL    H7028720   7.629   1.799   6.918  0.4741 -1.6351 -1.6396
   76MOL    H7128721   0.022   1.788   6.767 -1.3037 -1.0944 -0.0729
   76MOL    H7228722   7.447   1.812   6.783 -0.6960 -0.0063 -2.1675
   76MOL    H7328723   7.538   1.910   6.662  1.5920  0.1663  1.3667
   76MOL    H7428724   7.474   2.087   6.734 -0.0630 -1.9089 -1.2378
   76MOL    H7528725   7.381   2.011   6.871  0.4018 -1.2673  0.8057
   76MOL    H7628726   7.575   2.269   6.739 -0.2074 -1.2758 -0.0780
   76MOL    H7728727   0.036   2.219   6.756  0.6182 -0.5661  2.1417
   76MOL    C7828728   0.027   2.435   6.800  0.1900  0.6739  0.0785
   76MOL    C7928729   0.177   2.438   6.843  0.5287 -0.8585 -0.4134
   76MOL    C8028730   0.229   2.576   6.883  0.2283 -0.2237  0.3867
   76MOL    C8128731   0.374   2.583   6.840  0.0665  0.6770  0.7653
   76MOL    C8228732   0.412   2.436   6.806  0.4712 -0.5723  0.4597
   76MOL    C8328733   0.280   2.385   6.748  0.0156  0.1799 -0.3895
   76MOL    C8428734   7.689   2.498   6.660 -0.5219  0.5524  0.4171
   76MOL    H8528735   7.659   2.497   6.869  1.0545  0.5672  0.8934
   76MOL    H8628736   0.197   2.376   6.931  0.8050  1.3235  1.1014
   76MOL    H8728737   0.214   2.577   6.991 -1.0658  0.5133  0.2156
   76MOL    H8828738   0.172   2.660   6.842 -3.2147 -1.4100  2.4930
   76MOL    H8928739   0.436   2.637   6.913  0.6787  1.0076  0.0039
   76MOL    H9028740   0.375   2.650   6.754  2.3297  0.1457  0.3350
   76MOL    H9128741   0.504   2.429   6.749 -1.1753  1.1860 -2.5287
   76MOL    H9228742   0.432   2.398   6.906  1.5548  2.3764  1.4288
   76MOL    H9328743   0.264   2.418   6.645 -0.4530  2.1562  0.2868
   76MOL    H9428744   0.286   2.276   6.743  1.7570  0.2841 -1.0545
   76MOL    H9528745   0.050   2.434   6.588  1.1444  0.4919  1.6140
   76MOL    H9628746   0.054   2.592   6.652  2.3482 -1.0323  0.6912
   76MOL    C9728747   7.544   2.531   6.621  0.4417 -0.2006 -0.1375
   76MOL    C9828748   7.533   2.534   6.470  0.2645  0.2183  0.2796
   76MOL    C9928749   7.629   2.624   6.396  0.1467  0.4541  0.6639
   76MOL   C10028750   7.620   2.595   6.250 -0.4091 -0.3001  0.2047
   76MOL   C10128751   7.597   2.442   6.244  0.0386 -0.4699  0.1583
   76MOL   C10228752   7.549   2.405   6.389  0.3570  0.0146 -0.2191
   76MOL   C10328753   7.497   2.665   6.684  0.0465  0.4260 -0.3799
   76MOL   H10428754   7.482   2.451   6.661 -2.0229  0.6904 -2.0708
   76MOL   H10528755   7.434   2.575   6.451 -0.0700 -0.6160  0.1677
   76MOL   H10628756   7.599   2.726   6.419  0.9674  1.2629 -1.6945
   76MOL   H10728757   0.041   2.612   6.432  0.3369 -3.0185 -0.9113
   76MOL   H10828758   0.020   2.633   6.202  1.8045  0.0957  4.4252
   76MOL   H10928759   7.542   2.656   6.205 -1.1317 -2.1059 -1.0715
   76MOL   H11028760   7.681   2.384   6.205  0.4778  0.5666 -0.4672
   76MOL   H11128761   7.511   2.425   6.180  1.0783 -1.4794 -1.0002
   76MOL   H11228762   7.447   2.367   6.391  0.9258 -1.5410  0.1121
   76MOL   H11328763   7.622   2.337   6.434 -0.4544 -0.1297  0.9062
   76MOL   H11428764   7.500   2.647   6.792 -0.4796  0.1082 -0.4155
   76MOL   H11528765   7.571   2.740   6.658 -1.2801  1.4606 -1.1985
   76MOL   C11628766   7.353   2.715   6.662  0.4783  0.5792  0.1591
   76MOL   C11728767   7.250   2.597   6.675 -0.0512 -0.4253 -0.9127
   76MOL   C11828768   7.219   2.548   6.814 -0.4669  0.1414 -0.6964
   76MOL   C11928769   7.101   2.463   6.798 -0.4874 -0.1077  0.2331
   76MOL   C12028770   7.018   2.533   6.693  0.0913 -0.5508  0.2905
   76MOL   C12128771   7.111   2.624   6.613  0.2816  0.1979  0.8788
   76MOL   C12228772   7.315   2.831   6.751  0.2348  0.1822  0.6403
   76MOL   H12328773   7.340   2.744   6.557 -2.8057 -0.5757  0.1776
   76MOL   H12428774   7.282   2.513   6.614 -0.8905  0.5643 -2.7666
   76MOL   H12528775   7.299   2.498   6.869  0.7567  0.8865 -1.7724
   76MOL   H12628776   7.196   2.629   6.883  0.8715  0.3386 -0.4529
   76MOL   H12728777   7.034   2.449   6.882  1.3480  1.0028  1.9214
   76MOL   H12828778   7.137   2.368   6.758 -1.8432 -0.6853  0.3536
   76MOL   H12928779   6.937   2.586   6.743  1.0597  1.1562  0.0998
   76MOL   H13028780   6.959   2.472   6.624 -2.7967  2.8495 -0.4100
   76MOL   H13128781   7.090   2.603   6.508 -0.6206 -0.1474  1.1282
   76MOL   H13228782   7.086   2.730   6.619 -2.0517 -0.3913  1.9271
   76MOL   H13328783   7.340   2.818   6.856 -0.1010  1.1516  0.8516
   76MOL   H13428784   7.210   2.862   6.750  0.0534 -0.4232 -0.9634
   76MOL   C13528785   7.379   2.963   6.693  0.3105  0.5151  1.1315
   76MOL   C13628786   7.393   3.080   6.788 -0.2890 -0.9110  0.1724
   76MOL   C13728787   7.494   3.065   6.905  0.0794  0.0446  0.4417
   76MOL   C13828788   7.431   3.119   7.031  0.6703 -0.0433 -0.0675
   76MOL   C13928789   7.304   3.194   6.986 -0.8824 -0.6102 -0.1596
   76MOL   C14028790   7.260   3.126   6.853  0.1165 -0.0663  0.0709
   76MOL   C14128791   7.301   3.010   6.567  0.3187  0.2118  0.3544
   76MOL   H14228792   7.482   2.941   6.662 -0.4568  0.9148 -1.9192
   76MOL   H14328793   7.421   3.170   6.733 -0.4477  1.2876  3.5920
   76MOL   H14428794   7.515   2.960   6.923  1.0057  0.0348 -0.5902
   76MOL   H14528795   7.591   3.107   6.880 -0.7997  1.2749 -0.9952
   76MOL   H14628796   7.495   3.171   7.103  0.0661 -0.4839  0.7946
   76MOL   H14728797   7.395   3.032   7.086 -1.7390 -0.5293 -2.2974
   76MOL   H14828798   7.335   3.298   6.972  0.1415 -0.7398  1.0947
   76MOL   H14928799   7.226   3.201   7.061 -1.6355  1.1560 -1.0715
   76MOL   H15028800   7.205   3.033   6.865  1.0872 -0.2587  3.4619
   76MOL   H15128801   7.194   3.189   6.795 -0.7705  0.2577  1.4083
   76MOL   H15228802   7.264   3.113   6.572 -0.6237 -0.0480 -1.1588
   76MOL   H15328803   7.206   2.959   6.551  0.5987 -0.2724  0.2428
   76MOL   C15428804   7.387   3.008   6.442  0.5147 -0.4501  0.3110
   76MOL   C15528805   7.286   2.994   6.311 -0.4376  0.3729 -0.1838
   76MOL   C15628806   7.187   3.116   6.296  1.1174 -0.1373  0.1324
   76MOL   C15728807   7.080   3.068   6.205  0.5570  0.3259  0.2054
   76MOL   C15828808   7.073   2.910   6.216  0.0770 -0.6062 -0.3445
   76MOL   C15928809   7.196   2.873   6.296 -0.3204  0.1487 -0.1986
   76MOL   C16028810   7.478   3.128   6.435  0.0557 -0.2148  0.5316
   76MOL   H16128811   7.435   2.910   6.445 -0.3439 -0.8697  0.8009
   76MOL   H16228812   7.351   2.990   6.223 -2.0053  0.5421 -1.3637
   76MOL   H16328813   7.159   3.147   6.397 -2.2375  0.9214 -1.0283
   76MOL   H16428814   7.244   3.187   6.236  1.7488 -0.0374  0.8464
   76MOL   H16528815   6.983   3.118   6.205  0.6797  0.5749  1.1577
   76MOL   H16628816   7.118   3.092   6.105 -2.0855  2.1199 -0.4302
   76MOL   H16728817   7.065   2.859   6.121 -0.3346 -1.2517  0.0337
   76MOL   H16828818   6.982   2.884   6.270  1.6738 -3.9101  0.8910
   76MOL   H16928819   7.248   2.792   6.244 -0.4385 -0.1341  0.1212
   76MOL   H17028820   7.157   2.833   6.390 -2.0468  0.0547 -0.9564
   76MOL   H17128821   7.515   3.152   6.535 -0.2206 -0.0690  0.6011
   76MOL   H17228822   7.424   3.220   6.410  0.9083  0.8721  2.5469
   76MOL   C17328823   7.592   3.110   6.335 -0.2132 -1.0182  0.0546
   76MOL   C17428824   0.009   3.026   6.405  0.6222  0.0977 -0.5490
   76MOL   C17528825   0.102   3.097   6.510  0.6925  0.6173 -0.1829
   76MOL   C17628826   0.208   2.990   6.531  0.3765 -0.2877  0.0501
   76MOL   C17728827   0.224   2.901   6.412  0.4193 -0.8683  0.1044
   76MOL   C17828828   0.114   2.960   6.309 -0.8054 -0.9899 -0.0467
   76MOL   C17928829   7.649   3.232   6.260  0.2753 -0.6125 -0.1678
   76MOL   H18028830   7.560   3.047   6.252  0.5380 -1.7552  0.3229
   76MOL   H18128831   7.645   2.946   6.457  0.2643  0.9753  0.4357
   76MOL   H18228832   0.050   3.093   6.606  3.2213  0.5777  1.2194
   76MOL   H18328833   0.142   3.195   6.484  0.3252  0.8828  0.2535
   76MOL   H18428834   0.302   3.042   6.552  2.0560 -3.6942  1.2165
   76MOL   H18528835   0.199   2.939   6.626 -0.1504  0.3164  0.3224
   76MOL   H18628836   0.208   2.803   6.457  1.0607 -1.0480 -0.0557
   76MOL   H18728837   0.322   2.895   6.366  0.4030  0.8435 -0.1891
   76MOL   H18828838   0.168   3.022   6.238  3.5298 -1.1691  2.9238
   76MOL   H18928839   0.079   2.873   6.252  0.7925 -1.1523 -0.8010
   76MOL   H19028840   0.009   3.298   6.330 -1.1310  0.7702 -0.4244
   76MOL   H19128841   0.035   3.203   6.188 -0.2772  1.3730 -1.5973
   76MOL   C19228842   7.552   3.314   6.172  0.8856  1.0572 -0.3376
   76MOL   C19328843   7.494   3.228   6.053  0.1686 -0.8829  0.3121
   76MOL   C19428844   7.595   3.174   5.948 -0.0106  0.0140 -0.1266
   76MOL   C19528845   7.504   3.137   5.836 -0.5182  0.2742  0.6546
   76MOL   C19628846   7.410   3.256   5.832 -0.0108  0.6091 -0.4265
   76MOL   C19728847   7.378   3.293   5.978 -0.2608 -0.0127 -0.5137
   76MOL   C19828848   7.624   3.444   6.124 -0.4102 -0.4044  0.2620
   76MOL   H19928849   7.465   3.336   6.234  1.0607 -0.8475  0.6368
   76MOL   H20028850   7.452   3.138   6.098 -1.0863 -1.1055 -1.2728
   76MOL   H20128851   7.648   3.085   5.982  0.8873  0.1678 -1.1319
   76MOL   H20228852   7.675   3.245   5.926 -0.0585  0.4991  1.2128
   76MOL   H20328853   7.558   3.123   5.742  0.5994  0.5174  1.2523
   76MOL   H20428854   7.457   3.040   5.855 -2.8971  1.2479 -0.0681
   76MOL   H20528855   7.315   3.237   5.782  0.8303  0.5687 -2.0369
   76MOL   H20628856   7.457   3.343   5.786 -1.3267  1.3195 -0.4620
   76MOL   H20728857   7.280   3.258   6.009  0.6337 -0.4883  1.9304
   76MOL   H20828858   7.378   3.402   5.985 -1.7421 -0.0890  1.1121
   76MOL   H20928859   0.031   3.415   6.082 -0.0697 -0.2550  0.9357
   76MOL   H21028860   7.568   3.481   6.039  0.0473  0.6060  0.3984
   76MOL   C21128861   7.611   3.548   6.232 -0.2431 -0.0277  0.0584
   76MOL   C21228862   0.036   3.646   6.211 -0.2118  0.3060 -0.0383
   76MOL   C21328863   0.171   3.587   6.248 -0.6008 -0.1991  0.2673
   76MOL   C21428864   0.243   3.557   6.118 -0.4588  0.1555 -0.2929
   76MOL   C21528865   0.183   3.652   6.012 -0.2467  0.4132 -0.4171
   76MOL   C21628866   0.049   3.707   6.073 -0.4459  0.2285  0.4845
   76MOL   C21728867   7.464   3.608   6.223  0.5865  0.6167 -0.2480
   76MOL   H21828868   7.638   3.513   6.332 -0.7467 -0.3753  0.0763
   76MOL   H21928869   0.022   3.721   6.289  0.1312 -0.1138  0.4305
   76MOL   H22028870   0.225   3.675   6.282  0.6069 -0.4886 -0.8513
   76MOL   H22128871   0.173   3.494   6.305  0.4865 -0.0431  0.5021
   76MOL   H22228872   0.350   3.565   6.135 -0.7065  0.1302  1.2988
   76MOL   H22328873   0.234   3.452   6.089 -0.5943  0.5919 -1.8811
   76MOL   H22428874   0.174   3.606   5.914 -0.7883 -0.6890  0.1321
   76MOL   H22528875   0.259   3.727   5.991  1.1103 -1.0983 -1.0306
   76MOL   H22628876   0.054   3.816   6.069 -0.1076  0.1659 -1.1157
   76MOL   H22728877   7.654   3.679   6.011  0.8636 -0.3468 -1.0718
   76MOL   H22828878   7.385   3.541   6.188  2.4755 -1.9283  0.2362
   76MOL   H22928879   7.456   3.691   6.152  0.1546  0.6792 -0.1291
   76MOL   C23028880   7.408   3.661   6.354  0.0973 -0.2313  0.2421
   76MOL   C23128881   7.359   3.554   6.452 -0.2928  0.4668  0.2020
   76MOL   C23228882   7.363   3.591   6.600  0.1263  0.5904  0.5484
   76MOL   C23328883   7.306   3.459   6.655  0.9497  0.1211 -0.5556
   76MOL   C23428884   7.195   3.413   6.558  0.2126 -0.7082  0.8786
   76MOL   C23528885   7.218   3.487   6.429 -0.3366  0.1110  0.4616
   76MOL   C23628886   7.300   3.767   6.334 -0.1763  0.4357 -0.2225
   76MOL   H23728887   7.502   3.703   6.392  0.0079 -1.4592  1.8567
   76MOL   H23828888   7.433   3.475   6.439 -0.2186  0.3604  1.2695
   76MOL   H23928889   7.466   3.604   6.632 -0.3692  0.1818  2.3656
   76MOL   H24028890   7.294   3.672   6.624 -0.0993 -0.1802  2.5975
   76MOL   H24128891   7.384   3.384   6.644 -0.5352 -1.2402 -1.9971
   76MOL   H24228892   7.272   3.467   6.759 -2.3015 -0.8896 -1.4783
   76MOL   H24328893   7.099   3.447   6.596  0.5511  0.6437  0.5314
   76MOL   H24428894   7.188   3.304   6.556 -1.4696 -0.6895  3.3106
   76MOL   H24528895   7.144   3.565   6.418 -1.5679 -1.1198 -0.2169
   76MOL   H24628896   7.216   3.437   6.332 -1.9526  2.6432 -0.8564
   76MOL   H24728897   7.243   3.762   6.427  0.4577  0.5566  0.1786
   76MOL   H24828898   7.227   3.733   6.261  2.3457 -0.7808 -2.2549
   76MOL   C24928899   7.348   3.911   6.307  0.4482  0.5301 -0.0733
   76MOL   C25028900   7.433   3.978   6.416  0.3498  0.2013 -0.1868
   76MOL   C25128901   7.367   3.991   6.552  0.2780  0.3756 -0.0595
   76MOL   C25228902   7.432   4.104   6.636  0.1795 -0.5804  0.9970
   76MOL   C25328903   7.513   4.189   6.539  0.2871 -0.1437  0.2926
   76MOL   C25428904   7.485   4.124   6.401  1.0280 -0.1493 -0.3140
   76MOL   C25528905   7.226   3.990   6.245  0.3093 -0.4657  0.2724
   76MOL   H25628906   7.411   3.894   6.219  1.5736 -1.1853  1.0344
   76MOL   H25728907   7.519   3.912   6.423 -0.4230 -0.6913  1.2240
   76MOL   H25828908   7.360   3.893   6.600 -1.0680  1.5944  2.3767
   76MOL   H25928909   7.260   4.012   6.546  0.7699  2.4505 -1.9390
   76MOL   H26028910   7.502   4.052   6.700 -0.5467 -0.2281  2.0791
   76MOL   H26128911   7.361   4.163   6.693 -1.8394 -0.8807 -1.1100
   76MOL   H26228912   7.615   4.175   6.575 -0.1784 -0.1431  1.6220
   76MOL   H26328913   7.478   4.292   6.540 -0.3984 -0.3622 -0.0806
   76MOL   H26428914   7.568   4.132   6.331  0.1084  1.7469 -1.2113
   76MOL   H26528915   7.407   4.190   6.363 -0.8393 -2.4866 -0.6357
   76MOL   H26628916   7.139   3.929   6.218  1.1415 -1.5337 -0.0251
   76MOL   H26728917   7.176   4.043   6.326  0.7779 -0.5432  0.6156
   76MOL   C26828918   7.250   4.083   6.127 -0.2026 -0.7022 -0.5032
   76MOL   C26928919   7.121   4.168   6.092 -0.0737 -0.0172 -0.8814
   76MOL   C27028920   7.139   4.272   5.976  0.6965 -0.3243 -0.3422
   76MOL   C27128921   7.017   4.357   5.984  0.2864 -0.3343  0.3388
   76MOL   C27228922   6.954   4.340   6.122 -0.3469 -0.5217  0.0410
   76MOL   C27328923   7.056   4.252   6.203 -0.6206 -0.4640  0.2340
   76MOL   C27428924   7.323   4.026   5.996  0.6541 -0.1358  0.5174
   76MOL   H27528925   7.323   4.154   6.165 -1.8059  0.5955  0.1946
   76MOL   H27628926   7.044   4.105   6.047 -1.4264  1.4854 -0.7067
   76MOL   H27728927   7.222   4.334   6.011 -0.3399  1.0680 -0.2729
   76MOL   H27828928   7.155   4.228   5.878  0.4723  0.2592 -0.6443
   76MOL   H27928929   7.029   4.465   5.974  1.5216 -0.4074  0.9319
   76MOL   H28028930   6.949   4.344   5.899  2.5060  0.8732 -1.7011
   76MOL   H28128931   6.867   4.274   6.116 -0.0401 -0.9005 -0.2542
   76MOL   H28228932   6.914   4.424   6.180 -1.0602 -0.4948 -0.4783
   76MOL   H28328933   7.022   4.197   6.290  0.5797 -0.2633  0.8499
   76MOL   H28428934   7.133   4.317   6.245 -1.7822  1.6661 -0.8561
   76MOL   H28528935   7.401   3.958   6.031 -0.0335 -1.4095 -0.3502
   76MOL   H28628936   7.371   4.105   5.938  1.1762 -1.6889 -1.2114
   76MOL   C28728937   7.232   3.948   5.888 -0.2795  0.1397  0.3487
   76MOL   C28828938   7.319   3.868   5.787 -0.0088  0.0991  0.0382
   76MOL   C28928939   7.416   3.958   5.704 -0.0584  0.2170  0.3117
   76MOL   C29028940   7.553   3.884   5.682  0.2525 -0.2212 -0.4163
   76MOL   C29128941   7.523   3.744   5.729  0.1278 -0.1203 -1.2179
   76MOL   C29228942   7.426   3.765   5.849  0.6064 -0.1910 -0.3924
   76MOL   C29328943   7.135   3.849   5.956  0.0933  0.4634  0.0200
   76MOL   H29428944   7.170   4.015   5.827 -2.1682  0.7513  2.8442
   76MOL   H29528945   7.251   3.815   5.721 -0.4237  1.0441 -0.3032
   76MOL   H29628946   7.376   3.975   5.604  0.6528 -1.5643 -0.3072
   76MOL   H29728947   7.422   4.054   5.753  1.9417  0.3657 -0.1943
   76MOL   H29828948   7.578   3.884   5.576 -1.3728 -0.1186 -0.8058
   76MOL   H29928949   7.627   3.935   5.744  0.5309  0.5713 -1.3819
   76MOL   H30028950   7.612   3.691   5.764 -0.3871  0.0528  0.4000
   76MOL   H30128951   7.470   3.687   5.653  0.7131  1.3504 -2.7484
   76MOL   H30228952   7.492   3.805   5.926 -0.0288  0.5858 -0.2497
   76MOL   H30328953   7.379   3.676   5.889  0.6029  0.8696  2.0207
   76MOL   H30428954   7.075   3.903   6.029 -0.4767 -2.1123  1.5384
   76MOL   H30528955   7.199   3.787   6.019  0.5524  2.9224  2.0494
   76MOL   C30628956   7.039   3.756   5.870 -0.2047 -0.0509 -0.0801
   76MOL   C30728957   6.970   3.640   5.958  0.0645 -0.6639  0.3347
   76MOL   C30828958   7.061   3.524   5.999  0.8188  0.0551  0.2077
   76MOL   C30928959   6.976   3.453   6.109  0.0151  0.0119 -0.4154
   76MOL   C31028960   6.897   3.564   6.171  0.1997  0.1646 -0.5176
   76MOL   C31128961   6.907   3.687   6.093 -0.0807 -0.0336  0.0020
   76MOL   C31228962   6.939   3.839   5.784 -0.1014 -0.3307 -0.1630
   76MOL   H31328963   7.096   3.703   5.795 -0.2329  0.0703 -0.1875
   76MOL   H31428964   6.884   3.600   5.906 -1.6632 -0.1696  2.6868
   76MOL   H31528965   7.156   3.558   6.040  1.8587 -1.1729 -1.1451
   76MOL   H31628966   7.076   3.459   5.913  0.5827 -0.3810  0.4968
   76MOL   H31728967   6.915   3.373   6.068  0.7159 -0.3869 -0.6778
   76MOL   H31828968   7.049   3.408   6.177 -1.6230  0.4225  1.6741
   76MOL   H31928969   6.933   3.583   6.272  0.0786  0.4838 -0.5352
   76MOL   H32028970   6.796   3.525   6.183  0.4167 -0.3428 -0.3366
   76MOL   H32128971   6.812   3.739   6.081 -0.9686 -1.2246  1.7139
   76MOL   H32228972   6.983   3.735   6.155 -0.8117 -0.7853  1.5039
   76MOL   H32328973   6.951   3.945   5.807  0.5944 -0.6789  1.1264
   76MOL   H32428974   6.838   3.812   5.814  0.8615 -3.5477  0.3917
   76MOL   C32528975   6.949   3.815   5.632 -0.0968 -0.5067  0.8703
   76MOL   C32628976   6.992   3.942   5.563 -0.2419 -0.2513  0.2353
   76MOL   C32728977   6.904   4.070   5.584  0.3862 -0.0310  0.4969
   76MOL   C32828978   6.884   4.142   5.446 -0.0297  0.2963 -0.0657
   76MOL   C32928979   6.902   4.027   5.345  0.3650 -0.6202 -0.0285
   76MOL   C33028980   7.018   3.942   5.407 -0.6968 -0.0413 -0.4584
   76MOL   C33128981   6.813   3.759   5.575 -0.3732 -0.0166 -0.4460
   76MOL   H33228982   7.029   3.748   5.602  0.1923  0.4602 -0.5675
   76MOL   H33328983   7.086   3.961   5.614 -1.0320  1.6856  1.0053
   76MOL   H33428984   6.956   4.133   5.657  1.1325  0.9538 -0.8678
   76MOL   H33528985   6.810   4.043   5.631  1.1842 -2.0759  0.9591
   76MOL   H33628986   6.958   4.221   5.435  0.4152 -0.3388 -1.8817
   76MOL   H33728987   6.785   4.187   5.436 -0.3863 -0.4040  0.2618
   76MOL   H33828988   6.909   4.064   5.243 -0.7335  0.0232  0.1154
   76MOL   H33928989   6.810   3.969   5.353 -0.4381  0.4705 -1.1100
   76MOL   H34028990   7.115   3.985   5.383 -0.0435 -1.1192  0.2156
   76MOL   H34128991   7.020   3.842   5.363  3.6836 -0.8703  1.3306
   76MOL   H34228992   6.824   3.755   5.467  1.5768 -0.7207 -0.2599
   76MOL   H34328993   6.738   3.837   5.584  0.9948  1.1401  1.6670
   76MOL   C34428994   6.761   3.620   5.615  0.0102  0.5103  0.1825
   76MOL   C34528995   6.869   3.511   5.590  0.3958 -0.0790  0.0627
   76MOL   C34628996   6.892   3.448   5.450 -0.0536 -0.1627  0.3164
   76MOL   C34728997   6.943   3.304   5.480  1.1123 -0.0602  0.5465
   76MOL   C34828998   6.929   3.276   5.628  0.0197  0.7968 -0.0516
   76MOL   C34928999   6.846   3.392   5.685 -1.3073 -0.4602 -0.0834
   76MOL   C35029000   6.628   3.585   5.539 -0.4921  0.1565 -0.5028
   76MOL   H35129001   6.750   3.639   5.721  1.7978  1.8836  0.1492
   76MOL   H35229002   6.966   3.546   5.625 -0.3435  1.0867  0.9839
   76MOL   H35329003   6.959   3.511   5.392  0.3072 -0.4875  0.3760
   76MOL   H35429004   6.797   3.448   5.398  0.5442  0.9216 -0.7966
   76MOL   H35529005   6.881   3.235   5.423 -0.6169  1.9555 -0.0944
   76MOL   H35629006   7.045   3.292   5.446 -0.3592  1.0818 -4.7051
   76MOL   H35729007   7.032   3.273   5.663  0.2999 -2.7038 -0.9743
   76MOL   H35829008   6.889   3.175   5.641 -1.1796  0.9238 -2.5077
   76MOL   H35929009   6.741   3.362   5.682 -2.0212  2.0433 -1.4678
   76MOL   H36029010   6.861   3.421   5.789  1.2258  0.0735 -0.5679
   76MOL   H36129011   6.605   3.480   5.555 -1.0876  0.2776 -0.5390
   76MOL   H36229012   6.641   3.596   5.432 -0.7028 -1.5586 -0.7155
   76MOL   C36329013   6.508   3.664   5.582 -0.0809  0.6742  0.8454
   76MOL   C36429014   6.398   3.689   5.474  0.2565  0.4527 -0.0178
   76MOL   C36529015   6.453   3.737   5.334  0.0041  0.1958  0.7845
   76MOL   C36629016   6.349   3.830   5.276  0.3004  0.6365  0.3432
   76MOL   C36729017   6.232   3.836   5.385 -0.1548  0.9279 -0.2703
   76MOL   C36829018   6.298   3.797   5.512  0.3100  0.2076  0.4534
   76MOL   C36929019   6.451   3.601   5.708  0.1933  0.9417  0.6865
   76MOL   H37029020   6.539   3.766   5.603 -3.4042  1.5157  1.8754
   76MOL   H37129021   6.347   3.593   5.463  0.3331  0.1830  1.7958
   76MOL   H37229022   6.550   3.786   5.338  0.2352 -0.1413 -0.4522
   76MOL   H37329023   6.473   3.655   5.265 -1.8692 -1.0860  1.7212
   76MOL   H37429024   6.405   3.922   5.260 -1.2729  1.3906 -0.9897
   76MOL   H37529025   6.306   3.796   5.182  2.4079 -1.0491 -0.0319
   76MOL   H37629026   6.184   3.933   5.389  0.3383  1.1455  0.5032
   76MOL   H37729027   6.162   3.755   5.364  1.4198 -0.1800 -1.3827
   76MOL   H37829028   6.222   3.773   5.586  0.2754  2.0225  1.0228
   76MOL   H37929029   6.359   3.878   5.551 -0.2001  0.7633  0.1188
   76MOL   H38029030   6.520   3.608   5.791 -0.0845 -1.1055  1.1036
   76MOL   H38129031   6.432   3.495   5.688 -0.6131  1.2898 -0.4640
   76MOL   H38229032   6.353   3.646   5.728  0.4948  1.5457  0.8125
   77MOL     C129033   3.542   2.547   4.244  0.2253 -0.6316 -0.3153
   77MOL     C229034   3.475   2.474   4.360 -0.2117  0.4212  0.8172
   77MOL     C329035   3.499   2.321   4.343  0.6919  0.3065 -0.2056
   77MOL     C429036   3.361   2.256   4.339  0.3134  0.3743  0.2173
   77MOL     C529037   3.269   2.358   4.275  0.0703 -0.1886  0.2242
   77MOL     C629038   3.326   2.493   4.335 -0.8618  0.6037 -0.1301
   77MOL     C729039   3.695   2.564   4.263  0.6133 -0.0082 -0.3258
   77MOL     H829040   3.515   2.506   4.147 -0.2795  0.2638 -0.5567
   77MOL     H929041   3.499   2.511   4.459  0.3520  0.4713  0.6626
   77MOL    H1029042   3.548   2.291   4.251 -1.4319 -1.6737 -0.7242
   77MOL    H1129043   3.567   2.283   4.419  1.9102 -2.8013 -2.7730
   77MOL    H1229044   3.352   2.155   4.299 -0.2681  0.5756 -0.1677
   77MOL    H1329045   3.316   2.238   4.436 -0.4161  1.4467  0.0883
   77MOL    H1429046   3.283   2.369   4.167 -0.3038  0.2316  0.2197
   77MOL    H1529047   3.162   2.344   4.288 -0.6400  4.5537  0.1771
   77MOL    H1629048   3.275   2.513   4.430 -1.6378 -2.1405  0.0511
   77MOL    H1729049   3.298   2.576   4.270  0.2436  2.4695  1.6861
   77MOL    H1829050   3.718   2.583   4.368 -0.1171  1.5630 -0.4520
   77MOL    H1929051   3.745   2.468   4.245  1.9179  0.7610 -0.8443
   77MOL    H2029052   3.514   2.652   4.248 -1.1484 -0.9831 -0.4397
   77MOL    C2129053   3.755   2.667   4.160 -0.0754 -0.5123 -0.3075
   77MOL    C2229054   3.899   2.709   4.209 -0.6251  0.2868  0.6702
   77MOL    C2329055   3.920   2.721   4.359  0.4892  0.2012 -0.0447
   77MOL    C2429056   4.049   2.794   4.375 -0.4452 -0.2683  0.3976
   77MOL    C2529057   4.060   2.898   4.262 -0.1503 -0.1249 -0.1402
   77MOL    C2629058   3.972   2.842   4.152 -0.3346  0.4636  0.6732
   77MOL    C2729059   3.756   2.604   4.020  0.0576  0.5047 -0.4983
   77MOL    H2829060   3.693   2.756   4.171 -3.0288 -2.5963  0.4027
   77MOL    H2929061   3.965   2.625   4.183  0.2117  1.5919 -1.5282
   77MOL    H3029062   3.932   2.622   4.403  3.3158 -0.4874 -2.1915
   77MOL    H3129063   3.840   2.785   4.396  1.3302  1.2734 -0.0587
   77MOL    H3229064   4.054   2.840   4.473  1.0521  0.0241  0.1912
   77MOL    H3329065   4.125   2.717   4.363  0.2864  0.2907  1.5122
   77MOL    H3429066   4.159   2.898   4.218  0.0767  0.7788  0.3728
   77MOL    H3529067   4.033   2.999   4.292 -1.9351 -1.0307  1.4852
   77MOL    H3629068   4.041   2.822   4.069  0.4897 -1.8280  1.8649
   77MOL    H3729069   3.893   2.904   4.110 -1.5202 -0.5204  1.4138
   77MOL    H3829070   3.843   2.538   4.028 -0.7823 -0.5270  0.3441
   77MOL    H3929071   3.679   2.527   4.010 -0.6223  1.1010  0.1177
   77MOL    C4029072   3.743   2.713   3.911  0.3618  0.4383 -0.2276
   77MOL    C4129073   3.796   2.658   3.774 -0.2160 -0.8760 -0.5161
   77MOL    C4229074   3.940   2.607   3.786 -0.1731  0.7010 -0.4404
   77MOL    C4329075   4.003   2.622   3.645  0.3363  0.4785  0.3817
   77MOL    C4429076   3.923   2.730   3.569 -0.0440  0.4463 -0.3214
   77MOL    C4529077   3.813   2.778   3.669  0.3507 -0.0662 -0.2745
   77MOL    C4629078   3.594   2.760   3.904 -0.4643  0.0678 -0.3083
   77MOL    H4729079   3.810   2.792   3.947  0.0356  0.3630  0.5636
   77MOL    H4829080   3.739   2.574   3.736  0.4786 -1.9551  0.7651
   77MOL    H4929081   3.952   2.501   3.807 -0.3207  1.2110  2.3470
   77MOL    H5029082   3.995   2.670   3.856  0.9354  1.7398 -2.2010
   77MOL    H5129083   4.004   2.537   3.577 -0.0593  1.7066 -1.1824
   77MOL    H5229084   4.109   2.645   3.657 -0.0019  1.7341  1.1795
   77MOL    H5329085   3.990   2.811   3.541  1.7285 -0.1001  2.2139
   77MOL    H5429086   3.883   2.693   3.475  1.1547  0.8164 -0.9867
   77MOL    H5529087   3.852   2.868   3.716 -0.3247 -0.4964  1.1468
   77MOL    H5629088   3.729   2.797   3.603 -0.7612  0.7636  1.3487
   77MOL    H5729089   3.564   2.803   3.999 -1.9757  0.9718 -1.1835
   77MOL    H5829090   3.598   2.848   3.840  2.2498  0.6687  0.5975
   77MOL    C5929091   3.476   2.660   3.864 -0.2236 -0.0482 -0.0659
   77MOL    C6029092   3.346   2.701   3.934 -0.1162  1.0669 -0.5028
   77MOL    C6129093   3.220   2.615   3.905  0.7714 -0.4517  0.3641
   77MOL    C6229094   3.109   2.688   3.976  0.2353  0.3900 -0.2432
   77MOL    C6329095   3.139   2.833   3.928  0.5061  0.7228  0.0010
   77MOL    C6429096   3.289   2.839   3.913 -0.0828 -0.3376 -0.2658
   77MOL    C6529097   3.450   2.654   3.706 -0.0190 -0.5128  0.4923
   77MOL    H6629098   3.498   2.557   3.893  0.4799  0.3310  0.7586
   77MOL    H6729099   3.365   2.690   4.041  1.2794 -0.2879 -0.8675
   77MOL    H6829100   3.231   2.510   3.930 -0.1749 -0.8226 -0.7078
   77MOL    H6929101   3.201   2.614   3.797 -1.4244  2.0326  0.6853
   77MOL    H7029102   3.118   2.681   4.085  1.5635  2.2830 -0.2149
   77MOL    H7129103   3.009   2.656   3.945 -0.6035  2.7425 -0.1058
   77MOL    H7229104   3.096   2.913   3.989 -0.5876  0.9969 -1.1022
   77MOL    H7329105   3.098   2.849   3.828 -0.3111 -0.7263  0.1007
   77MOL    H7429106   3.321   2.873   3.815  2.1538  0.3921  0.6812
   77MOL    H7529107   3.340   2.903   3.985 -0.4259 -1.1980  0.7542
   77MOL    H7629108   3.536   2.695   3.653 -1.8884  2.8491  0.0001
   77MOL    H7729109   3.376   2.729   3.679 -0.1905 -0.6445  0.5966
   77MOL    C7829110   3.410   2.516   3.635  0.4974  0.3873  0.0043
   77MOL    C7929111   3.350   2.543   3.488  0.8466 -0.1154 -0.0432
   77MOL    C8029112   3.440   2.617   3.396  0.3967  0.7416  0.3361
   77MOL    C8129113   3.349   2.699   3.294 -0.4976  0.0026 -0.9157
   77MOL    C8229114   3.224   2.725   3.382 -0.0786 -0.6689 -0.0565
   77MOL    C8329115   3.220   2.625   3.493  0.3311  0.1157 -0.4227
   77MOL    C8429116   3.531   2.424   3.641 -0.0035 -0.7814 -0.5372
   77MOL    H8529117   3.329   2.471   3.693  2.5945 -0.8707  2.0222
   77MOL    H8629118   3.320   2.447   3.445 -0.9053  1.5538 -2.7378
   77MOL    H8729119   3.518   2.559   3.346 -2.2969 -3.1097  0.4179
   77MOL    H8829120   3.490   2.691   3.459  2.1261 -1.0205  1.0885
   77MOL    H8929121   3.334   2.630   3.211 -1.3298  0.1287 -0.8667
   77MOL    H9029122   3.403   2.787   3.258  1.3402 -0.9721 -0.6545
   77MOL    H9129123   3.242   2.820   3.431  0.1181  0.0338 -1.4678
   77MOL    H9229124   3.135   2.739   3.320 -2.4754 -2.1198  2.9487
   77MOL    H9329125   3.190   2.671   3.587 -0.8408 -0.7559 -0.3656
   77MOL    H9429126   3.132   2.567   3.465 -0.3280  0.8506  0.0807
   77MOL    H9529127   3.588   2.449   3.730  0.6804 -0.9683 -0.9136
   77MOL    H9629128   3.598   2.460   3.562  0.5061 -5.2486 -2.3127
   77MOL    C9729129   3.503   2.273   3.629  0.0895  0.2517 -0.9657
   77MOL    C9829130   3.522   2.203   3.766 -0.0442 -0.0065 -1.0423
   77MOL    C9929131   3.437   2.266   3.876  0.3755 -0.3764 -0.1611
   77MOL   C10029132   3.429   2.152   3.976 -0.1257  0.2663  0.8467
   77MOL   C10129133   3.432   2.019   3.900 -0.5669  0.2245 -1.1481
   77MOL   C10229134   3.493   2.046   3.764  0.3808 -0.1200 -1.0090
   77MOL   C10329135   3.601   2.214   3.522 -0.0398 -0.4340  0.2232
   77MOL   H10429136   3.399   2.270   3.595 -0.3423 -0.9262  0.4334
   77MOL   H10529137   3.625   2.209   3.800 -0.3957  1.9894 -0.2798
   77MOL   H10629138   3.487   2.347   3.929 -1.2717  0.4524  0.1537
   77MOL   H10729139   3.348   2.313   3.835 -0.1482 -0.9627  0.2754
   77MOL   H10829140   3.338   2.150   4.036 -0.2465 -0.5989  0.6387
   77MOL   H10929141   3.510   2.156   4.050  0.6840  3.0203 -0.1154
   77MOL   H11029142   3.332   1.978   3.892 -0.0340 -1.4486  0.5112
   77MOL   H11129143   3.492   1.949   3.959 -3.0375  0.6155  1.9323
   77MOL   H11229144   3.587   1.992   3.754 -0.3354 -1.7094  0.7046
   77MOL   H11329145   3.421   2.020   3.688 -1.8683 -0.8809  1.3132
   77MOL   H11429146   3.702   2.249   3.542 -0.3298 -0.7536  2.4257
   77MOL   H11529147   3.617   2.106   3.526  0.2644 -0.5087 -2.4186
   77MOL   C11629148   3.567   2.248   3.376 -0.0700  0.5758  0.0906
   77MOL   C11729149   3.692   2.263   3.282  0.2192  0.0287 -0.0626
   77MOL   C11829150   3.776   2.387   3.313  0.1968  0.0272  0.5122
   77MOL   C11929151   3.909   2.356   3.250 -0.5532 -0.4052  0.8679
   77MOL   C12029152   3.936   2.213   3.272  0.1528 -0.1191  0.9166
   77MOL   C12129153   3.794   2.150   3.276  0.2043  0.2053 -0.0777
   77MOL   C12229154   3.463   2.146   3.326 -0.4395  0.1410  0.0333
   77MOL   H12329155   3.516   2.345   3.374 -0.6037  0.3016  0.1358
   77MOL   H12429156   3.657   2.295   3.184  0.5083 -1.1250 -0.5539
   77MOL   H12529157   3.738   2.474   3.260  0.7283 -1.2082 -1.9502
   77MOL   H12629158   3.788   2.401   3.421  1.2493  0.3398  0.3613
   77MOL   H12729159   3.988   2.423   3.284 -0.7134  0.8299 -1.1296
   77MOL   H12829160   3.898   2.391   3.148  0.1917 -0.4498  0.7712
   77MOL   H12929161   3.984   2.198   3.369 -0.7972  0.4763  1.4904
   77MOL   H13029162   3.995   2.159   3.198  0.3481  1.3269  0.0061
   77MOL   H13129163   3.776   2.072   3.201 -0.5820  0.9064 -0.6274
   77MOL   H13229164   3.792   2.090   3.367  1.3312  0.5967  0.2126
   77MOL   H13329165   3.388   2.132   3.404  0.6116  1.0203  1.2253
   77MOL   H13429166   3.511   2.048   3.318 -1.0223 -0.0345 -1.4014
   77MOL   C13529167   3.400   2.164   3.187  0.2819 -0.2615 -0.6554
   77MOL   C13629168   3.313   2.296   3.181  0.4923 -0.1466  0.2327
   77MOL   C13729169   3.171   2.304   3.245  0.2110  0.0870 -0.0333
   77MOL   C13829170   3.096   2.422   3.171  0.0032  0.3681 -0.1435
   77MOL   C13929171   3.161   2.431   3.028  0.9445  0.5938  0.1181
   77MOL   C14029172   3.283   2.337   3.036  0.3870 -0.2968  0.4510
   77MOL   C14129173   3.312   2.047   3.148  1.0488 -0.7489  0.0550
   77MOL   H14229174   3.486   2.163   3.121  0.4522  0.5827 -0.4525
   77MOL   H14329175   3.358   2.383   3.229 -0.4829 -0.7570  2.3434
   77MOL   H14429176   3.116   2.213   3.222  0.6141 -0.6013  1.7026
   77MOL   H14529177   3.169   2.311   3.354 -1.3796  0.3794 -0.0696
   77MOL   H14629178   3.105   2.521   3.215 -1.4436 -0.8004  2.9562
   77MOL   H14729179   2.987   2.413   3.173  0.1081 -0.9480  0.5011
   77MOL   H14829180   3.186   2.536   3.013  1.6074  0.8690  2.8488
   77MOL   H14929181   3.090   2.397   2.952  0.1710  0.4388  0.8965
   77MOL   H15029182   3.268   2.251   2.969 -2.3058  0.4633  0.0273
   77MOL   H15129183   3.378   2.382   3.008 -0.9098  1.1672 -1.7481
   77MOL   H15229184   3.251   2.060   3.059  1.3478 -0.0007 -0.0486
   77MOL   H15329185   3.243   2.038   3.232 -1.3184  1.3304 -1.5949
   77MOL   C15429186   3.383   1.917   3.107  0.1577  0.6325  0.3074
   77MOL   C15529187   3.292   1.786   3.122 -0.2826 -0.3437 -0.1011
   77MOL   C15629188   3.143   1.799   3.085  0.2355  0.0264 -0.3352
   77MOL   C15729189   3.066   1.708   3.189 -0.3831  0.5178 -0.1869
   77MOL   C15829190   3.172   1.639   3.274 -0.4580 -0.7606  0.2655
   77MOL   C15929191   3.288   1.739   3.263 -0.6115  0.1321 -0.4573
   77MOL   C16029192   3.430   1.923   2.959 -0.0185 -0.2977  0.0482
   77MOL   H16129193   3.479   1.904   3.158  1.2991  1.1544 -1.6293
   77MOL   H16229194   3.333   1.709   3.057 -0.6459  0.8959 -1.8287
   77MOL   H16329195   3.120   1.905   3.098 -0.5992 -0.2555  0.5701
   77MOL   H16429196   3.119   1.758   2.986 -0.4452  1.6725 -0.8626
   77MOL   H16529197   3.000   1.768   3.251 -0.8215  0.2608 -0.4075
   77MOL   H16629198   3.008   1.631   3.139 -0.3482  0.0485  0.5013
   77MOL   H16729199   3.205   1.543   3.234  0.5968 -0.2106 -0.1871
   77MOL   H16829200   3.132   1.633   3.376 -0.5590 -0.5858  0.2375
   77MOL   H16929201   3.382   1.689   3.284  0.8076  2.8955 -0.0169
   77MOL   H17029202   3.276   1.820   3.336 -0.5666  1.8384 -2.3108
   77MOL   H17129203   3.465   2.025   2.945 -0.6026 -0.3066 -1.6877
   77MOL   H17229204   3.350   1.926   2.884  1.3182  0.1492 -1.3908
   77MOL   C17329205   3.553   1.829   2.913  0.8815  0.6127  0.2655
   77MOL   C17429206   3.688   1.895   2.937 -0.3215  0.9500  0.5647
   77MOL   C17529207   3.747   1.994   2.836  0.6840  0.0043 -0.5046
   77MOL   C17629208   3.891   1.941   2.808 -0.1211  0.4473 -0.2056
   77MOL   C17729209   3.939   1.835   2.904 -0.2019 -0.1715 -0.8250
   77MOL   C17829210   3.803   1.790   2.969  0.0852  0.6483  0.1488
   77MOL   C17929211   3.544   1.754   2.773  0.4236 -0.7861 -0.2686
   77MOL   H18029212   3.554   1.751   2.989 -1.5012  0.6705  0.4089
   77MOL   H18129213   3.678   1.947   3.032  5.5714 -0.6442  2.2614
   77MOL   H18229214   3.752   2.099   2.867  0.7157  0.1989 -1.1703
   77MOL   H18329215   3.688   1.996   2.745 -1.9296 -0.5065  1.1263
   77MOL   H18429216   3.893   1.902   2.706  0.5163 -1.1161  0.3944
   77MOL   H18529217   3.960   2.025   2.805 -0.9692  1.1570 -0.0106
   77MOL   H18629218   4.014   1.875   2.972  1.3195 -1.9440 -1.4159
   77MOL   H18729219   3.964   1.746   2.847  2.4374 -0.6216  0.9523
   77MOL   H18829220   3.775   1.692   2.932 -2.9400  1.6613 -0.3321
   77MOL   H18929221   3.822   1.783   3.076  0.4084  1.3788  0.1449
   77MOL   H19029222   3.542   1.837   2.702 -0.5074 -1.2047 -0.7551
   77MOL   H19129223   3.635   1.701   2.748 -1.0846 -2.5312 -2.2287
   77MOL   C19229224   3.424   1.655   2.747  0.1276 -0.0331  0.7325
   77MOL   C19329225   3.418   1.530   2.842 -0.5081  0.3377 -0.7746
   77MOL   C19429226   3.512   1.418   2.796  0.2244 -0.0360  0.7950
   77MOL   C19529227   3.458   1.298   2.881  0.5409  0.3587  0.4170
   77MOL   C19629228   3.320   1.335   2.942  0.3632  0.0086  0.3969
   77MOL   C19729229   3.280   1.463   2.866 -0.6224 -0.4229  0.7239
   77MOL   C19829230   3.410   1.626   2.596  0.2128  0.5594 -0.9841
   77MOL   H19929231   3.337   1.717   2.766  0.3613  0.2697  0.8167
   77MOL   H20029232   3.450   1.566   2.940 -1.3131  1.5574 -0.9465
   77MOL   H20129233   3.611   1.449   2.828  0.3267  0.3187  0.1317
   77MOL   H20229234   3.496   1.400   2.690  0.3732  1.3155  0.5439
   77MOL   H20329235   3.462   1.210   2.816  0.7856  0.4288  0.3367
   77MOL   H20429236   3.523   1.273   2.964  0.4950 -0.1976  0.2886
   77MOL   H20529237   3.332   1.359   3.048  1.5066  3.5380 -0.4494
   77MOL   H20629238   3.245   1.257   2.949  1.2833 -0.7008  3.0376
   77MOL   H20729239   3.207   1.525   2.918 -0.2017 -0.8033  1.7869
   77MOL   H20829240   3.231   1.423   2.777 -1.3605 -2.1238  1.8641
   77MOL   H20929241   3.507   1.587   2.565  0.1664  0.3009 -0.8040
   77MOL   H21029242   3.340   1.543   2.591 -0.6054  1.2997 -1.9195
   77MOL   C21129243   3.355   1.742   2.507  0.7492 -0.0433 -0.2505
   77MOL   C21229244   3.434   1.750   2.375  0.4342  0.1374 -0.3465
   77MOL   C21329245   3.584   1.790   2.390  0.4357  0.1722 -0.4569
   77MOL   C21429246   3.647   1.702   2.284  0.1353 -0.0929 -0.3890
   77MOL   C21529247   3.568   1.571   2.272  0.5068 -0.4331 -0.4545
   77MOL   C21629248   3.423   1.615   2.295  0.0048  0.1185 -0.3558
   77MOL   C21729249   3.199   1.729   2.475 -0.0447 -0.0686 -0.1102
   77MOL   H21829250   3.379   1.830   2.566  2.8582 -0.3883 -0.5513
   77MOL   H21929251   3.392   1.825   2.308  0.9183  0.2145 -0.5676
   77MOL   H22029252   3.604   1.895   2.372  1.8399 -0.5093 -2.9612
   77MOL   H22129253   3.622   1.769   2.490  1.3647  3.6338 -0.0337
   77MOL   H22229254   3.651   1.747   2.185 -2.3131  0.4575 -0.2749
   77MOL   H22329255   3.747   1.675   2.318 -0.5276  0.4774  2.1173
   77MOL   H22429256   3.609   1.487   2.328  0.8993  0.7753  1.1134
   77MOL   H22529257   3.582   1.545   2.168 -1.6610  0.6888 -1.0655
   77MOL   H22629258   3.377   1.636   2.198  1.7718  1.4007 -0.9437
   77MOL   H22729259   3.378   1.523   2.332  1.0540 -0.8943 -1.5253
   77MOL   H22829260   3.145   1.693   2.563  0.1381  1.5038  0.6634
   77MOL   H22929261   3.197   1.645   2.406  1.2525 -1.1709  1.1554
   77MOL   C23029262   3.124   1.855   2.420 -0.2978  0.8311 -0.2403
   77MOL   C23129263   3.061   1.945   2.536 -0.4569 -0.5519  0.1155
   77MOL   C23229264   3.159   1.993   2.649  0.3010  0.0641  0.3573
   77MOL   C23329265   3.087   2.110   2.708 -0.0912 -0.0530 -0.9798
   77MOL   C23429266   3.007   2.174   2.600 -0.0665 -0.2515 -0.3433
   77MOL   C23529267   3.001   2.080   2.483 -0.0949  0.5841 -0.3473
   77MOL   C23629268   3.017   1.819   2.318  0.1804  0.6636  0.4045
   77MOL   H23729269   3.200   1.918   2.373  1.0948 -0.3417  0.3944
   77MOL   H23829270   2.980   1.885   2.577 -1.8320  0.2247 -1.4032
   77MOL   H23929271   3.179   1.914   2.722  0.7427 -0.7684 -0.6535
   77MOL   H24029272   3.252   2.020   2.601 -0.7460  0.1773 -1.6379
   77MOL   H24129273   3.016   2.065   2.778  0.5239 -1.8053 -1.4486
   77MOL   H24229274   3.154   2.180   2.758 -3.1072  0.8590  2.0022
   77MOL   H24329275   3.069   2.261   2.577 -0.3132 -0.2365 -0.9571
   77MOL   H24429276   2.914   2.212   2.642  0.4559 -1.2790  1.7902
   77MOL   H24529277   3.057   2.114   2.396 -1.0450 -1.0760 -1.6357
   77MOL   H24629278   2.898   2.066   2.449  0.1422  0.1813 -0.9085
   77MOL   H24729279   2.918   1.830   2.363  0.3867  1.5908  0.6549
   77MOL   H24829280   3.029   1.712   2.301 -1.2832  0.3765  1.1376
   77MOL   C24929281   3.014   1.905   2.190  0.2508  0.1923  0.0286
   77MOL   C25029282   2.877   1.900   2.116  0.1394  0.3604  0.7812
   77MOL   C25129283   2.847   1.963   1.977  0.0296  0.2295 -0.1763
   77MOL   C25229284   2.697   1.976   1.973 -0.6301  0.6646 -0.0738
   77MOL   C25329285   2.644   1.943   2.108 -0.5412 -0.0910 -0.6881
   77MOL   C25429286   2.761   1.963   2.202 -0.0559 -0.5362 -0.5961
   77MOL   C25529287   3.132   1.868   2.100 -0.2585 -0.3403  0.5239
   77MOL   H25629288   3.037   2.006   2.223  2.6920 -0.0282 -0.9354
   77MOL   H25729289   2.851   1.795   2.103 -0.7697  0.8697 -1.8503
   77MOL   H25829290   2.884   1.908   1.891  0.0929  1.4570 -0.9398
   77MOL   H25929291   2.886   2.062   1.957 -0.2260  0.9100  2.3970
   77MOL   H26029292   2.652   1.926   1.888  0.9343  0.1865 -0.6441
   77MOL   H26129293   2.679   2.082   1.956 -0.8650  0.3992 -1.4970
   77MOL   H26229294   2.604   1.842   2.109  0.2995 -0.4449 -1.9361
   77MOL   H26329295   2.568   2.015   2.139 -1.1488 -0.2688 -1.7198
   77MOL   H26429296   2.732   1.910   2.293 -0.4496  2.1221  0.8594
   77MOL   H26529297   2.794   2.063   2.230 -0.1260 -0.6518 -0.1021
   77MOL   H26629298   3.201   1.820   2.169  1.9064  1.5655 -0.2594
   77MOL   H26729299   3.095   1.786   2.037 -0.3111  0.9185 -1.1340
   77MOL   C26829300   3.211   1.982   2.031 -0.5544 -0.3557  0.0662
   77MOL   C26929301   3.265   1.929   1.899  0.2360 -0.1011 -0.1267
   77MOL   C27029302   3.169   1.924   1.785  0.5497 -0.3774 -0.0311
   77MOL   C27129303   3.212   1.801   1.704  0.6421  0.5786  0.1829
   77MOL   C27229304   3.346   1.749   1.769  0.4198  0.1790  0.0209
   77MOL   C27329305   3.344   1.802   1.906  0.1713 -0.6355  0.0179
   77MOL   C27429306   3.331   2.033   2.116  0.1193  0.1248 -0.3201
   77MOL   H27529307   3.154   2.069   2.001  2.8296  2.0806  0.3745
   77MOL   H27629308   3.338   2.001   1.863  2.3063 -2.9025 -1.7517
   77MOL   H27729309   3.068   1.915   1.825  1.2131  1.5461  2.1957
   77MOL   H27829310   3.180   2.018   1.731  2.6201 -0.2935  0.4924
   77MOL   H27929311   3.125   1.736   1.715  0.2805  0.8559 -0.9886
   77MOL   H28029312   3.223   1.820   1.597 -0.5975  1.3507  0.1793
   77MOL   H28129313   3.426   1.788   1.707  1.0414  0.3907  0.9590
   77MOL   H28229314   3.365   1.642   1.769  1.0806  0.2951 -0.9610
   77MOL   H28329315   3.448   1.819   1.933  0.6455  0.3720 -2.3245
   77MOL   H28429316   3.301   1.728   1.974 -2.2674  0.6132 -0.1290
   77MOL   H28529317   3.384   1.938   2.130 -1.9470 -0.9612  0.2922
   77MOL   H28629318   3.280   2.049   2.211  0.2617  0.4128 -0.2897
   77MOL   C28729319   3.423   2.155   2.082  0.6051 -0.0067 -0.2396
   77MOL   C28829320   3.350   2.284   2.080  0.2951 -0.2789  0.4637
   77MOL   C28929321   3.288   2.309   1.941  0.4939 -0.4659 -0.4794
   77MOL   C29029322   3.173   2.413   1.952  0.1938  0.5258 -0.3757
   77MOL   C29129323   3.129   2.418   2.099 -0.0211 -0.3763  0.4014
   77MOL   C29229324   3.227   2.326   2.177  0.2042 -0.7746 -0.8141
   77MOL   C29329325   3.525   2.162   2.191  0.4041  0.5645 -0.0289
   77MOL   H29429326   3.476   2.146   1.987  1.5904  2.3749  0.0412
   77MOL   H29529327   3.415   2.370   2.099 -0.8708 -0.1298  4.1389
   77MOL   H29629328   3.362   2.352   1.873 -0.0393 -1.9874 -2.0758
   77MOL   H29729329   3.254   2.212   1.904  0.8399 -0.6325 -0.3688
   77MOL   H29829330   3.196   2.516   1.925 -0.0890  0.8463  0.5683
   77MOL   H29929331   3.089   2.386   1.888  0.2812 -4.2839  1.2921
   77MOL   H30029332   3.024   2.392   2.116 -0.6143  2.0635  0.7178
   77MOL   H30129333   3.132   2.524   2.125  1.1586 -0.7409  1.7844
   77MOL   H30229334   3.167   2.237   2.197 -0.8814 -0.1295 -1.1569
   77MOL   H30329335   3.249   2.365   2.277 -2.7498  1.7270 -1.0690
   77MOL   H30429336   3.564   2.060   2.192 -1.9728 -0.3724  1.7870
   77MOL   H30529337   3.482   2.171   2.290 -0.0579  3.6059 -0.4688
   77MOL   C30629338   3.644   2.255   2.168 -0.2998 -0.2699  0.0650
   77MOL   C30729339   3.691   2.315   2.303 -1.0700  0.7388 -0.7218
   77MOL   C30829340   3.594   2.410   2.373 -0.2301 -0.1033  0.4541
   77MOL   C30929341   3.632   2.416   2.522  0.2411  0.2370 -0.4690
   77MOL   C31029342   3.680   2.269   2.543  0.4315 -0.3395 -0.2752
   77MOL   C31129343   3.741   2.222   2.413 -0.2426  0.6709 -0.6288
   77MOL   C31229344   3.760   2.191   2.080  0.2439 -0.3824  0.1877
   77MOL   H31329345   3.615   2.339   2.106  3.0858  0.9171  0.0073
   77MOL   H31429346   3.776   2.382   2.288 -0.4758 -0.2230 -1.6606
   77MOL   H31529347   3.495   2.365   2.365 -0.0351 -0.5678  0.6408
   77MOL   H31629348   3.590   2.507   2.323 -0.3079  0.0925  0.8415
   77MOL   H31729349   3.705   2.494   2.545 -1.8646  1.5265  2.1018
   77MOL   H31829350   3.542   2.442   2.577  0.4031 -0.3379  0.0618
   77MOL   H31929351   3.597   2.207   2.575  0.9543 -1.3397 -0.7996
   77MOL   H32029352   3.753   2.253   2.623 -1.0758 -1.9107  0.8060
   77MOL   H32129353   3.849   2.212   2.412 -0.4667 -2.5208  0.4877
   77MOL   H32229354   3.709   2.118   2.397  0.1768  0.9119 -3.2690
   77MOL   H32329355   3.757   2.085   2.106  2.0108 -0.0626  1.7401
   77MOL   H32429356   3.851   2.232   2.123 -0.2639 -0.2975  1.2030
   77MOL   C32529357   3.761   2.215   1.924  0.2375 -0.0428  0.8114
   77MOL   C32629358   3.801   2.086   1.843  0.1839  0.4427 -0.6859
   77MOL   C32729359   3.684   1.978   1.846  0.4489 -0.7276  0.2427
   77MOL   C32829360   3.767   1.844   1.838  0.1633 -0.1029  0.5459
   77MOL   C32929361   3.901   1.870   1.907 -0.5058 -0.3872 -0.5726
   77MOL   C33029362   3.929   2.021   1.896 -0.4009  0.1195 -0.3709
   77MOL   C33129363   3.855   2.337   1.895 -0.2866 -0.0282  0.7452
   77MOL   H33229364   3.665   2.241   1.881  1.3996  0.7795 -1.3720
   77MOL   H33329365   3.804   2.115   1.738  3.3517  4.3795  0.3813
   77MOL   H33429366   3.610   1.984   1.766 -0.9468  1.2208  1.6365
   77MOL   H33529367   3.632   1.981   1.941  1.7220 -0.9792  0.9555
   77MOL   H33629368   3.779   1.815   1.734 -0.7723  0.5338  0.2532
   77MOL   H33729369   3.719   1.755   1.880 -0.7455 -0.7999 -1.8949
   77MOL   H33829370   3.977   1.806   1.862  0.8232  1.8540 -1.6700
   77MOL   H33929371   3.902   1.834   2.009 -0.0852 -0.2055 -0.5104
   77MOL   H34029372   4.018   2.038   1.835  1.1026  0.0965  1.7474
   77MOL   H34129373   3.966   2.060   1.991  1.6102 -1.5553 -0.4304
   77MOL   H34229374   3.954   2.300   1.922 -0.0176  0.6574  0.7136
   77MOL   H34329375   3.837   2.419   1.964 -1.3989  1.3851 -1.1711
   77MOL   C34429376   3.861   2.387   1.746  0.5569 -0.0104  0.0041
   77MOL   C34529377   3.983   2.481   1.728 -0.0547  0.2485 -0.0227
   77MOL   C34629378   4.022   2.501   1.581  0.9033  0.0287  0.5609
   77MOL   C34729379   4.175   2.516   1.565  0.5084  0.1228 -0.5009
   77MOL   C34829380   4.228   2.510   1.718  0.7621  0.5642  0.0472
   77MOL   C34929381   4.118   2.435   1.795  0.0598 -0.3874 -0.1363
   77MOL   C35029382   3.730   2.472   1.723  0.5914 -0.1382  0.0044
   77MOL   H35129383   3.873   2.309   1.672  2.8080  1.9668 -1.7811
   77MOL   H35229384   3.972   2.583   1.764 -0.6945  1.3160 -3.0881
   77MOL   H35329385   3.970   2.585   1.536  0.4837 -0.0198  0.9446
   77MOL   H35429386   3.997   2.417   1.515 -0.2374  1.1326 -0.4405
   77MOL   H35529387   4.220   2.433   1.509  2.6425  0.1279  1.1451
   77MOL   H35629388   4.198   2.613   1.520  1.1952  0.4729  0.5846
   77MOL   H35729389   4.229   2.604   1.773  0.1851  0.3691  0.4068
   77MOL   H35829390   4.321   2.455   1.724  0.4679  0.0595  0.0200
   77MOL   H35929391   4.132   2.328   1.777 -3.2453 -0.7613 -0.7387
   77MOL   H36029392   4.133   2.445   1.903  1.0264 -0.5400 -0.2530
   77MOL   H36129393   3.734   2.570   1.770 -1.1761  1.2843 -2.6928
   77MOL   H36229394   3.650   2.426   1.782  0.8730  0.3736  0.7973
   77MOL   C36329395   3.674   2.484   1.572  0.0395  0.1611  0.0575
   77MOL   C36429396   3.637   2.343   1.520 -0.0990 -0.0481  0.1116
   77MOL   C36529397   3.614   2.338   1.366 -0.5183  0.0020  1.4325
   77MOL   C36629398   3.527   2.218   1.348  0.2947 -0.9165  0.0340
   77MOL   C36729399   3.481   2.157   1.480  0.4393 -0.4159 -0.6021
   77MOL   C36829400   3.515   2.272   1.574  0.0997  0.3411  0.4419
   77MOL   C36929401   3.563   2.583   1.580 -0.5207 -0.2053  0.5611
   77MOL   H37029402   3.751   2.522   1.504  1.7076  0.4437  2.0589
   77MOL   H37129403   3.730   2.286   1.532  0.1354  0.1290 -0.8377
   77MOL   H37229404   3.562   2.432   1.345  3.7039  2.4289  1.3385
   77MOL   H37329405   3.705   2.330   1.307 -2.0363  1.5725 -1.2115
   77MOL   H37429406   3.444   2.257   1.289 -0.9242 -1.0586  1.6204
   77MOL   H37529407   3.579   2.138   1.295  4.0473  0.6392  1.1751
   77MOL   H37629408   3.383   2.111   1.491  0.1391  0.2877 -0.3246
   77MOL   H37729409   3.555   2.080   1.501 -1.0635 -0.6716  4.3501
   77MOL   H37829410   3.527   2.231   1.674 -0.9905  0.6287  0.6929
   77MOL   H37929411   3.433   2.342   1.559  0.0612  0.1297 -0.3896
   77MOL   H38029412   3.483   2.555   1.648 -0.6361 -0.8096  0.1770
   77MOL   H38129413   3.520   2.605   1.482  1.8031  1.3779 -0.1300
   77MOL   H38229414   3.583   2.672   1.639  1.3093  0.7042 -1.3499
   78MOL     C129415   2.793   2.039   4.475  0.1296  0.2140 -0.0541
   78MOL     C229416   2.884   2.005   4.596  0.2216 -0.1304  0.3695
   78MOL     C329417   2.810   2.037   4.731  0.0884  0.1845 -0.1468
   78MOL     C429418   2.843   2.183   4.752  0.1547 -0.6527  0.3395
   78MOL     C529419   2.974   2.212   4.685 -0.5216  1.0050  0.3700
   78MOL     C629420   3.006   2.096   4.593  0.4889 -0.0070 -0.0305
   78MOL     C729421   2.842   2.001   4.333  0.5248 -1.1636 -0.0049
   78MOL     H829422   2.693   1.996   4.483 -0.0298  0.4922 -0.5592
   78MOL     H929423   2.915   1.901   4.596 -2.3333 -0.9654 -2.7174
   78MOL    H1029424   2.702   2.026   4.720  0.0758  1.7680 -1.8029
   78MOL    H1129425   2.850   1.974   4.811 -0.6994 -0.8992 -0.5930
   78MOL    H1229426   2.763   2.246   4.713 -1.6348 -1.5762  2.3882
   78MOL    H1329427   2.848   2.214   4.857 -2.3782 -1.8736  0.8659
   78MOL    H1429428   2.971   2.311   4.640 -2.6598  1.5792  1.7075
   78MOL    H1529429   3.050   2.215   4.763  0.9943 -1.0656 -0.9653
   78MOL    H1629430   3.099   2.044   4.616  0.1741 -0.9010 -0.7656
   78MOL    H1729431   3.032   2.132   4.494  0.8386 -0.5266 -0.1297
   78MOL    H1829432   2.947   2.025   4.317 -0.2989  1.7692 -1.3585
   78MOL    H1929433   2.819   1.896   4.311 -1.7252 -1.1122  1.8914
   78MOL    H2029434   2.768   2.144   4.483  0.2095  0.2287  0.0083
   78MOL    C2129435   2.753   2.069   4.230  0.1455  0.4217  0.6458
   78MOL    C2229436   2.795   2.218   4.205  0.2030  0.6094  0.1309
   78MOL    C2329437   2.687   2.296   4.129  0.4907 -0.5893 -0.0312
   78MOL    C2429438   2.752   2.413   4.057 -0.0116  0.4928 -0.4191
   78MOL    C2529439   2.900   2.389   4.060 -0.3049 -0.2980  0.2820
   78MOL    C2629440   2.921   2.246   4.122  0.5740  0.0556  0.2527
   78MOL    C2729441   2.767   1.978   4.098 -0.8234 -0.1687 -0.8042
   78MOL    H2829442   2.652   2.071   4.272 -0.7955 -0.7618 -1.4626
   78MOL    H2929443   2.803   2.270   4.301 -0.5476  0.4275  0.2937
   78MOL    H3029444   2.621   2.339   4.204  1.4378  1.5194 -0.3622
   78MOL    H3129445   2.619   2.230   4.075  0.9978 -0.1563 -1.2172
   78MOL    H3229446   2.719   2.418   3.953  0.6439  0.8456 -0.6117
   78MOL    H3329447   2.726   2.508   4.105 -0.6103  0.4461 -0.6500
   78MOL    H3429448   2.949   2.473   4.110  0.0822  0.3730 -1.2054
   78MOL    H3529449   2.927   2.392   3.955 -1.5059 -0.7230 -0.0473
   78MOL    H3629450   3.004   2.225   4.190  0.8913 -0.3202 -0.2545
   78MOL    H3729451   2.933   2.177   4.039 -1.2528  1.4502 -1.2055
   78MOL    H3829452   2.751   2.044   4.012 -0.6162  0.6809 -0.1936
   78MOL    H3929453   2.873   1.960   4.085 -0.2511  1.2663  1.6027
   78MOL    C4029454   2.694   1.840   4.087 -0.5360  0.1801 -0.0391
   78MOL    C4129455   2.564   1.830   4.171 -0.8650 -0.1366  1.1065
   78MOL    C4229456   2.512   1.687   4.179  0.1185  0.2480  0.3631
   78MOL    C4329457   2.360   1.701   4.179  0.9026  1.0197  0.9246
   78MOL    C4429458   2.336   1.852   4.194  0.3142  0.0870 -0.3453
   78MOL    C4529459   2.447   1.913   4.119 -0.2061 -0.0525  0.2088
   78MOL    C4629460   2.665   1.808   3.937  0.2226 -0.6063 -0.1715
   78MOL    H4729461   2.764   1.767   4.128 -1.3413 -1.3308 -1.3449
   78MOL    H4829462   2.595   1.857   4.272 -0.0512 -0.9146  1.0672
   78MOL    H4929463   2.545   1.629   4.265  1.5945  0.6745  0.1128
   78MOL    H5029464   2.531   1.625   4.091  1.9623  0.6724  0.4369
   78MOL    H5129465   2.316   1.651   4.265  1.4318 -2.4926 -0.7451
   78MOL    H5229466   2.308   1.649   4.098 -0.9205  1.9036  1.5013
   78MOL    H5329467   2.233   1.876   4.169  0.5402  1.4881  0.0661
   78MOL    H5429468   2.349   1.895   4.292  0.4718  0.5690 -0.5779
   78MOL    H5529469   2.438   1.903   4.011  0.2999  3.5863 -0.2519
   78MOL    H5629470   2.446   2.022   4.128 -0.4151 -0.1933  2.1762
   78MOL    H5729471   2.600   1.721   3.925 -2.2649  1.2508 -0.3972
   78MOL    H5829472   2.615   1.891   3.888 -1.7514  0.2879  3.1930
   78MOL    C5929473   2.798   1.766   3.861  0.4975 -0.5200  0.6236
   78MOL    C6029474   2.832   1.617   3.878  0.9521 -0.0589  0.1931
   78MOL    C6129475   2.982   1.583   3.878 -0.0093  0.5887  0.4551
   78MOL    C6229476   2.981   1.424   3.863 -0.3821  0.3572 -0.0488
   78MOL    C6329477   2.847   1.383   3.808 -0.6483 -0.2378 -0.2895
   78MOL    C6429478   2.770   1.513   3.783  0.2461  0.1681 -0.7244
   78MOL    C6529479   2.805   1.816   3.714  0.1138  0.1626 -0.0163
   78MOL    H6629480   2.879   1.818   3.911 -0.0211 -2.5870  3.7524
   78MOL    H6729481   2.794   1.591   3.977  0.0318 -3.9609 -1.0638
   78MOL    H6829482   3.027   1.618   3.971 -0.1220  1.0912  0.3225
   78MOL    H6929483   3.029   1.625   3.790  0.4627  0.0535  0.4501
   78MOL    H7029484   2.995   1.386   3.965  1.7630 -0.7009 -0.6998
   78MOL    H7129485   3.067   1.388   3.806  0.2347  3.2153 -0.9877
   78MOL    H7229486   2.787   1.316   3.869  2.5475  0.4228  3.7769
   78MOL    H7329487   2.870   1.329   3.716  2.2998 -0.2733  0.4240
   78MOL    H7429488   2.785   1.557   3.684 -2.7345  0.5842 -1.0399
   78MOL    H7529489   2.665   1.493   3.808  0.6104  0.9699  1.5327
   78MOL    H7629490   2.718   1.773   3.665  0.6781 -1.0300  0.0159
   78MOL    H7729491   2.879   1.757   3.661 -0.3277 -0.3190 -0.0960
   78MOL    C7829492   2.818   1.961   3.683 -0.0784 -0.1182 -0.7324
   78MOL    C7929493   2.955   2.022   3.736  0.2204 -0.3133 -0.4608
   78MOL    C8029494   2.957   2.179   3.734 -0.0920  0.4163  0.3665
   78MOL    C8129495   3.064   2.210   3.628 -0.5049 -0.3182 -0.3852
   78MOL    C8229496   3.164   2.093   3.630  0.4065 -0.5325 -0.2824
   78MOL    C8329497   3.073   1.968   3.655  0.2625  0.1223  0.3755
   78MOL    C8429498   2.769   2.010   3.541  0.1763  0.8773  0.1181
   78MOL    H8529499   2.747   2.012   3.748  2.7964  0.9225  1.7113
   78MOL    H8629500   2.965   1.996   3.841 -0.4095  1.3734  0.0307
   78MOL    H8729501   2.982   2.207   3.836 -1.4064 -2.5544  1.5576
   78MOL    H8829502   2.863   2.229   3.713  1.7512  3.1636 -1.7621
   78MOL    H8929503   3.116   2.305   3.642 -0.0472 -0.7316  0.8004
   78MOL    H9029504   3.009   2.215   3.534  0.6868  3.8876 -0.9391
   78MOL    H9129505   3.211   2.081   3.532  0.4377  0.2980 -0.3785
   78MOL    H9229506   3.240   2.104   3.708  1.6243 -2.8531 -1.1059
   78MOL    H9329507   3.049   1.922   3.559  1.3993 -0.0853  0.1847
   78MOL    H9429508   3.119   1.885   3.708  0.5095 -0.5670 -0.8957
   78MOL    H9529509   2.852   1.978   3.479  0.3399  1.5052  0.0130
   78MOL    H9629510   2.778   2.118   3.549 -0.3235  0.8458  1.2672
   78MOL    C9729511   2.626   1.967   3.490  0.6798 -0.6531  0.6544
   78MOL    C9829512   2.609   2.015   3.340 -0.5169 -0.4261 -1.1979
   78MOL    C9929513   2.578   2.162   3.316  0.1842 -0.0973  0.0938
   78MOL   C10029514   2.678   2.213   3.217 -0.0339  0.9633 -0.0506
   78MOL   C10129515   2.721   2.088   3.142  0.0213 -0.8844  0.0286
   78MOL   C10229516   2.720   1.976   3.241  0.2719 -0.0578 -0.4510
   78MOL   C10329517   2.512   2.000   3.590 -0.3081 -0.0528  0.4946
   78MOL   H10429518   2.646   1.860   3.483  1.0912 -0.4234 -2.3091
   78MOL   H10529519   2.519   1.961   3.313 -1.3080 -0.7168  1.8338
   78MOL   H10629520   2.478   2.182   3.275 -0.5808 -0.8674  1.5555
   78MOL   H10729521   2.579   2.217   3.410 -1.0406 -1.6778  1.0683
   78MOL   H10829522   2.762   2.250   3.276 -0.5129 -0.0243  1.2613
   78MOL   H10929523   2.644   2.297   3.155  1.9817  1.8039 -0.0479
   78MOL   H11029524   2.813   2.100   3.084 -1.0624  4.5370 -0.8351
   78MOL   H11129525   2.645   2.063   3.067  0.6095 -1.4726 -0.3853
   78MOL   H11229526   2.695   1.878   3.200 -0.2976 -0.1792  0.1803
   78MOL   H11329527   2.819   1.961   3.282 -0.1424  1.7402  1.2813
   78MOL   H11429528   2.539   1.978   3.693 -0.2790 -1.9109  0.1149
   78MOL   H11529529   2.513   2.109   3.586  1.4180 -0.0603  0.0218
   78MOL   C11629530   2.367   1.941   3.563  0.9223 -1.2121 -0.2942
   78MOL   C11729531   2.369   1.792   3.546  0.2167 -0.1054  0.6117
   78MOL   C11829532   2.417   1.711   3.673 -0.1025 -0.2289  0.2515
   78MOL   C11929533   2.323   1.587   3.688  0.3536  0.6389  0.5772
   78MOL   C12029534   2.195   1.630   3.615 -1.0578 -0.4287 -0.0128
   78MOL   C12129535   2.240   1.715   3.497  0.2064 -0.1913 -0.0387
   78MOL   C12229536   2.257   1.990   3.657  0.0173 -0.2423  0.3234
   78MOL   H12329537   2.333   1.991   3.472  2.6792  0.6861  0.0749
   78MOL   H12429538   2.448   1.775   3.473 -0.4279  0.1491 -0.1521
   78MOL   H12529539   2.518   1.673   3.653 -0.8486 -2.2065  0.1191
   78MOL   H12629540   2.423   1.774   3.761 -0.5462 -0.6418  0.5745
   78MOL   H12729541   2.302   1.553   3.790  1.8226 -3.4146 -0.3903
   78MOL   H12829542   2.366   1.496   3.646  0.4202  1.3486 -0.9093
   78MOL   H12929543   2.132   1.702   3.668 -0.3372 -1.3004  2.0752
   78MOL   H13029544   2.142   1.535   3.608 -0.9290 -0.5562  0.7224
   78MOL   H13129545   2.268   1.649   3.416 -1.0679 -1.2552  0.3581
   78MOL   H13229546   2.165   1.786   3.461  0.5826  0.5566  0.6290
   78MOL   H13329547   2.274   1.951   3.757  0.8572 -0.6549  0.0274
   78MOL   H13429548   2.170   1.938   3.619 -0.3914  0.9236 -0.3552
   78MOL   C13529549   2.240   2.143   3.657  0.1053  0.2257 -0.4730
   78MOL   C13629550   2.150   2.184   3.784 -0.1522 -1.2202 -0.0800
   78MOL   C13729551   2.221   2.165   3.920 -0.3124  0.6426  0.4094
   78MOL   C13829552   2.105   2.135   4.017 -0.9602 -0.0015 -0.3053
   78MOL   C13929553   2.016   2.047   3.935 -0.1342 -0.7522 -0.1247
   78MOL   C14029554   2.022   2.095   3.799  0.4122 -0.1523  0.4137
   78MOL   C14129555   2.173   2.186   3.528  0.1297 -0.5321  0.6021
   78MOL   H14229556   2.337   2.194   3.658  1.1980 -1.7990 -0.1895
   78MOL   H14329557   2.125   2.290   3.788 -0.8448 -1.3486 -0.8424
   78MOL   H14429558   2.285   2.078   3.925 -0.3572  0.6673  1.5637
   78MOL   H14529559   2.289   2.244   3.954 -2.6326  2.2432  1.4953
   78MOL   H14629560   2.066   2.233   4.045  0.1667  0.4802 -0.3846
   78MOL   H14729561   2.137   2.084   4.107 -0.0752  1.1654  0.0622
   78MOL   H14829562   1.913   2.038   3.971  0.2281 -0.6944  0.9584
   78MOL   H14929563   2.055   1.945   3.938 -0.2769 -0.8318 -0.8947
   78MOL   H15029564   2.021   2.011   3.729  0.4952  1.0108 -1.0069
   78MOL   H15129565   1.932   2.153   3.779  1.0720  0.1659 -1.6848
   78MOL   H15229566   2.097   2.120   3.489 -0.5009  0.8797 -0.6080
   78MOL   H15329567   2.243   2.182   3.445  0.9812 -0.3291  1.2987
   78MOL   C15429568   2.121   2.336   3.514 -0.5456 -0.0251 -0.9248
   78MOL   C15529569   2.230   2.441   3.555  0.0998 -0.1049  0.0968
   78MOL   C15629570   2.158   2.581   3.591 -0.0572  0.2713 -0.2329
   78MOL   C15729571   2.232   2.691   3.509  0.0483  0.3918  0.1359
   78MOL   C15829572   2.316   2.611   3.404 -0.7725  0.5184  0.6328
   78MOL   C15929573   2.343   2.475   3.463  0.1947  0.6135  0.5115
   78MOL   C16029574   2.072   2.367   3.367 -0.4930 -0.5540  0.3940
   78MOL   H16129575   2.038   2.342   3.584  1.8093 -2.9037  2.3461
   78MOL   H16229576   2.282   2.398   3.640  0.7774 -1.6916 -1.0843
   78MOL   H16329577   2.056   2.589   3.553 -0.2583  0.7039  0.3790
   78MOL   H16429578   2.151   2.608   3.697  2.9528  1.3466 -0.2545
   78MOL   H16529579   2.164   2.769   3.476  1.8602  0.5756 -3.3376
   78MOL   H16629580   2.297   2.739   3.582 -0.8619 -0.3857  1.4844
   78MOL   H16729581   2.411   2.653   3.373  0.8117 -2.9111  0.6043
   78MOL   H16829582   2.255   2.595   3.315  1.1783 -1.9600 -0.3047
   78MOL   H16929583   2.437   2.480   3.517  1.0076 -0.2516 -0.7943
   78MOL   H17029584   2.373   2.399   3.391  0.0605 -0.5064  1.6132
   78MOL   H17129585   2.139   2.335   3.287  1.2329  0.7183  1.2897
   78MOL   H17229586   2.057   2.475   3.372  3.9854  0.1373  0.8287
   78MOL   C17329587   1.934   2.303   3.324 -0.5229 -0.3400  0.5318
   78MOL   C17429588   1.929   2.306   3.168 -0.4747 -0.1957  0.0866
   78MOL   C17529589   1.959   2.443   3.108 -0.8607  0.0183 -0.4265
   78MOL   C17629590   1.926   2.424   2.959  0.2294  0.8492  0.1282
   78MOL   C17729591   1.809   2.319   2.960  0.1456  0.1084 -0.4536
   78MOL   C17829592   1.797   2.263   3.102 -0.5639 -0.9020  0.8517
   78MOL   C17929593   1.813   2.371   3.399 -0.2341 -0.2069 -0.3834
   78MOL   H18029594   1.933   2.196   3.341 -1.7461 -0.9250 -2.8824
   78MOL   H18129595   1.999   2.232   3.128 -0.6114 -0.0967 -0.3325
   78MOL   H18229596   2.064   2.468   3.121 -1.1105  1.0856 -0.4232
   78MOL   H18329597   1.895   2.513   3.161  0.3325  1.1799 -0.5085
   78MOL   H18429598   1.907   2.518   2.908 -2.4296  0.1206 -0.2903
   78MOL   H18529599   2.009   2.372   2.911  0.4634  0.2640  1.1391
   78MOL   H18629600   1.828   2.248   2.880 -2.0319 -0.2425 -0.7001
   78MOL   H18729601   1.714   2.366   2.933 -0.9588 -0.6713  1.9988
   78MOL   H18829602   1.704   2.309   3.135  0.4745 -0.6120  3.5692
   78MOL   H18929603   1.782   2.155   3.096  1.9287 -1.3597  1.8756
   78MOL   H19029604   1.838   2.405   3.499 -2.2623  0.5084 -0.0952
   78MOL   H19129605   1.785   2.461   3.343  0.8399  1.3047  1.4668
   78MOL   C19229606   1.688   2.291   3.417  0.4153 -0.1001  0.2223
   78MOL   C19329607   1.571   2.393   3.452  0.0854 -0.1998  0.2132
   78MOL   C19429608   1.435   2.325   3.471  0.4427  0.3601  1.0743
   78MOL   C19529609   1.336   2.440   3.467 -0.2747 -0.1879  0.7270
   78MOL   C19629610   1.388   2.517   3.341  0.1854  0.3619  0.3022
   78MOL   C19729611   1.543   2.516   3.358 -0.4743 -0.0093  0.2755
   78MOL   C19829612   1.711   2.191   3.533  0.3119  0.2385 -0.0435
   78MOL   H19929613   1.651   2.237   3.330 -0.1926 -1.6781  1.4420
   78MOL   H20029614   1.589   2.438   3.550 -1.6437 -1.5507  1.1770
   78MOL   H20129615   1.436   2.282   3.571  3.2058 -1.3349  0.3775
   78MOL   H20229616   1.404   2.255   3.393  2.0285  1.0229 -0.1799
   78MOL   H20329617   1.239   2.390   3.462 -0.6958  0.6178  0.7520
   78MOL   H20429618   1.332   2.508   3.553 -2.1409 -0.2978  0.7474
   78MOL   H20529619   1.347   2.617   3.327 -0.2904 -0.0581 -1.4272
   78MOL   H20629620   1.350   2.460   3.255 -1.0412 -0.0902  1.1269
   78MOL   H20729621   1.577   2.606   3.410  0.0686 -0.6587  1.0718
   78MOL   H20829622   1.584   2.506   3.258 -1.1910  3.0559 -0.3516
   78MOL   H20929623   1.818   2.168   3.532  0.0281 -1.0880 -1.5686
   78MOL   H21029624   1.682   2.240   3.627 -1.8308 -1.6563  0.3182
   78MOL   C21129625   1.649   2.056   3.506  0.4359  0.1948 -1.0339
   78MOL   C21229626   1.724   1.972   3.400 -0.0672 -1.1981  0.0076
   78MOL   C21329627   1.862   1.913   3.444 -0.1744 -0.1982  0.3400
   78MOL   C21429628   1.890   1.790   3.357 -0.3657  0.0276 -0.5173
   78MOL   C21529629   1.748   1.751   3.302 -0.1683 -0.2399  0.1250
   78MOL   C21629630   1.648   1.839   3.368  0.3467 -0.7837 -0.3148
   78MOL   C21729631   1.622   1.989   3.649  1.1059  0.5674 -0.0258
   78MOL   H21829632   1.547   2.068   3.470  0.7771 -0.4532 -2.2295
   78MOL   H21929633   1.739   2.034   3.312 -0.9734  0.3601  0.9198
   78MOL   H22029634   1.935   1.993   3.455 -0.0685 -0.4957  1.9114
   78MOL   H22129635   1.843   1.881   3.547  1.9921  1.0932  1.1840
   78MOL   H22229636   1.951   1.820   3.272 -0.2295  0.9330 -0.1081
   78MOL   H22329637   1.943   1.718   3.419  1.3799  3.4383  2.1095
   78MOL   H22429638   1.733   1.643   3.301 -0.9363 -0.1674  2.1512
   78MOL   H22529639   1.756   1.771   3.195 -1.7054  0.5984  0.1567
   78MOL   H22629640   1.562   1.849   3.302  1.1127 -1.6539 -1.4507
   78MOL   H22729641   1.610   1.788   3.457  0.1598  0.6342  0.4304
   78MOL   H22829642   1.705   2.008   3.718  0.4430 -1.5898  1.4038
   78MOL   H22929643   1.637   1.883   3.631 -1.0064 -0.3109  3.0023
   78MOL   C23029644   1.481   2.023   3.717  0.0867  1.1664 -0.0630
   78MOL   C23129645   1.491   2.141   3.825 -0.2885  0.3981  0.1915
   78MOL   C23229646   1.358   2.204   3.871 -0.1368  0.0093  0.0534
   78MOL   C23329647   1.379   2.276   3.998  0.4524  0.2992  0.5300
   78MOL   C23429648   1.520   2.229   4.045  0.4403 -0.1338 -0.2548
   78MOL   C23529649   1.560   2.108   3.960  0.0896  0.0300  0.1055
   78MOL   C23629650   1.421   1.886   3.763 -0.3713 -0.8340 -0.1582
   78MOL   H23729651   1.409   2.071   3.651 -0.2511  2.2592  1.0650
   78MOL   H23829652   1.548   2.226   3.787  0.8763 -0.1144  0.7951
   78MOL   H23929653   1.320   2.268   3.791  0.1672 -0.6151 -0.5915
   78MOL   H24029654   1.289   2.126   3.903 -0.1668  0.6138  1.5205
   78MOL   H24129655   1.381   2.385   3.991  0.3912  0.2705  0.0327
   78MOL   H24229656   1.296   2.261   4.067 -0.8257  2.7642 -0.4019
   78MOL   H24329657   1.535   2.213   4.152 -2.4843 -0.8935  0.0996
   78MOL   H24429658   1.577   2.316   4.014 -1.1262 -0.0095 -2.9745
   78MOL   H24529659   1.519   2.018   4.006 -1.8548  0.0208 -1.5772
   78MOL   H24629660   1.668   2.100   3.949 -0.0312 -1.2405 -0.2277
   78MOL   H24729661   1.441   1.878   3.870 -0.3375  0.6057 -0.0430
   78MOL   H24829662   1.465   1.797   3.719  0.6835  0.6240 -2.1606
   78MOL   C24929663   1.272   1.873   3.746  0.0986  0.1981  0.2006
   78MOL   C25029664   1.213   1.788   3.861 -0.0506 -0.2401  0.2603
   78MOL   C25129665   1.185   1.849   3.997 -0.3430  0.4983 -0.0633
   78MOL   C25229666   1.161   1.727   4.085 -0.2951 -0.0769 -0.4922
   78MOL   C25329667   1.256   1.628   4.041  0.0279  0.2449  0.0752
   78MOL   C25429668   1.276   1.654   3.888  0.0653 -0.0292  0.3051
   78MOL   C25529669   1.243   1.823   3.599 -0.6190 -0.3080  0.1967
   78MOL   H25629670   1.232   1.973   3.763  1.2544  0.9287 -1.2827
   78MOL   H25729671   1.110   1.760   3.836  0.2275  0.1549 -1.3705
   78MOL   H25829672   1.100   1.915   4.010 -0.6195  0.1183  0.0613
   78MOL   H25929673   1.269   1.905   4.039 -1.0961  1.2536  0.4500
   78MOL   H26029674   1.062   1.682   4.080  0.0641 -0.8142 -1.1779
   78MOL   H26129675   1.175   1.744   4.192 -0.3185 -1.4895 -0.2548
   78MOL   H26229676   1.224   1.526   4.063 -0.9300  0.3150 -0.9001
   78MOL   H26329677   1.347   1.651   4.096 -0.6934  1.0879  0.9233
   78MOL   H26429678   1.220   1.591   3.819 -0.2156 -0.1532  0.6441
   78MOL   H26529679   1.382   1.647   3.862 -0.2718  0.0359 -1.1429
   78MOL   H26629680   1.322   1.845   3.527  0.6108 -3.3721  0.5302
   78MOL   H26729681   1.262   1.716   3.596  2.3967  0.2007 -0.5751
   78MOL   C26829682   1.100   1.871   3.539 -0.2704 -0.1492 -0.3817
   78MOL   C26929683   1.097   1.807   3.394  0.2190 -0.7754  0.2092
   78MOL   C27029684   0.984   1.854   3.305 -0.2049  0.6863  0.0334
   78MOL   C27129685   0.935   1.739   3.225 -0.7597 -0.2759 -0.4315
   78MOL   C27229686   1.031   1.625   3.248 -0.1143  0.1171  0.2620
   78MOL   C27329687   1.078   1.655   3.389 -0.1094  0.6823  0.6207
   78MOL   C27429688   1.084   2.024   3.545 -0.4571 -0.6485  0.0645
   78MOL   H27529689   1.021   1.823   3.596  0.9673 -0.6825  0.8992
   78MOL   H27629690   1.181   1.831   3.329 -0.2154 -1.0755 -0.4787
   78MOL   H27729691   0.906   1.898   3.367 -0.6665 -1.0036  0.6597
   78MOL   H27829692   1.018   1.936   3.240  1.6525  1.0278  1.3881
   78MOL   H27929693   0.841   1.702   3.266 -0.9829 -0.2627 -0.9239
   78MOL   H28029694   0.918   1.758   3.119 -2.4329  1.2684  0.0831
   78MOL   H28129695   1.125   1.629   3.192  1.1829  0.2159  2.3616
   78MOL   H28229696   0.989   1.525   3.242 -0.3398  0.0351  2.7403
   78MOL   H28329697   1.164   1.593   3.417 -0.0498  0.7634  0.6174
   78MOL   H28429698   1.004   1.622   3.461  0.9033  2.1936  2.3757
   78MOL   H28529699   1.044   2.053   3.448 -2.1161 -2.7694  0.0762
   78MOL   H28629700   1.182   2.070   3.556 -0.2139 -1.2060  0.2440
   78MOL   C28729701   0.994   2.083   3.658 -0.1980  0.3260  0.5929
   78MOL   C28829702   1.014   2.236   3.635  0.0026 -0.2987 -0.0408
   78MOL   C28929703   0.955   2.298   3.508 -0.2301  0.6518 -0.1845
   78MOL   C29029704   0.943   2.451   3.528 -0.6972  0.2144 -0.6688
   78MOL   C29129705   0.971   2.465   3.683 -0.0967 -0.3016 -0.2001
   78MOL   C29229706   0.950   2.323   3.741  0.0030  0.4967 -0.6629
   78MOL   C29329707   0.847   2.032   3.647  0.0919  0.4201 -0.0375
   78MOL   H29429708   1.045   2.058   3.751 -0.1573 -0.1645  0.4349
   78MOL   H29529709   1.120   2.261   3.636 -0.2487  1.0124 -2.4858
   78MOL   H29629710   1.027   2.271   3.431 -0.5870  0.6203 -0.5126
   78MOL   H29729711   0.862   2.246   3.485  0.3071 -0.7993  0.8733
   78MOL   H29829712   1.010   2.512   3.468  1.4749  0.1244  1.6062
   78MOL   H29929713   0.844   2.497   3.520 -1.1643 -0.5244  0.6710
   78MOL   H30029714   0.902   2.539   3.722  0.3854 -1.2272  2.5273
   78MOL   H30129715   1.075   2.497   3.694 -0.3086  0.4807 -0.4657
   78MOL   H30229716   0.842   2.307   3.754  0.5695 -2.8119  0.6828
   78MOL   H30329717   0.991   2.311   3.842 -1.5175 -2.2553 -0.3031
   78MOL   H30429718   0.827   1.992   3.548 -1.6372  0.1139  0.4250
   78MOL   H30529719   0.779   2.117   3.641  1.1941  1.2857 -0.5651
   78MOL   C30629720   0.802   1.930   3.758  0.2790 -0.1488 -0.2772
   78MOL   C30729721   0.708   1.989   3.870  0.1043  0.3544  0.1317
   78MOL   C30829722   0.791   2.067   3.979 -0.8828 -0.6028  0.1128
   78MOL   C30929723   0.677   2.134   4.068 -0.3734 -0.0886 -0.9638
   78MOL   C31029724   0.560   2.157   3.967  0.2194 -0.4372  0.4757
   78MOL   C31129725   0.587   2.075   3.835 -0.1822 -0.1999 -0.2549
   78MOL   C31229726   0.733   1.810   3.688 -0.2848  0.0649  0.2216
   78MOL   H31329727   0.897   1.895   3.798  0.5364  0.6665 -0.1596
   78MOL   H31429728   0.664   1.904   3.921 -0.6095  0.7835  0.2401
   78MOL   H31529729   0.858   2.140   3.935 -1.0271  0.0924  1.0346
   78MOL   H31629730   0.859   2.005   4.037 -2.3516 -0.3787  2.1159
   78MOL   H31729731   0.639   2.074   4.150  0.4743  0.7360  0.0402
   78MOL   H31829732   0.723   2.228   4.097 -0.3214 -0.5243  0.3962
   78MOL   H31929733   0.538   2.262   3.949  2.2665 -0.4771 -2.7673
   78MOL   H32029734   0.476   2.109   4.018 -1.5968  2.0653 -0.0573
   78MOL   H32129735   0.504   2.016   3.796  0.0816 -1.4751  1.0648
   78MOL   H32229736   0.615   2.152   3.762 -1.0858 -1.7469 -2.2674
   78MOL   H32329737   0.797   1.779   3.605 -1.6501  0.1985 -0.8940
   78MOL   H32429738   0.639   1.844   3.644  0.8245  1.7346 -0.8883
   78MOL   C32529739   0.710   1.677   3.772 -0.1305 -0.5580 -0.9387
   78MOL   C32629740   0.832   1.607   3.843  0.5376  0.2924 -0.1628
   78MOL   C32729741   0.923   1.521   3.750 -0.2616  0.6740  0.5557
   78MOL   C32829742   0.969   1.399   3.818 -0.2394 -0.4597 -0.0032
   78MOL   C32929743   0.909   1.401   3.951 -0.0440  0.3220 -0.0599
   78MOL   C33029744   0.796   1.504   3.949 -0.7855  0.4467 -0.0959
   78MOL   C33129745   0.631   1.573   3.690  0.6297  0.3712  0.2129
   78MOL   H33229746   0.644   1.707   3.853 -0.6471  1.3546 -2.0344
   78MOL   H33329747   0.902   1.665   3.902  0.1580 -1.3131  1.9274
   78MOL   H33429748   1.006   1.580   3.712  0.7796 -0.4601  1.0476
   78MOL   H33529749   0.873   1.516   3.653 -1.6857  3.4541  1.0898
   78MOL   H33629750   1.078   1.396   3.829 -0.3166  0.6147  1.2781
   78MOL   H33729751   0.942   1.312   3.759 -0.2174  1.0000 -2.2150
   78MOL   H33829752   0.983   1.435   4.024 -0.1716 -1.4087  0.9150
   78MOL   H33929753   0.859   1.308   3.977 -0.8296  0.2207 -1.9079
   78MOL   H34029754   0.785   1.551   4.047  1.4025  1.1713 -0.1642
   78MOL   H34129755   0.699   1.458   3.933 -1.9413  2.7699  0.0539
   78MOL   H34229756   0.644   1.474   3.735  2.6085  0.7393  0.4966
   78MOL   H34329757   0.676   1.557   3.592  0.9720  0.4967  0.3505
   78MOL   C34429758   0.477   1.602   3.682 -0.6782  0.1658 -0.2572
   78MOL   C34529759   0.375   1.501   3.747  0.8134 -1.0488 -0.9043
   78MOL   C34629760   0.227   1.557   3.764  0.0597 -0.1208 -0.9043
   78MOL   C34729761   0.182   1.507   3.899 -0.1097 -0.3956  0.3976
   78MOL   C34829762   0.279   1.408   3.947  0.1343  0.1678 -0.9041
   78MOL   C34929763   0.412   1.456   3.890  0.8807  0.3462  0.1737
   78MOL   C35029764   0.427   1.630   3.537  0.1850 -0.2429  0.5106
   78MOL   H35129765   0.454   1.696   3.732  2.2108 -0.4627  2.4003
   78MOL   H35229766   0.370   1.410   3.687  0.4404 -1.5015 -0.1935
   78MOL   H35329767   0.159   1.522   3.686 -1.0456  0.2190 -0.1138
   78MOL   H35429768   0.232   1.666   3.764 -0.1325 -0.1039 -0.1228
   78MOL   H35529769   0.159   1.583   3.974 -1.1707  2.4890 -2.6889
   78MOL   H35629770   0.090   1.451   3.884  0.5985 -1.5489  0.2861
   78MOL   H35729771   0.268   1.304   3.915  2.5721  0.0179 -1.3765
   78MOL   H35829772   0.279   1.402   4.055 -1.1291 -0.3922 -0.9366
   78MOL   H35929773   0.442   1.545   3.946 -1.9673  1.7227 -0.4064
   78MOL   H36029774   0.495   1.386   3.884 -0.3549 -1.2260  0.9937
   78MOL   H36129775   0.469   1.728   3.516  2.2171 -1.0643  0.6042
   78MOL   H36229776   0.319   1.646   3.537 -0.1477 -2.1988  2.1495
   78MOL   C36329777   0.463   1.517   3.433  0.0336 -0.5396 -0.5026
   78MOL   C36429778   0.345   1.452   3.370 -0.3685 -0.2326 -0.3190
   78MOL   C36529779   0.359   1.305   3.318 -0.3096  0.0986 -0.2613
   78MOL   C36629780   0.233   1.281   3.227 -0.1883 -0.0737  0.2402
   78MOL   C36729781   0.159   1.424   3.214 -0.0619 -0.9776  0.2552
   78MOL   C36829782   0.269   1.525   3.258 -0.2980  0.0254  0.5205
   78MOL   C36929783   0.566   1.574   3.329  0.1404 -0.3421 -0.7755
   78MOL   H37029784   0.519   1.445   3.493 -1.1259 -1.2181 -0.2372
   78MOL   H37129785   0.267   1.446   3.445  0.2366 -0.6040  0.2903
   78MOL   H37229786   0.453   1.287   3.267 -0.1556 -0.3989  0.1910
   78MOL   H37329787   0.364   1.225   3.393  1.0622 -0.7550 -1.2486
   78MOL   H37429788   0.262   1.223   3.139 -0.8089 -0.8093  0.5161
   78MOL   H37529789   0.157   1.223   3.278  0.2226  0.4716  1.5035
   78MOL   H37629790   0.124   1.443   3.112 -1.0522 -0.8477  0.6111
   78MOL   H37729791   0.075   1.434   3.282  1.4509  4.3651  1.5372
   78MOL   H37829792   0.224   1.618   3.293  0.0492  0.0862  0.8112
   78MOL   H37929793   0.339   1.555   3.180 -2.1010 -2.9331 -2.3853
   78MOL   H38029794   0.570   1.682   3.323 -0.6285 -0.3887 -2.5901
   78MOL   H38129795   0.541   1.528   3.233  0.2365  2.6787 -2.2824
   78MOL   H38229796   0.666   1.533   3.342  0.0062 -0.5336 -0.3571
   79MOL     C129797   6.020   1.001   6.707  0.0470  0.0854  0.2651
   79MOL     C229798   5.879   0.950   6.672 -0.0906  0.1710  1.0038
   79MOL     C329799   5.845   0.809   6.735  0.3966  0.3707 -0.0580
   79MOL     C429800   5.761   0.731   6.631 -0.4161 -0.6846 -0.7113
   79MOL     C529801   5.727   0.828   6.523  0.8841 -0.4486 -0.2889
   79MOL     C629802   5.848   0.925   6.522 -0.3041  0.8245  0.3176
   79MOL     C729803   6.027   1.032   6.861  0.4576 -0.5271 -0.0275
   79MOL     H829804   6.083   0.920   6.670 -2.3078 -0.6854 -2.1675
   79MOL     H929805   5.808   1.018   6.720 -2.6302 -1.1489 -0.7499
   79MOL    H1029806   5.933   0.754   6.770  0.2381 -0.0404 -0.3063
   79MOL    H1129807   5.787   0.832   6.824  1.0725 -0.1071  0.5151
   79MOL    H1229808   5.836   0.667   6.584 -0.2493  0.4340 -1.9957
   79MOL    H1329809   5.670   0.676   6.654 -1.6158  0.6408 -2.1522
   79MOL    H1429810   5.705   0.771   6.433 -0.9623  0.4144 -0.4149
   79MOL    H1529811   5.636   0.885   6.546  2.0041  0.5594  1.8224
   79MOL    H1629812   5.814   1.022   6.485  0.8478  1.7292  1.6043
   79MOL    H1729813   5.924   0.891   6.452 -2.3942 -1.0922 -1.1139
   79MOL    H1829814   5.952   1.102   6.898  0.2111 -0.9147  0.2119
   79MOL    H1929815   5.988   0.945   6.914 -0.4258  0.3503  0.7750
   79MOL    H2029816   6.058   1.089   6.656  1.1579 -0.4915  0.0838
   79MOL    C2129817   6.166   1.077   6.917 -0.4839 -0.0639 -0.1783
   79MOL    C2229818   6.274   0.964   6.888  0.2129 -0.1405  0.5271
   79MOL    C2329819   6.232   0.828   6.935  0.1250  0.6364 -0.3734
   79MOL    C2429820   6.363   0.737   6.927 -0.1663 -0.3971  0.5861
   79MOL    C2529821   6.480   0.832   6.918  0.8701 -0.4139 -0.4585
   79MOL    C2629822   6.416   0.970   6.938 -0.3463 -0.3451  0.5422
   79MOL    C2729823   6.202   1.220   6.874  0.0111  0.3957  0.4868
   79MOL    H2829824   6.164   1.074   7.026  1.2457  0.5411 -0.1233
   79MOL    H2929825   6.283   0.958   6.780 -0.7405 -0.3686  0.4607
   79MOL    H3029826   6.146   0.786   6.883 -0.2212 -0.5820  1.1291
   79MOL    H3129827   6.205   0.827   7.041  1.6133 -2.3897  0.0201
   79MOL    H3229828   6.367   0.686   7.024  0.6654 -1.4225  0.0263
   79MOL    H3329829   6.359   0.672   6.840  1.0503  0.7860 -0.3536
   79MOL    H3429830   6.524   0.826   6.819  1.9807  2.4689 -0.1844
   79MOL    H3529831   6.559   0.812   6.991  0.4337  0.4887  0.2716
   79MOL    H3629832   6.476   1.040   6.880 -0.9823 -0.3659 -0.1546
   79MOL    H3729833   6.427   1.000   7.043  0.7537  2.6139 -0.3795
   79MOL    H3829834   6.296   1.239   6.926  0.6230 -1.8451  0.2540
   79MOL    H3929835   6.222   1.204   6.768 -1.3895 -0.7234  0.3725
   79MOL    C4029836   6.115   1.341   6.905 -0.2430 -0.0342 -0.5921
   79MOL    C4129837   6.069   1.359   7.052 -0.3405  0.5905  0.6547
   79MOL    C4229838   5.984   1.252   7.125 -0.2102  0.5079 -0.3637
   79MOL    C4329839   5.936   1.317   7.259 -0.3729 -0.1195  0.5900
   79MOL    C4429840   5.961   1.466   7.240 -0.2435  1.3441  0.3958
   79MOL    C4529841   5.995   1.487   7.094  0.3379  0.0797  0.0020
   79MOL    C4629842   6.186   1.472   6.865 -0.5962  0.6616  0.5021
   79MOL    H4729843   6.023   1.334   6.848 -0.7449  1.1901  0.0582
   79MOL    H4829844   6.159   1.339   7.110 -0.2111  0.5841  0.4518
   79MOL    H4929845   6.030   1.156   7.152  1.1413  0.5457 -2.4329
   79MOL    H5029846   5.897   1.230   7.063 -1.4159 -0.9522  1.7717
   79MOL    H5129847   5.989   1.266   7.339  1.1550  0.2434 -0.1691
   79MOL    H5229848   5.830   1.294   7.269 -0.3295 -0.0196  1.3465
   79MOL    H5329849   5.874   1.524   7.270 -0.3448 -0.1181  3.0638
   79MOL    H5429850   6.050   1.484   7.300 -1.9491  1.6929  2.9045
   79MOL    H5529851   5.906   1.496   7.032 -0.2137 -0.8760  0.6419
   79MOL    H5629852   6.053   1.579   7.087  0.7508 -0.1995 -0.3144
   79MOL    H5729853   6.144   1.568   6.896 -0.4928  1.3812 -1.5440
   79MOL    H5829854   6.267   1.453   6.936 -0.2477 -0.2760 -0.1388
   79MOL    C5929855   6.256   1.483   6.727  0.8357 -0.5079  0.3763
   79MOL    C6029856   6.150   1.514   6.612 -0.0005 -0.1992  0.5290
   79MOL    C6129857   6.062   1.401   6.574 -0.1777 -0.4241  0.2876
   79MOL    C6229858   6.042   1.421   6.420 -0.3988  0.5207 -0.2033
   79MOL    C6329859   6.086   1.566   6.384 -0.3584 -0.5318  0.0308
   79MOL    C6429860   6.209   1.581   6.481 -0.2411 -0.1803 -0.1758
   79MOL    C6529861   6.376   1.588   6.731 -0.1845 -0.8424 -0.3402
   79MOL    H6629862   6.296   1.387   6.693 -1.7454 -2.0745  1.6048
   79MOL    H6729863   6.085   1.589   6.656  0.2258 -1.3630  2.9216
   79MOL    H6829864   5.965   1.399   6.624 -0.4919 -0.1019 -0.3050
   79MOL    H6929865   6.103   1.303   6.597  1.5677  0.7221  2.1861
   79MOL    H7029866   5.937   1.408   6.394 -0.4858  0.7500  0.0461
   79MOL    H7129867   6.097   1.350   6.358  2.8483  2.6833  0.0524
   79MOL    H7229868   6.012   1.642   6.411  1.4588  1.0700  0.5498
   79MOL    H7329869   6.093   1.584   6.277 -1.2826  1.1729  0.2416
   79MOL    H7429870   6.303   1.533   6.452 -0.0826  0.0817 -0.1022
   79MOL    H7529871   6.244   1.684   6.486 -0.3529 -0.0828 -1.3975
   79MOL    H7629872   6.329   1.687   6.734  1.0735 -0.1957 -1.3896
   79MOL    H7729873   6.436   1.579   6.640 -1.2619  0.4687 -1.2093
   79MOL    C7829874   6.483   1.568   6.841  0.0502  0.2050 -0.4895
   79MOL    C7929875   6.546   1.430   6.839  0.6552  0.0223  0.4057
   79MOL    C8029876   6.617   1.385   6.965  0.3802  0.1629 -0.2397
   79MOL    C8129877   6.719   1.287   6.920 -0.6853 -0.4424 -1.0736
   79MOL    C8229878   6.774   1.340   6.792 -0.1656  0.0683  0.4697
   79MOL    C8329879   6.651   1.402   6.725  0.2877  0.4047 -0.5735
   79MOL    C8429880   6.579   1.683   6.837 -0.5569 -0.5631 -0.5591
   79MOL    H8529881   6.440   1.570   6.942  1.3196 -1.1683  0.0950
   79MOL    H8629882   6.465   1.359   6.825  0.0785  0.4558  1.5046
   79MOL    H8729883   6.544   1.351   7.038  0.0460 -0.8898 -1.0522
   79MOL    H8829884   6.674   1.467   7.008  0.5479  1.2659 -2.4836
   79MOL    H8929885   6.667   1.192   6.906  0.5228 -1.1505 -0.8319
   79MOL    H9029886   6.797   1.259   6.991  0.2620  1.9735 -1.1210
   79MOL    H9129887   6.849   1.412   6.825 -0.3023  0.7007 -0.5634
   79MOL    H9229888   6.814   1.260   6.730  0.1510 -0.3555  1.2196
   79MOL    H9329889   6.679   1.498   6.681  0.4430  1.6032  2.0160
   79MOL    H9429890   6.603   1.340   6.649 -3.1505  1.8906  0.2957
   79MOL    H9529891   6.601   1.727   6.740  4.6741 -0.3732  0.5914
   79MOL    H9629892   6.679   1.644   6.856 -0.2885  0.1426 -0.5333
   79MOL    C9729893   6.572   1.783   6.950  0.1551  0.3849  0.0482
   79MOL    C9829894   6.425   1.848   6.951 -0.1085  0.0857 -1.4455
   79MOL    C9929895   6.385   1.930   7.074 -0.1818  0.2809 -0.4753
   79MOL   C10029896   6.280   2.035   7.033 -0.2862 -0.3768 -0.2552
   79MOL   C10129897   6.284   2.030   6.878  0.1573  0.5992  0.1334
   79MOL   C10229898   6.408   1.952   6.837 -0.0541  0.1642 -0.6534
   79MOL   C10329899   6.692   1.883   6.944  0.4997  0.0248 -0.1621
   79MOL   H10429900   6.583   1.731   7.045 -0.5331 -0.5423 -0.3625
   79MOL   H10529901   6.337   1.784   6.947  0.3208 -0.5705 -0.4904
   79MOL   H10629902   6.342   1.862   7.148  1.2035  2.1228  2.0718
   79MOL   H10729903   6.476   1.973   7.116  1.6293 -1.4522 -2.5060
   79MOL   H10829904   6.302   2.130   7.082 -1.5536 -0.6395  0.8574
   79MOL   H10929905   6.185   1.996   7.070 -0.9274  2.4468  1.2621
   79MOL   H11029906   6.289   2.127   6.828 -1.3180  1.9301  2.5023
   79MOL   H11129907   6.187   1.986   6.854  1.4079 -1.3754 -1.4241
   79MOL   H11229908   6.397   1.902   6.741  2.2422  0.8547 -1.2900
   79MOL   H11329909   6.488   2.026   6.842  1.1231 -1.2113  2.1883
   79MOL   H11429910   6.705   1.925   6.845 -0.1874  1.5508  0.3678
   79MOL   H11529911   6.668   1.972   7.003  2.3457 -0.3877  1.2377
   79MOL   C11629912   6.833   1.829   6.984 -0.0995 -0.5582 -0.2981
   79MOL   C11729913   6.946   1.853   6.876  0.1600 -0.0187 -0.0869
   79MOL   C11829914   7.085   1.819   6.908 -0.9690  0.7614  0.0296
   79MOL   C11929915   7.158   1.798   6.773  0.6304  0.2689  0.4082
   79MOL   C12029916   7.051   1.776   6.670  0.9983 -0.3543  0.4325
   79MOL   C12129917   6.922   1.777   6.750 -0.1059 -0.3997  0.0214
   79MOL   C12229918   6.876   1.873   7.124  1.0491 -0.3018  1.0443
   79MOL   H12329919   6.819   1.721   6.990 -4.2503 -0.0632  0.5785
   79MOL   H12429920   6.943   1.959   6.849 -1.2307 -0.2965 -1.0489
   79MOL   H12529921   7.142   1.890   6.968 -1.0388  0.4688  0.4475
   79MOL   H12629922   7.091   1.725   6.962  1.6452 -0.3269 -2.0830
   79MOL   H12729923   7.227   1.717   6.796  1.8495  0.1681 -3.2135
   79MOL   H12829924   7.208   1.890   6.739  0.4309  0.8351  1.6299
   79MOL   H12929925   7.056   1.681   6.615 -1.5625  0.1390 -0.7005
   79MOL   H13029926   7.052   1.863   6.605  2.3195 -1.2492 -0.7765
   79MOL   H13129927   6.838   1.811   6.690  0.1832 -0.8150 -0.6290
   79MOL   H13229928   6.888   1.676   6.772 -1.6386  0.5948  2.4056
   79MOL   H13329929   6.906   1.978   7.126 -1.4874  0.4334  1.5843
   79MOL   H13429930   6.967   1.824   7.159  0.5438 -1.2272  1.0835
   79MOL   C13529931   6.780   1.852   7.238 -0.0690  0.3592  0.6285
   79MOL   C13629932   6.809   1.945   7.353  0.0267 -0.1005 -0.7002
   79MOL   C13729933   6.756   2.084   7.336 -0.1859  0.3875 -0.0770
   79MOL   C13829934   6.833   2.171   7.438  0.6783 -0.0313  0.0545
   79MOL   C13929935   6.969   2.101   7.459 -0.1452 -0.0769 -0.3077
   79MOL   C14029936   6.951   1.953   7.410  0.2875  0.4958 -0.4313
   79MOL   C14129937   6.783   1.702   7.284 -0.1279  0.2533 -0.0228
   79MOL   H14229938   6.673   1.869   7.223 -0.7375 -2.2057  2.3311
   79MOL   H14329939   6.762   1.909   7.445  2.6242 -3.2084 -0.4977
   79MOL   H14429940   6.786   2.111   7.234  1.5528  0.6578  0.4741
   79MOL   H14529941   6.649   2.104   7.329  0.2814  3.1797 -0.0175
   79MOL   H14629942   6.771   2.168   7.527 -1.4581 -0.9058 -1.4362
   79MOL   H14729943   6.837   2.274   7.404  1.4730 -0.1405 -0.2120
   79MOL   H14829944   6.991   2.103   7.565 -0.3890 -2.7001 -0.1719
   79MOL   H14929945   7.053   2.142   7.403  0.8212 -0.8929  0.5217
   79MOL   H15029946   7.014   1.947   7.322  0.1714  2.0585 -0.6314
   79MOL   H15129947   6.987   1.876   7.479 -0.7766  1.2783  1.0458
   79MOL   H15229948   6.884   1.668   7.303 -0.9255 -1.5700  1.0247
   79MOL   H15329949   6.764   1.637   7.198  1.2255 -2.8427  1.9631
   79MOL   C15429950   6.685   1.657   7.402  0.2151  0.0263  0.2057
   79MOL   C15529951   6.526   1.682   7.366 -0.7403 -0.3565 -0.2469
   79MOL   C15629952   6.441   1.679   7.502  0.6406 -0.4487  0.7731
   79MOL   C15729953   6.297   1.659   7.452  0.3102  0.5350 -0.3204
   79MOL   C15829954   6.302   1.584   7.316  0.6648 -0.5158  0.3051
   79MOL   C15929955   6.449   1.583   7.275  0.2726  0.4770  0.2465
   79MOL   C16029956   6.708   1.506   7.430 -0.2927  0.1427  0.1621
   79MOL   H16129957   6.715   1.706   7.495 -0.0091 -0.6963  0.6582
   79MOL   H16229958   6.514   1.787   7.339 -2.8596 -0.1549  1.4280
   79MOL   H16329959   6.480   1.610   7.576 -2.5375 -1.1162  1.8942
   79MOL   H16429960   6.445   1.778   7.548 -1.2372  1.1755 -2.3710
   79MOL   H16529961   6.238   1.611   7.530  1.8560  0.9339  1.1161
   79MOL   H16629962   6.265   1.760   7.427  1.3898  0.8000 -0.6595
   79MOL   H16729963   6.249   1.642   7.241  3.0389  2.0815  0.5622
   79MOL   H16829964   6.263   1.482   7.315  0.3598 -0.4083  1.0798
   79MOL   H16929965   6.448   1.630   7.177  0.1698  0.6801  0.3449
   79MOL   H17029966   6.495   1.485   7.267  0.4339  0.5522  0.2446
   79MOL   H17129967   6.693   1.453   7.335  0.5639 -1.8554  1.1224
   79MOL   H17229968   6.631   1.459   7.491 -1.3097 -0.8841 -1.8249
   79MOL   C17329969   6.845   1.456   7.496  0.1258  0.2403  0.5291
   79MOL   C17429970   6.891   1.310   7.471  1.0397 -0.1639 -0.3572
   79MOL   C17529971   6.934   1.295   7.327 -0.3023 -0.2128 -0.0032
   79MOL   C17629972   6.868   1.159   7.287  0.1733  0.0843  0.0357
   79MOL   C17729973   6.819   1.093   7.412 -0.4417  0.0816  1.0907
   79MOL   C17829974   6.777   1.207   7.494  0.3503  0.0462  0.9235
   79MOL   C17929975   6.845   1.483   7.656  0.1218  0.0209  0.7146
   79MOL   H18029976   6.923   1.525   7.464  0.1881 -0.4538 -0.8601
   79MOL   H18129977   6.975   1.284   7.536  1.9884  2.6614 -0.4010
   79MOL   H18229978   7.042   1.280   7.317 -0.1679  1.2040 -0.8697
   79MOL   H18329979   6.905   1.370   7.253  1.7930  0.0991 -0.5369
   79MOL   H18429980   6.796   1.171   7.206 -1.5193 -1.0646  1.3415
   79MOL   H18529981   6.942   1.101   7.233  1.6761  1.4177  0.6285
   79MOL   H18629982   6.903   1.037   7.454 -0.4924 -0.0133  1.0680
   79MOL   H18729983   6.735   1.026   7.395 -1.3714  1.0531  1.7843
   79MOL   H18829984   6.677   1.247   7.477 -1.1139 -3.7687  0.0171
   79MOL   H18929985   6.782   1.191   7.601  2.4053 -0.1490  0.8085
   79MOL   H19029986   6.774   1.557   0.002  1.2518  0.6936  1.5953
   79MOL   H19129987   6.794   1.396   0.007  0.8642  0.1993  2.0248
   79MOL   C19229988   6.977   1.515   0.035 -0.1913  0.6564  0.2261
   79MOL   C19329989   6.969   1.499   0.191 -0.8808  0.2043  0.3218
   79MOL   C19429990   6.948   1.356   0.235  0.4776 -0.1004 -0.3466
   79MOL   C19529991   6.816   1.352   0.320 -0.5731  0.5464  0.1614
   79MOL   C19629992   6.758   1.497   0.320  0.2632 -0.8731  0.1522
   79MOL   C19729993   6.865   1.582   0.256 -0.2438 -0.8108  0.2021
   79MOL   C19829994   7.034   1.653   7.672  0.4064 -0.5518 -0.1220
   79MOL   H19929995   7.045   1.438   7.686  0.3621  1.1686  0.1763
   79MOL   H20029996   7.064   1.533   0.231 -0.9146 -0.4907  1.0123
   79MOL   H20129997   7.032   1.335   0.302 -1.1605 -0.8508  1.4998
   79MOL   H20229998   6.974   1.276   0.165  1.9222  0.3021 -0.3004
   79MOL   H20329999   6.757   1.281   0.262 -0.5937 -1.1741  2.2431
   79MOL   H20430000   6.824   1.316   0.422 -2.2792 -0.5935 -0.0800
   79MOL   H20530001   6.723   1.530   0.418 -1.4585 -2.7010  0.1780
   79MOL   H20630002   6.675   1.497   0.249 -0.6118  0.7014  1.1413
   79MOL   H20730003   6.919   1.624   0.341  0.7114  0.1679 -0.8702
   79MOL   H20830004   6.823   1.667   0.202  0.9711 -1.4289 -1.7959
   79MOL   H20930005   7.005   1.687   7.572 -0.1956 -0.8747 -0.0598
   79MOL   H21030006   6.995   1.733   0.045 -0.2719 -1.1580  0.2413
   79MOL   C21130007   7.194   1.656   7.682 -0.4154  0.4599 -0.3885
   79MOL   C21230008   7.261   1.627   7.549  0.4831  0.4667 -0.9214
   79MOL   C21330009   7.252   1.737   7.440 -0.5014 -0.6650  0.1065
   79MOL   C21430010   7.371   1.715   7.354  0.6983 -0.4045  0.1062
   79MOL   C21530011   7.474   1.629   7.425  0.4919  0.1861 -0.1796
   79MOL   C21630012   7.415   1.603   7.562 -0.2182 -0.2050  0.1951
   79MOL   C21730013   7.234   1.786   0.068  0.6217  0.2473  0.2265
   79MOL   H21830014   7.223   1.567   0.048 -0.5206  0.4713 -0.3139
   79MOL   H21930015   7.213   1.544   7.499 -0.9787  0.1189  1.0246
   79MOL   H22030016   7.158   1.743   7.385 -0.5174 -0.0216  0.2006
   79MOL   H22130017   7.263   1.839   7.477  0.4292 -0.8345  0.3179
   79MOL   H22230018   7.336   1.678   7.259  0.8806 -0.4980  0.0751
   79MOL   H22330019   7.410   1.813   7.327  1.3583 -1.1111 -1.5592
   79MOL   H22430020   7.574   1.672   7.422 -0.3727  2.3813  0.9251
   79MOL   H22530021   7.476   1.533   7.373 -0.3108 -0.0151  0.1591
   79MOL   H22630022   7.442   1.504   7.598  0.8283  0.0698  0.2013
   79MOL   H22730023   7.462   1.670   7.634 -1.6428 -0.3121  1.2435
   79MOL   H22830024   7.178   1.863   0.016  1.2464  1.2253  0.9888
   79MOL   H22930025   7.335   1.821   0.043  1.2786 -1.7251  0.0128
   79MOL   C23030026   7.217   1.792   0.223  0.2808  0.6607 -0.2580
   79MOL   C23130027   7.141   1.917   0.263 -0.1160  0.4517 -0.0337
   79MOL   C23230028   7.098   1.932   0.412 -0.0957 -0.4564 -0.4589
   79MOL   C23330029   7.071   2.081   0.433  0.0697 -0.2834  0.3953
   79MOL   C23430030   7.140   2.155   0.316 -0.1184  0.2015 -0.2786
   79MOL   C23530031   7.190   2.054   0.215 -0.5679  0.2173  0.7224
   79MOL   C23630032   7.348   1.783   0.303  0.4963  0.5761 -0.5532
   79MOL   H23730033   7.145   1.724   0.270  0.3217  0.7380 -0.0833
   79MOL   H23830034   7.038   1.900   0.230 -0.7292 -0.7051  2.3652
   79MOL   H23930035   7.014   1.869   0.440  1.4619 -1.7898  1.3203
   79MOL   H24030036   7.181   1.900   0.475 -0.9495 -1.7510  0.0263
   79MOL   H24130037   6.965   2.104   0.428  0.5371  1.6385 -0.8008
   79MOL   H24230038   7.111   2.108   0.531 -0.5259  0.0391  0.5509
   79MOL   H24330039   7.221   2.219   0.350  0.1167  0.1108 -0.6575
   79MOL   H24430040   7.069   2.228   0.278  2.0036  2.9871  0.9606
   79MOL   H24530041   7.298   2.057   0.221 -0.4124 -1.6200 -0.4180
   79MOL   H24630042   7.165   2.079   0.112  1.9214  1.8680  0.4877
   79MOL   H24730043   7.376   1.883   0.337 -2.0457  0.7895  0.9979
   79MOL   H24830044   7.423   1.756   0.229 -0.4943  0.2073 -1.4363
   79MOL   C24930045   7.346   1.673   0.421 -0.3962 -0.4953 -0.0139
   79MOL   C25030046   7.467   1.705   0.511  0.2012  0.4210 -0.1045
   79MOL   C25130047   7.461   1.836   0.603  0.0427 -0.3127 -0.1095
   79MOL   C25230048   7.604   1.879   0.637  0.0486  0.1642  0.0236
   79MOL   C25330049   0.007   1.783   0.554 -0.5121  0.1220 -0.1646
   79MOL   C25430050   7.608   1.717   0.449  0.2619  0.2728  0.1231
   79MOL   C25530051   7.353   1.530   0.368  0.1858 -0.4267  0.1231
   79MOL   H25630052   7.248   1.681   0.468  0.8081 -1.9956  2.8876
   79MOL   H25730053   7.465   1.622   0.581  0.4067  1.5470  1.2563
   79MOL   H25830054   7.403   1.828   0.695  0.9947 -1.8972  0.3862
   79MOL   H25930055   7.406   1.914   0.550  0.4981 -0.5119 -0.8782
   79MOL   H26030056   7.633   1.888   0.742  0.3822 -0.2199 -0.0366
   79MOL   H26130057   7.601   1.978   0.592  1.0111 -0.0757 -0.5938
   79MOL   H26230058   0.029   1.702   0.624 -0.8341 -0.1087 -0.3272
   79MOL   H26330059   0.096   1.837   0.521 -0.6005  0.0455 -0.5317
   79MOL   H26430060   7.642   1.619   0.419 -1.0759  0.1612 -1.0706
   79MOL   H26530061   7.614   1.769   0.353 -1.3910  0.9088  0.3424
   79MOL   H26630062   7.274   1.526   0.292 -0.7591  0.0694  1.0657
   79MOL   H26730063   7.448   1.509   0.319  0.3574 -0.2849  0.3954
   79MOL   C26830064   7.336   1.410   0.465 -0.8586  0.0187  0.2873
   79MOL   C26930065   7.351   1.272   0.393 -0.3406  0.3654  0.7019
   79MOL   C27030066   7.357   1.145   0.474  0.5195  0.3121  0.3059
   79MOL   C27130067   7.404   1.041   0.380 -0.3677  0.8336  0.9498
   79MOL   C27230068   7.508   1.104   0.296  0.4563 -1.1043 -0.2219
   79MOL   C27330069   7.471   1.254   0.300 -0.3614  0.1767  0.0607
   79MOL   C27430070   7.196   1.422   0.539 -1.1442  0.0335 -0.4535
   79MOL   H27530071   7.416   1.417   0.539 -0.8957 -1.3080  0.4604
   79MOL   H27630072   7.257   1.270   0.338 -0.3651 -1.4668  0.7871
   79MOL   H27730073   7.415   1.159   0.565 -1.0218 -3.2684  1.9271
   79MOL   H27830074   7.263   1.112   0.518  1.2167 -0.9372  0.8557
   79MOL   H27930075   7.423   0.952   0.440 -0.2679  0.2412  0.0525
   79MOL   H28030076   7.318   1.018   0.316  1.3109  3.2265 -2.2959
   79MOL   H28130077   7.510   1.064   0.195 -0.4303 -0.7013 -0.3951
   79MOL   H28230078   7.606   1.084   0.341  0.3235 -0.7254  0.2413
   79MOL   H28330079   7.455   1.300   0.203  1.9715  0.2344 -0.3382
   79MOL   H28430080   7.554   1.318   0.333  0.2048  0.4707 -1.8879
   79MOL   H28530081   7.145   1.326   0.536  1.7813 -1.6338  1.0113
   79MOL   H28630082   7.140   1.493   0.478  0.4290  1.6518 -0.0480
   79MOL   C28730083   7.203   1.476   0.694 -0.1911  0.1140 -0.6891
   79MOL   C28830084   7.065   1.528   0.744 -0.8297 -0.7933  0.1275
   79MOL   C28930085   7.024   1.660   0.675  0.3025  0.4211  0.3010
   79MOL   C29030086   6.878   1.681   0.690 -0.2413 -0.5845  0.1589
   79MOL   C29130087   6.832   1.538   0.699 -0.7137 -0.6365  0.0153
   79MOL   C29230088   6.950   1.442   0.718 -0.2780  0.0387 -0.0671
   79MOL   C29330089   7.255   1.360   0.794 -0.0193  0.0670 -0.2583
   79MOL   H29430090   7.269   1.562   0.699  1.3477 -1.0615 -0.5319
   79MOL   H29530091   7.068   1.550   0.851  2.1740  1.6872 -0.3873
   79MOL   H29630092   7.070   1.751   0.714  1.5172 -0.1713  0.2798
   79MOL   H29730093   7.042   1.657   0.568  0.2410  0.8110  0.2786
   79MOL   H29830094   6.848   1.723   0.786 -0.2961 -1.6406  0.6149
   79MOL   H29930095   6.845   1.732   0.600  0.0514  2.3224  1.6681
   79MOL   H30030096   6.768   1.522   0.612  0.1021 -1.7921 -0.3808
   79MOL   H30130097   6.765   1.531   0.785 -0.3611  2.5992  0.5873
   79MOL   H30230098   6.953   1.384   0.626  0.1354 -0.8699  0.5114
   79MOL   H30330099   6.927   1.356   0.779 -0.1922 -0.0917 -0.2170
   79MOL   H30430100   7.349   1.325   0.751  0.3322 -0.0221  0.5731
   79MOL   H30530101   7.182   1.280   0.781 -0.7684  0.6581  0.2955
   79MOL   C30630102   7.295   1.390   0.940 -0.0424  0.9768 -0.3475
   79MOL   C30730103   7.318   1.269   1.041 -0.5010  0.1110  0.4918
   79MOL   C30830104   7.251   1.283   1.173 -0.0365  0.3674  0.6542
   79MOL   C30930105   7.236   1.146   1.227  0.1202  0.1774 -0.6624
   79MOL   C31030106   7.280   1.051   1.119 -0.4393 -0.2058 -0.2438
   79MOL   C31130107   7.277   1.137   0.991  0.5099  0.0050 -0.0195
   79MOL   C31230108   7.407   1.495   0.962 -0.3029  0.1311  0.6191
   79MOL   H31330109   7.207   1.444   0.976  0.7794  0.8466  1.9429
   79MOL   H31430110   7.423   1.277   1.067 -0.5827  0.7425  0.6401
   79MOL   H31530111   7.152   1.330   1.162  0.4818  0.7869 -2.7441
   79MOL   H31630112   7.312   1.344   1.240 -0.1583  1.9757 -0.6557
   79MOL   H31730113   7.290   1.129   1.320  2.0154  3.6116 -1.0621
   79MOL   H31830114   7.128   1.132   1.234 -0.3516  3.2387 -0.9277
   79MOL   H31930115   7.222   0.959   1.129 -0.4585 -0.1354  0.3003
   79MOL   H32030116   7.385   1.022   1.128  0.3133  2.0880 -1.3444
   79MOL   H32130117   7.333   1.099   0.906  0.8454  1.2003 -0.3382
   79MOL   H32230118   7.174   1.136   0.954  0.4177 -1.3997  0.2415
   79MOL   H32330119   7.401   1.570   0.883 -1.5314 -0.0779  0.5028
   79MOL   H32430120   7.506   1.475   0.921 -0.0358  1.4711  0.5990
   79MOL   C32530121   7.402   1.583   1.095 -0.5186  0.0930 -0.4337
   79MOL   C32630122   7.292   1.691   1.077  0.5557  0.8227  0.1226
   79MOL   C32730123   7.321   1.814   0.979 -0.0444  0.4315  0.2210
   79MOL   C32830124   7.221   1.914   1.027 -0.3676 -0.8686  0.1772
   79MOL   C32930125   7.225   1.907   1.187  0.9825  0.4574  0.0053
   79MOL   C33030126   7.249   1.753   1.213  0.0393  0.3258 -0.1040
   79MOL   C33130127   7.548   1.634   1.132 -0.1840 -0.0547 -0.4866
   79MOL   H33230128   7.372   1.536   1.188  1.4630 -0.2225  0.0773
   79MOL   H33330129   7.202   1.660   1.025  0.8627  0.3149 -0.1038
   79MOL   H33430130   7.304   1.782   0.876 -2.5074  0.4020  0.5965
   79MOL   H33530131   7.424   1.846   0.990 -0.5296  1.6884  1.1772
   79MOL   H33630132   7.126   1.889   0.980  0.3283  2.2804 -3.0895
   79MOL   H33730133   7.249   2.018   1.012 -0.8905 -0.3396  2.6882
   79MOL   H33830134   7.129   1.944   1.222 -0.5330 -0.1545 -3.2453
   79MOL   H33930135   7.300   1.973   1.229  0.7280  0.1662  0.9263
   79MOL   H34030136   7.168   1.694   1.255  0.6411  0.1694  0.8549
   79MOL   H34130137   7.333   1.756   1.283 -0.6932  0.8382  0.7633
   79MOL   H34230138   7.541   1.707   1.212 -0.4682  0.9241 -1.3954
   79MOL   H34330139   7.576   1.699   1.050 -0.2502 -0.2362 -0.6537
   79MOL   C34430140   7.665   1.537   1.149 -0.3939  0.5470 -1.0711
   79MOL   C34530141   7.651   1.457   1.280  0.6819 -0.1400 -0.3703
   79MOL   C34630142   0.006   1.528   1.409 -0.1548  0.5905  0.5418
   79MOL   C34730143   0.067   1.419   1.497 -0.4421 -0.0925 -0.3763
   79MOL   C34830144   0.046   1.287   1.426  0.5847 -0.4951  0.1129
   79MOL   C34930145   0.047   1.332   1.280  0.7960 -0.1284  0.5051
   79MOL   C35030146   0.118   1.591   1.131  0.2133  0.0103  0.1277
   79MOL   H35130147   7.663   1.466   1.067  3.8110 -0.4671 -0.4277
   79MOL   H35230148   7.547   1.423   1.277  0.7044 -0.1114 -1.6463
   79MOL   H35330149   7.608   1.567   1.460 -0.4366  0.5342  0.0944
   79MOL   H35430150   0.078   1.607   1.389 -1.0966  0.6333 -2.8889
   79MOL   H35530151   0.175   1.426   1.503 -0.4131  0.5043 -1.5187
   79MOL   H35630152   0.029   1.427   1.599 -1.6252  0.8694 -0.8695
   79MOL   H35730153   7.642   1.237   1.449 -1.3991  2.7132 -0.6652
   79MOL   H35830154   0.133   1.221   1.434  0.2211 -1.1527 -1.1734
   79MOL   H35930155   0.151   1.347   1.251  1.0547 -0.7912  1.0795
   79MOL   H36030156   0.009   1.259   1.209  4.3024  1.1550 -2.8498
   79MOL   H36130157   0.191   1.544   1.197  2.8073  3.7019  0.0408
   79MOL   H36230158   0.123   1.689   1.176  2.1199 -0.5169  1.1452
   79MOL   C36330159   0.171   1.617   0.987  0.0375 -0.3751  0.1909
   79MOL   C36430160   0.280   1.734   0.972 -0.5192 -0.2141  0.3258
   79MOL   C36530161   0.241   1.876   1.023  0.7573 -0.1319 -0.3306
   79MOL   C36630162   0.316   1.974   0.935  1.0788  0.4234 -0.5112
   79MOL   C36730163   0.391   1.894   0.829 -0.2261 -0.2107 -0.5834
   79MOL   C36830164   0.307   1.765   0.823 -0.0862  0.2306 -0.5307
   79MOL   C36930165   0.203   1.491   0.900  0.1766  0.0389  0.0947
   79MOL   H37030166   0.083   1.651   0.932  0.1265  0.7483  0.7404
   79MOL   H37130167   0.372   1.707   1.024  2.1623  1.2736 -3.3553
   79MOL   H37230168   0.134   1.890   1.008  0.4462 -1.0822  0.9123
   79MOL   H37330169   0.244   1.895   1.130  1.1147 -1.7331 -0.0442
   79MOL   H37430170   0.236   2.034   0.891 -0.2410  1.5725  3.2922
   79MOL   H37530171   0.377   2.051   0.983 -0.3510  2.1370 -1.3712
   79MOL   H37630172   0.394   1.954   0.738  0.4655  0.0736 -0.3771
   79MOL   H37730173   0.496   1.884   0.857 -0.6591  2.5538  2.2931
   79MOL   H37830174   0.363   1.685   0.774  1.0167  1.7686 -1.8349
   79MOL   H37930175   0.219   1.789   0.764  0.0765 -3.1261 -2.2136
   79MOL   H38030176   0.295   1.444   0.935  0.4497  1.1101  0.8563
   79MOL   H38130177   0.210   1.501   0.792  1.6823 -1.9953 -0.0341
   79MOL   H38230178   0.127   1.413   0.909 -1.3208  1.2467 -1.7649
   80MOL     C130179   2.669   7.373   6.029 -0.5755  0.3941  0.2670
   80MOL     C230180   2.547   7.467   5.997  0.4281  0.2008  0.2686
   80MOL     C330181   2.497   7.558   6.106  0.2190  0.1272 -0.5857
   80MOL     C430182   2.354   7.597   6.061  0.2390  0.3688  0.4651
   80MOL     C530183   2.312   7.484   5.965  0.1188  0.3604  0.5315
   80MOL     C630184   2.420   7.380   5.966 -0.1885  0.1537  0.5959
   80MOL     C730185   2.801   7.447   6.055 -0.2068  0.3672  0.3870
   80MOL     H830186   2.664   7.316   6.122  0.7084  0.5650  0.4549
   80MOL     H930187   2.565   7.522   5.905  2.3532 -0.3017  0.3211
   80MOL    H1030188   2.484   7.515   6.206  2.0937  0.5211 -0.1582
   80MOL    H1130189   2.558   7.647   6.119  0.6372 -0.1161 -0.8716
   80MOL    H1230190   2.277   7.612   6.136  1.4615  1.6228  1.4840
   80MOL    H1330191   2.356   7.683   5.993 -3.3284  0.2245  0.0967
   80MOL    H1430192   2.217   7.436   5.991 -1.7285  1.8542 -3.0849
   80MOL    H1530193   2.310   7.513   5.860  1.9525 -1.3575 -0.0126
   80MOL    H1630194   2.426   7.325   5.872 -0.4293 -0.8739  1.1774
   80MOL    H1730195   2.398   7.302   6.039 -1.2392  0.8573  1.0402
   80MOL    H1830196   2.810   7.532   5.987  0.3259  0.7228  0.9029
   80MOL    H1930197   2.810   7.501   6.148 -3.3551  0.5476  0.6172
   80MOL    H2030198   2.681   7.297   5.951 -0.2547  0.3911  0.3169
   80MOL    C2130199   2.928   7.363   6.058 -0.2701  0.0195 -0.5065
   80MOL    C2230200   2.944   7.277   6.186  0.0306  0.2806 -0.2121
   80MOL    C2330201   2.978   7.358   6.313 -0.1843  0.1815 -0.9935
   80MOL    C2430202   3.057   7.262   6.399 -0.5058 -0.2390  0.5875
   80MOL    C2530203   3.074   7.132   6.323 -0.0664 -0.0343  0.2868
   80MOL    C2630204   3.050   7.168   6.178  0.1466 -0.0818 -0.0448
   80MOL    C2730205   2.946   7.281   5.922  0.5698 -0.2654  0.2193
   80MOL    H2830206   3.014   7.431   6.059 -2.0012  2.2560 -0.5191
   80MOL    H2930207   2.852   7.221   6.200 -1.1805  2.4946  0.8969
   80MOL    H3030208   2.888   7.397   6.361 -0.6980 -0.9365 -1.0391
   80MOL    H3130209   3.037   7.444   6.279 -0.8139  0.1039 -2.3148
   80MOL    H3230210   3.157   7.300   6.418  0.0238 -0.8407 -0.9372
   80MOL    H3330211   3.013   7.248   6.498  0.9108  0.4635  1.3247
   80MOL    H3430212   3.016   7.043   6.352  2.2062 -1.7207 -0.2366
   80MOL    H3530213   3.172   7.086   6.333  0.9855  1.8484 -1.2533
   80MOL    H3630214   3.019   7.082   6.119 -0.9343  0.8200 -0.8234
   80MOL    H3730215   3.142   7.213   6.142  0.9101 -0.7143  1.1009
   80MOL    H3830216   3.038   7.223   5.918  0.4315 -0.6167  1.8138
   80MOL    H3930217   2.877   7.197   5.911  1.5128 -0.7765 -2.1304
   80MOL    C4030218   2.944   7.377   5.798 -0.7680 -0.4005  0.0946
   80MOL    C4130219   3.081   7.382   5.715  0.4619  0.5002  0.5036
   80MOL    C4230220   3.133   7.247   5.647 -0.8369 -0.0703  0.1968
   80MOL    C4330221   3.284   7.260   5.635  0.1312  0.4682  0.2175
   80MOL    C4430222   3.326   7.388   5.700  0.7473 -0.0481  0.0273
   80MOL    C4530223   3.204   7.421   5.792  0.0506 -0.1034  0.0761
   80MOL    C4630224   2.824   7.369   5.705  0.1928  0.3306  0.0370
   80MOL    H4730225   2.940   7.478   5.838  0.2190  0.4222 -1.8200
   80MOL    H4830226   3.071   7.466   5.647  1.0477  0.2688  0.1213
   80MOL    H4930227   3.093   7.229   5.548  1.4470  0.5135 -0.8738
   80MOL    H5030228   3.096   7.162   5.705  1.2946 -1.4152 -0.3541
   80MOL    H5130229   3.307   7.269   5.529 -3.1264  0.2632 -0.5639
   80MOL    H5230230   3.338   7.171   5.666 -0.6941 -0.2921 -0.5039
   80MOL    H5330231   3.413   7.367   5.762  1.0538  1.4882  0.1428
   80MOL    H5430232   3.349   7.465   5.627 -0.9272  0.3888 -0.0551
   80MOL    H5530233   3.210   7.361   5.883 -2.0720  1.2541  1.1641
   80MOL    H5630234   3.207   7.523   5.828 -0.2458 -0.3157  0.7197
   80MOL    H5730235   2.826   7.268   5.663  1.6882  0.2146  0.3591
   80MOL    H5830236   2.739   7.378   5.773 -1.8001 -1.1948 -2.1716
   80MOL    C5930237   2.804   7.479   5.597 -0.1629 -0.3369 -0.0848
   80MOL    C6030238   2.686   7.438   5.502  0.2812 -0.9482  0.5540
   80MOL    C6130239   2.548   7.396   5.556  0.7343  0.5769  0.6009
   80MOL    C6230240   2.494   7.282   5.464  0.1711 -0.2410  0.0003
   80MOL    C6330241   2.589   7.284   5.351 -0.6835 -0.2047 -0.9232
   80MOL    C6430242   2.720   7.323   5.415  0.2564  0.5638  0.2579
   80MOL    C6530243   2.771   7.618   5.662  0.3749 -0.0325  0.0705
   80MOL    H6630244   2.894   7.483   5.537 -1.5912 -0.3527 -2.2805
   80MOL    H6730245   2.662   7.524   5.439 -1.1769 -2.0908 -0.4857
   80MOL    H6830246   2.471   7.472   5.541 -0.9038 -0.9919  0.8426
   80MOL    H6930247   2.556   7.373   5.662  0.0026  0.1591  0.5695
   80MOL    H7030248   2.394   7.300   5.425 -0.9246  1.0385  3.1729
   80MOL    H7130249   2.494   7.184   5.511  1.3392 -0.3610 -0.2450
   80MOL    H7230250   2.557   7.362   5.282 -0.0323 -0.3843 -1.4348
   80MOL    H7330251   2.586   7.197   5.286  1.8556 -0.3551 -0.8998
   80MOL    H7430252   2.769   7.249   5.479  1.4552  2.8704  2.1153
   80MOL    H7530253   2.798   7.361   5.350 -1.4329  1.5058 -1.2589
   80MOL    H7630254   2.849   7.627   5.737  0.3441  0.3223  0.0610
   80MOL    H7730255   2.675   7.620   5.714  0.6500 -1.2361  0.6380
   80MOL    C7830256   2.782   0.056   5.572  0.1965 -0.2530 -0.2762
   80MOL    C7930257   2.704   0.174   5.630  0.4618 -0.1150 -0.1218
   80MOL    C8030258   2.740   0.205   5.781 -0.8431 -0.2519 -0.2350
   80MOL    C8130259   2.618   0.154   5.864 -0.2887 -0.8364 -0.7200
   80MOL    C8230260   2.497   0.170   5.769  1.1020 -0.3535 -0.7146
   80MOL    C8330261   2.548   0.151   5.625 -0.2148 -0.5565 -0.4848
   80MOL    C8430262   2.937   0.086   5.538  0.4349  0.1942 -0.4983
   80MOL    H8530263   2.737   0.026   5.478  0.3340 -2.2535  0.2748
   80MOL    H8630264   2.729   0.263   5.572  0.5769  0.5019  0.8616
   80MOL    H8730265   2.770   0.308   5.798 -0.5442 -0.6477  1.7223
   80MOL    H8830266   2.833   0.155   5.809 -0.8675 -1.8324 -2.7700
   80MOL    H8930267   2.601   0.215   5.953 -1.7312  0.1759 -1.6597
   80MOL    H9030268   2.615   0.051   5.898  1.8549 -0.2539  1.3568
   80MOL    H9130269   2.423   0.094   5.797 -1.5139  2.9986  1.9011
   80MOL    H9230270   2.441   0.263   5.778 -2.8616 -2.7846  1.6103
   80MOL    H9330271   2.516   0.052   5.592  0.2186 -1.2975  1.2426
   80MOL    H9430272   2.512   0.224   5.553  0.3562 -1.0341 -1.2578
   80MOL    H9530273   2.996   7.684   5.539 -1.1949 -0.8567 -0.4349
   80MOL    H9630274   2.993   0.147   5.609  1.4833  0.1383 -1.2664
   80MOL    C9730275   2.974   0.143   5.397 -0.6599  0.3655 -0.2886
   80MOL    C9830276   2.923   0.282   5.377  0.5106 -0.6688  0.0335
   80MOL    C9930277   2.945   0.398   5.485 -0.1869  0.0405 -0.3091
   80MOL   C10030278   3.021   0.513   5.404 -0.0107  0.0690 -0.0689
   80MOL   C10130279   2.958   0.505   5.261  0.1900  0.1587 -0.3648
   80MOL   C10230280   2.969   0.352   5.245  0.1728 -0.7160  0.4763
   80MOL   C10330281   2.948   0.050   5.284  0.2302  0.2618 -0.2381
   80MOL   H10430282   3.082   0.155   5.403 -0.6444 -0.7424  2.4767
   80MOL   H10530283   2.815   0.269   5.374  0.5431 -1.2087  0.9435
   80MOL   H10630284   2.855   0.439   5.531  0.5168  1.2159  0.0392
   80MOL   H10730285   3.008   0.360   5.565 -1.9543 -1.6099  0.3361
   80MOL   H10830286   3.128   0.498   5.413  0.0256 -0.8469 -1.7255
   80MOL   H10930287   3.020   0.608   5.458  0.0276 -0.2410  0.4701
   80MOL   H11030288   3.007   0.554   5.177 -0.4626  2.7754  0.7195
   80MOL   H11130289   2.851   0.526   5.270 -0.3111 -2.4428  0.1878
   80MOL   H11230290   2.919   0.319   5.154  1.3590 -1.1223 -0.0449
   80MOL   H11330291   3.076   0.330   5.232 -0.3007 -4.1281  1.7045
   80MOL   H11430292   2.967   7.638   5.318  1.0022  0.7977  0.9529
   80MOL   H11530293   2.842   0.037   5.265  0.9235 -2.7151 -2.5169
   80MOL   C11630294   3.030   0.057   5.150 -0.3487  0.2377 -0.4495
   80MOL   C11730295   3.185   0.056   5.167 -0.2932 -0.3557 -0.3491
   80MOL   C11830296   3.258   7.620   5.200 -0.5796 -0.0540 -0.2536
   80MOL   C11930297   3.405   7.663   5.179 -0.5602  0.6471 -0.2982
   80MOL   C12030298   3.401   0.089   5.081  0.0465 -0.6292 -0.1066
   80MOL   C12130299   3.255   0.119   5.049  0.6841  0.6290 -0.1798
   80MOL   C12230300   2.981   7.642   5.037  0.8626 -0.0979 -0.6642
   80MOL   H12330301   3.016   0.157   5.108  0.3451  1.9177  3.1617
   80MOL   H12430302   3.203   0.122   5.252  0.7831  1.5363 -2.0133
   80MOL   H12530303   3.238   7.575   5.298  0.8267  0.5874  0.3529
   80MOL   H12630304   3.226   7.538   5.136 -1.9856  0.5155 -0.3010
   80MOL   H12730305   3.464   7.585   5.131 -2.8432 -1.0022 -0.5260
   80MOL   H12830306   3.458   7.687   5.271 -2.2430 -1.7198  1.3553
   80MOL   H12930307   3.463   0.073   4.993 -0.0614  1.5226 -0.6063
   80MOL   H13030308   3.444   0.179   5.126 -0.6758 -1.8808  3.2634
   80MOL   H13130309   3.228   0.224   5.036 -0.1572  0.3935 -0.3966
   80MOL   H13230310   3.234   0.068   4.955  0.0621 -1.0773  0.8598
   80MOL   H13330311   2.998   7.544   5.083 -1.4873 -0.3583 -0.2878
   80MOL   H13430312   3.050   7.640   4.953  0.1559 -0.7379 -1.2371
   80MOL   C13530313   2.830   7.662   4.987 -0.3661  0.4011  0.2489
   80MOL   C13630314   2.774   7.524   4.947  0.2957 -0.3105 -0.0015
   80MOL   C13730315   2.759   7.428   5.062 -0.8980 -1.1977 -0.7989
   80MOL   C13830316   2.804   7.290   5.022 -0.4121 -0.0924  0.2452
   80MOL   C13930317   2.909   7.315   4.913 -0.4505  1.2475  0.1846
   80MOL   C14030318   2.857   7.444   4.843 -0.2551 -0.0485  0.6152
   80MOL   C14130319   2.819   0.078   4.873  0.3991  0.6554  0.4326
   80MOL   H14230320   2.774   0.005   5.074  0.0494  2.8703 -0.3645
   80MOL   H14330321   2.678   7.533   4.896 -0.3484 -0.3300  1.2101
   80MOL   H14430322   2.818   7.460   5.147 -4.3631  0.0819  1.2000
   80MOL   H14530323   2.657   7.420   5.100  0.2120 -0.2980  2.5238
   80MOL   H14630324   2.715   7.238   4.989 -0.3488  1.2453 -2.1787
   80MOL   H14730325   2.852   7.242   5.108 -2.2958 -2.8291 -0.1811
   80MOL   H14830326   2.917   7.237   4.838  2.2567  1.4048  0.2842
   80MOL   H14930327   3.009   7.339   4.949 -0.7762  0.4631  1.6674
   80MOL   H15030328   2.942   7.504   4.809 -0.5183 -1.1405 -2.0767
   80MOL   H15130329   2.808   7.421   4.749 -0.3870 -1.3957  1.0028
   80MOL   H15230330   2.793   0.033   4.777 -1.0754 -0.3310  1.2727
   80MOL   H15330331   2.917   0.115   4.846  0.8924 -0.4418  0.6769
   80MOL   C15430332   2.731   0.206   4.905  0.1606 -0.0259  0.1837
   80MOL   C15530333   2.782   0.321   4.808 -0.6842  0.9690 -0.0562
   80MOL   C15630334   2.927   0.377   4.834 -0.2141  0.3412  0.0609
   80MOL   C15730335   2.936   0.497   4.737  0.0810  0.2420 -0.1508
   80MOL   C15830336   2.793   0.539   4.704  0.0385 -0.4179 -0.4267
   80MOL   C15930337   2.706   0.449   4.792  0.4813 -0.1108 -0.1157
   80MOL   C16030338   2.582   0.177   4.886 -0.2954 -0.1733  0.0876
   80MOL   H16130339   2.750   0.230   5.010 -2.0652  0.9143  0.4053
   80MOL   H16230340   2.771   0.277   4.709 -1.3762  0.2166  0.3501
   80MOL   H16330341   2.943   0.400   4.939  0.2585 -1.9109  0.4934
   80MOL   H16430342   3.012   0.311   4.815 -1.4154 -0.9520 -0.8841
   80MOL   H16530343   2.992   0.582   4.776  0.1238 -1.1062  2.9062
   80MOL   H16630344   2.978   0.465   4.642  0.5602 -2.1117  0.8291
   80MOL   H16730345   2.785   0.529   4.596  3.2168 -0.2135 -0.7214
   80MOL   H16830346   2.774   0.641   4.736 -2.3043 -0.7410 -0.6852
   80MOL   H16930347   2.607   0.442   4.746 -0.4936  2.1195  1.5729
   80MOL   H17030348   2.686   0.495   4.889 -2.0338 -0.6035 -0.3535
   80MOL   H17130349   2.577   0.072   4.914 -0.0683 -0.0868  0.4480
   80MOL   H17230350   2.560   0.187   4.780 -0.0307 -0.9999 -0.0455
   80MOL   C17330351   2.471   0.247   4.974 -0.8881 -0.2694  0.6346
   80MOL   C17430352   2.428   0.168   5.098  0.1637  0.3913 -0.3794
   80MOL   C17530353   2.530   0.144   5.211 -0.0304 -0.7324  0.6123
   80MOL   C17630354   2.508   0.003   5.260 -0.2477  0.1133 -0.2043
   80MOL   C17730355   2.381   7.635   5.186 -0.8999  0.4219 -0.3196
   80MOL   C17830356   2.361   0.038   5.068 -0.4583  0.3333 -0.1560
   80MOL   C17930357   2.358   0.308   4.888 -0.3285  0.5137  0.1437
   80MOL   H18030358   2.514   0.337   5.018  0.8890 -0.2274 -1.1138
   80MOL   H18130359   2.351   0.232   5.140 -1.0174 -0.3342 -1.4050
   80MOL   H18230360   2.523   0.228   5.280 -0.5171  1.1907 -1.7127
   80MOL   H18330361   2.632   0.154   5.172 -0.6059  1.7017 -0.3540
   80MOL   H18430362   2.597   7.633   5.236 -1.2476 -1.4105 -0.2018
   80MOL   H18530363   2.503   0.000   5.369  1.4794 -1.6658 -0.1383
   80MOL   H18630364   2.287   7.643   5.241  0.0968 -1.3027  1.6948
   80MOL   H18730365   2.403   7.531   5.162 -2.7212 -0.1535  0.3868
   80MOL   H18830366   2.399   7.682   4.977  0.0622  1.2504 -0.4064
   80MOL   H18930367   2.252   0.048   5.061 -0.4300  0.1803 -0.8550
   80MOL   H19030368   2.402   0.349   4.798  1.3183  0.3567  0.8662
   80MOL   H19130369   2.302   0.221   4.853 -1.5132  1.0532  0.6700
   80MOL   C19230370   2.245   0.404   4.955 -0.2468  0.8205  0.2219
   80MOL   C19330371   2.106   0.387   4.894 -0.3677 -0.2828  0.0732
   80MOL   C19430372   2.034   0.252   4.927 -0.2760 -0.4975 -0.2328
   80MOL   C19530373   1.941   0.227   4.810  0.4714  0.1257 -0.1584
   80MOL   C19630374   1.975   0.317   4.697  0.2944  0.4005  0.4451
   80MOL   C19730375   2.100   0.389   4.731  0.0810 -0.0715 -0.2687
   80MOL   C19830376   2.291   0.550   4.934  0.1248  0.1580 -0.0255
   80MOL   H19930377   2.233   0.377   5.060 -1.4735 -2.4723 -0.7307
   80MOL   H20030378   2.040   0.464   4.932  1.6446  1.4720  0.0998
   80MOL   H20130379   1.976   0.275   5.016  0.6653  3.6103 -0.5897
   80MOL   H20230380   2.119   0.185   4.945  2.3625  3.5532  3.3200
   80MOL   H20330381   1.940   0.124   4.774  1.2701 -0.0148  0.2053
   80MOL   H20430382   1.838   0.253   4.835  0.5635 -0.4442  0.8417
   80MOL   H20530383   1.891   0.386   4.701  1.2526  1.5423  1.1986
   80MOL   H20630384   1.962   0.270   4.600 -1.2276  0.1184  0.7776
   80MOL   H20730385   2.106   0.490   4.691 -1.7607 -0.2018 -0.8992
   80MOL   H20830386   2.187   0.333   4.698  0.3934 -1.3384  2.5471
   80MOL   H20930387   2.396   0.560   4.959 -0.0424  0.5143  0.5297
   80MOL   H21030388   2.294   0.566   4.826 -0.1681 -0.0910 -0.0726
   80MOL   C21130389   2.226   0.660   5.029  0.2155 -0.2678  0.3239
   80MOL   C21230390   2.270   0.641   5.176  0.0968 -0.2776  0.2844
   80MOL   C21330391   2.422   0.671   5.202 -0.6543 -0.3290  0.1264
   80MOL   C21430392   2.438   0.691   5.348  0.0225  0.0886 -0.4948
   80MOL   C21530393   2.298   0.735   5.400  0.4617 -0.5890 -0.2886
   80MOL   C21630394   2.196   0.733   5.282 -0.5220 -0.1740 -0.2858
   80MOL   C21730395   2.256   0.803   4.968 -0.2578 -0.3290 -0.0009
   80MOL   H21830396   2.118   0.646   5.038  0.5680 -3.6357  0.2669
   80MOL   H21930397   2.257   0.536   5.198  1.9525 -0.8204 -1.0690
   80MOL   H22030398   2.493   0.597   5.167 -0.8533  0.7921 -2.8109
   80MOL   H22130399   2.457   0.764   5.156 -3.9537 -0.1104 -2.1636
   80MOL   H22230400   2.463   0.594   5.391 -2.6861  0.4191  1.9888
   80MOL   H22330401   2.524   0.754   5.372  0.9958 -2.6308  3.5693
   80MOL   H22430402   2.302   0.829   5.456 -0.1554 -0.8244  0.1588
   80MOL   H22530403   2.278   0.652   5.468 -0.0901  0.2573  0.6191
   80MOL   H22630404   2.098   0.700   5.317 -0.9141  1.9100  0.6537
   80MOL   H22730405   2.179   0.832   5.241 -0.6684  0.0675  0.3621
   80MOL   H22830406   2.317   0.795   4.878 -1.5465 -0.3730 -0.8891
   80MOL   H22930407   2.314   0.865   5.037 -1.5318 -0.9536  1.6772
   80MOL   C23030408   2.118   0.872   4.928  0.1659 -0.1511 -0.2201
   80MOL   C23130409   2.051   0.802   4.805  0.3805 -0.4394 -1.0515
   80MOL   C23230410   1.898   0.805   4.794  0.4879  0.2679 -0.1245
   80MOL   C23330411   1.865   0.738   4.660  0.1730  0.0937  0.4815
   80MOL   C23430412   1.989   0.768   4.572 -0.1452 -0.1611 -0.7123
   80MOL   C23530413   2.094   0.839   4.664 -0.1408 -0.4998  0.4138
   80MOL   C23630414   2.127   1.025   4.908  0.2734  0.1180  0.7292
   80MOL   H23730415   2.050   0.850   5.010  1.8415 -0.4484  1.1165
   80MOL   H23830416   2.077   0.696   4.816  0.4394 -0.4523 -1.2950
   80MOL   H23930417   1.851   0.747   4.874  0.7526  0.6630  0.3098
   80MOL   H24030418   1.863   0.908   4.800 -1.2636 -0.3288  0.1600
   80MOL   H24130419   1.856   0.629   4.668  0.6932 -0.0513 -0.8951
   80MOL   H24230420   1.780   0.784   4.610 -0.0995 -0.6307  0.2754
   80MOL   H24330421   1.966   0.829   4.484 -1.6029  0.2431 -0.0684
   80MOL   H24430422   2.029   0.674   4.535 -1.1960 -1.1917  0.7076
   80MOL   H24530423   2.093   0.946   4.644 -0.9830 -1.0253 -2.4856
   80MOL   H24630424   2.189   0.792   4.641  0.0614  0.0035  0.2176
   80MOL   H24730425   2.041   1.053   4.847  0.5923 -2.4661 -0.9959
   80MOL   H24830426   2.211   1.044   4.842 -0.0644 -0.6442  0.0805
   80MOL   C24930427   2.131   1.096   5.055  0.1009 -0.1539  0.0561
   80MOL   C25030428   1.986   1.138   5.104 -0.1590  0.5812 -0.3495
   80MOL   C25130429   1.979   1.208   5.243 -0.1273  0.3505 -0.7860
   80MOL   C25230430   1.837   1.183   5.285  0.3339  0.6867 -0.1724
   80MOL   C25330431   1.777   1.080   5.193  0.1861  0.9556 -0.3092
   80MOL   C25430432   1.889   1.022   5.111 -0.1035 -0.1202  0.1460
   80MOL   C25530433   2.215   1.221   5.036 -0.4948 -0.3081  0.1871
   80MOL   H25630434   2.178   1.039   5.134 -0.5530  0.2384  0.7375
   80MOL   H25730435   1.946   1.210   5.031 -2.3665 -1.4603 -1.2169
   80MOL   H25830436   2.004   1.313   5.230  1.4126  0.2187  0.8067
   80MOL   H25930437   2.053   1.166   5.311  1.0478 -0.1539 -2.3224
   80MOL   H26030438   1.773   1.271   5.285  1.2852  1.4008  0.6507
   80MOL   H26130439   1.841   1.136   5.383 -1.1667  1.1494  0.1197
   80MOL   H26230440   1.711   1.138   5.128 -1.1415 -0.2725 -0.0803
   80MOL   H26330441   1.710   1.013   5.246 -1.8709  2.2574 -1.1900
   80MOL   H26430442   1.855   0.991   5.013 -1.9406 -0.3735  0.8396
   80MOL   H26530443   1.935   0.936   5.162  0.3417  0.3314  0.5130
   80MOL   H26630444   2.171   1.288   4.962  0.7735 -0.1426 -0.4416
   80MOL   H26730445   2.206   1.272   5.131 -2.4884  0.7120 -0.5124
   80MOL   C26830446   2.370   1.203   5.005  0.1920  0.1184 -0.4088
   80MOL   C26930447   2.470   1.224   5.122 -0.5112 -0.3580  0.2671
   80MOL   C27030448   2.437   1.150   5.250 -0.0345 -0.0771 -0.4018
   80MOL   C27130449   2.481   1.250   5.361 -0.0054  0.2371  0.2508
   80MOL   C27230450   2.563   1.357   5.301 -0.1430 -0.3505  0.0605
   80MOL   C27330451   2.503   1.369   5.163  0.8587  0.0445  0.1436
   80MOL   C27430452   2.415   1.293   4.878 -0.0256 -0.1984 -0.7365
   80MOL   H27530453   2.390   1.099   4.975 -0.1202  0.0108 -0.2415
   80MOL   H27630454   2.565   1.182   5.090 -1.0219 -1.0629 -0.3630
   80MOL   H27730455   2.330   1.131   5.262 -0.0887 -0.0296 -0.8187
   80MOL   H27830456   2.492   1.057   5.262 -0.6263 -0.5152 -1.0613
   80MOL   H27930457   2.389   1.295   5.400 -0.3487  0.0107 -0.2950
   80MOL   H28030458   2.534   1.197   5.440 -0.4801 -2.0881 -0.9437
   80MOL   H28130459   2.667   1.325   5.295  0.0435  0.4029 -0.7042
   80MOL   H28230460   2.560   1.450   5.359 -0.4746 -1.2966  1.5917
   80MOL   H28330461   2.567   1.431   5.100  0.0368  0.9233  0.1722
   80MOL   H28430462   2.411   1.427   5.169 -0.1414 -1.5653  0.9545
   80MOL   H28530463   2.422   1.392   4.921 -0.5239 -0.3646 -0.2679
   80MOL   H28630464   2.339   1.303   4.800 -1.3345  1.1149  0.7026
   80MOL   C28730465   2.552   1.260   4.817 -0.0783 -0.6557  0.6278
   80MOL   C28830466   2.544   1.172   4.686  0.1423  0.2104  0.0875
   80MOL   C28930467   2.680   1.124   4.639 -0.6504  1.6449 -0.3409
   80MOL   C29030468   2.656   1.026   4.525  0.3358  0.3111  0.0886
   80MOL   C29130469   2.536   0.948   4.584 -0.2581 -0.5522  0.5857
   80MOL   C29230470   2.474   1.041   4.696  0.2822  0.5964  0.4756
   80MOL   C29330471   2.645   1.389   4.789 -0.7201  0.7277 -0.0507
   80MOL   H29430472   2.602   1.199   4.892  1.0136  1.6031  1.7916
   80MOL   H29530473   2.492   1.222   4.604 -1.0086  1.6725  1.6887
   80MOL   H29630474   2.742   1.208   4.606  1.0545 -0.0600 -1.5320
   80MOL   H29730475   2.741   1.085   4.720 -0.2958  1.9571 -0.4571
   80MOL   H29830476   2.641   1.067   4.426 -3.7968 -0.0856  0.4444
   80MOL   H29930477   2.750   0.972   4.510 -0.5764 -1.0940 -0.6571
   80MOL   H30030478   2.545   0.843   4.612 -1.0763 -0.5860  0.7184
   80MOL   H30130479   2.459   0.940   4.507  0.0731 -0.7402  0.2696
   80MOL   H30230480   2.497   0.998   4.794  1.5551 -0.2591 -0.1727
   80MOL   H30330481   2.369   1.068   4.684  0.0882 -0.0411  0.7139
   80MOL   H30430482   2.746   1.354   4.771 -0.7704  0.4706  0.1582
   80MOL   H30530483   2.659   1.439   4.884 -0.3626 -1.6537  1.1912
   80MOL   C30630484   2.615   1.498   4.682  0.4060 -0.2454 -0.3455
   80MOL   C30730485   2.487   1.577   4.691 -0.0878  0.3289 -0.4835
   80MOL   C30830486   2.475   1.681   4.801 -0.9122  0.1502 -0.1307
   80MOL   C30930487   2.360   1.766   4.759 -0.5113 -0.5645  0.9620
   80MOL   C31030488   2.387   1.780   4.611  0.0052  0.5236 -1.0584
   80MOL   C31130489   2.447   1.647   4.569 -0.2338 -0.3574 -0.5032
   80MOL   C31230490   2.742   1.595   4.672  0.3918  0.4562  0.5517
   80MOL   H31330491   2.611   1.441   4.589  0.4919  2.5679 -2.1366
   80MOL   H31430492   2.413   1.500   4.715  1.4363 -0.2240  2.7607
   80MOL   H31530493   2.565   1.741   4.805 -1.7208  1.4685 -1.2120
   80MOL   H31630494   2.448   1.631   4.894  1.5345  0.9258  1.0368
   80MOL   H31730495   2.260   1.729   4.783 -1.2776  1.5491  1.1784
   80MOL   H31830496   2.359   1.866   4.803  2.8486  0.1363 -0.3880
   80MOL   H31930497   2.447   1.869   4.589  1.5550 -1.0797 -3.5077
   80MOL   H32030498   2.295   1.799   4.554 -0.5420  0.8693 -0.0673
   80MOL   H32130499   2.370   1.587   4.521 -0.0882 -1.3016  0.4433
   80MOL   H32230500   2.525   1.652   4.493  0.7901  0.7051  0.5877
   80MOL   H32330501   2.773   1.642   4.766  2.1464  0.7512 -0.1600
   80MOL   H32430502   2.700   1.673   4.610 -0.0859 -0.1701  0.0773
   80MOL   C32530503   2.871   1.540   4.607  0.1093  0.1238 -0.0961
   80MOL   C32630504   2.842   1.462   4.474 -1.2884 -0.7288  0.1745
   80MOL   C32730505   2.970   1.396   4.421 -0.4277 -0.1998  0.1996
   80MOL   C32830506   2.935   1.361   4.275  0.4537 -0.0907  1.3359
   80MOL   C32930507   2.852   1.485   4.227 -1.2318  0.4802 -0.4380
   80MOL   C33030508   2.783   1.539   4.355 -0.1059 -0.2567 -0.1137
   80MOL   C33130509   2.964   1.463   4.701  0.3972 -0.2856 -0.1309
   80MOL   H33230510   2.935   1.623   4.576  1.9437 -1.4369 -0.5889
   80MOL   H33330511   2.780   1.375   4.498 -0.8060 -1.3038 -0.6291
   80MOL   H33430512   3.012   1.309   4.472  0.1928 -0.9396 -1.5343
   80MOL   H33530513   3.050   1.470   4.417 -0.3479 -0.2693  0.5107
   80MOL   H33630514   2.868   1.275   4.272 -0.4206  0.6293 -0.4845
   80MOL   H33730515   3.024   1.344   4.216 -0.4378  1.8787 -0.6380
   80MOL   H33830516   2.782   1.459   4.147 -1.4994  0.8288 -0.3160
   80MOL   H33930517   2.914   1.570   4.202 -0.9715  0.5632  0.4659
   80MOL   H34030518   2.677   1.513   4.356 -0.2597  0.3989  2.1343
   80MOL   H34130519   2.800   1.646   4.366  0.6326 -0.3284 -0.4880
   80MOL   H34230520   3.067   1.478   4.668  0.1512  0.7041 -0.4790
   80MOL   H34330521   2.945   1.356   4.696 -0.5618 -0.1293  0.1401
   80MOL   C34430522   2.986   1.507   4.850  0.2164  0.1164 -0.2569
   80MOL   C34530523   3.038   1.649   4.877 -0.1498 -0.2342  0.4565
   80MOL   C34630524   3.189   1.670   4.859  0.6125  0.3900 -0.9964
   80MOL   C34730525   3.206   1.810   4.906 -0.5187 -0.0390 -0.4009
   80MOL   C34830526   3.107   1.823   5.028  0.1492 -0.3416 -0.3169
   80MOL   C34930527   3.011   1.710   5.013  0.5113 -0.7269 -0.4543
   80MOL   C35030528   3.070   1.400   4.915 -0.2667  0.9280 -0.3659
   80MOL   H35130529   2.890   1.509   4.903  0.4365  0.7097  0.1100
   80MOL   H35230530   2.980   1.709   4.807  0.5237 -2.8240 -2.4331
   80MOL   H35330531   3.218   1.660   4.754  3.0884 -0.0318 -0.2954
   80MOL   H35430532   3.252   1.601   4.915 -0.6308  1.0841  1.2940
   80MOL   H35530533   3.307   1.825   4.944 -0.4399  1.1160 -1.0525
   80MOL   H35630534   3.183   1.893   4.840 -2.1854 -1.7386 -2.0507
   80MOL   H35730535   3.057   1.918   5.010 -3.2381 -2.2564 -1.3714
   80MOL   H35830536   3.166   1.823   5.120  0.0560  1.0970 -0.2536
   80MOL   H35930537   3.021   1.630   5.086 -0.7858  0.5925  1.2098
   80MOL   H36030538   2.911   1.750   5.031  1.2985  1.4292 -0.7409
   80MOL   H36130539   3.130   1.447   4.993 -1.2253 -0.7403  1.4103
   80MOL   H36230540   3.141   1.365   4.840  1.1343  0.8572  0.9616
   80MOL   C36330541   2.992   1.278   4.981  0.0068  0.4668  0.2719
   80MOL   C36430542   3.071   1.145   4.989  0.2300  0.1847 -0.0724
   80MOL   C36530543   3.118   1.086   4.852 -0.4482  0.3554  0.1272
   80MOL   C36630544   3.055   0.947   4.835  0.2248  0.4720  0.1926
   80MOL   C36730545   3.031   0.904   4.979 -1.1939  0.3181  0.6395
   80MOL   C36830546   2.977   1.033   5.035  0.3056 -0.2005  0.2744
   80MOL   C36930547   2.934   1.314   5.118  0.3215  0.3414 -0.0499
   80MOL   H37030548   2.899   1.257   4.927 -0.9218  0.9918  1.6341
   80MOL   H37130549   3.153   1.154   5.061  0.7591  0.1998 -0.6781
   80MOL   H37230550   3.100   1.157   4.771 -0.1246  0.8475  0.4797
   80MOL   H37330551   3.226   1.077   4.863 -0.4138  0.8062  0.1752
   80MOL   H37430552   2.962   0.963   4.781  2.0254  2.3146 -2.5049
   80MOL   H37530553   3.119   0.879   4.778 -0.0332 -1.0772  1.6905
   80MOL   H37630554   2.953   0.832   5.002 -0.1742 -0.6658  1.0602
   80MOL   H37730555   3.126   0.882   5.029 -0.1517 -0.1111 -1.4908
   80MOL   H37830556   2.980   1.036   5.144  1.5145 -1.5071  0.2999
   80MOL   H37930557   2.872   1.050   5.009  0.7383  0.0434 -1.3449
   80MOL   H38030558   2.870   1.236   5.159  0.4349 -0.1122 -0.7322
   80MOL   H38130559   2.860   1.393   5.113 -0.3563 -0.3437 -0.9631
   80MOL   H38230560   3.013   1.342   5.188  0.6110  0.8949 -0.5882
   81MOL     C130561   2.430   1.729   1.225 -0.2438 -0.3035 -0.1499
   81MOL     C230562   2.527   1.779   1.338 -1.4624  0.5412  0.0750
   81MOL     C330563   2.534   1.930   1.345 -0.0367  0.1661 -0.7338
   81MOL     C430564   2.657   1.965   1.429 -0.1310 -0.3977 -0.7084
   81MOL     C530565   2.735   1.835   1.449 -0.6565  0.3917  0.5277
   81MOL     C630566   2.681   1.744   1.335 -0.9455  0.6995  0.0514
   81MOL     C730567   2.411   1.570   1.224 -0.1996 -0.7858 -0.1269
   81MOL     H830568   2.333   1.771   1.250  1.2398  1.6220  2.5839
   81MOL     H930569   2.486   1.747   1.434 -0.3795 -0.4595  0.2211
   81MOL    H1030570   2.558   1.955   1.242  3.3033 -2.6221 -0.7212
   81MOL    H1130571   2.440   1.977   1.375 -0.6428 -0.0361 -2.3004
   81MOL    H1230572   2.706   2.049   1.381  2.6616  0.2538  2.9794
   81MOL    H1330573   2.621   2.007   1.524  2.6152 -1.1865  0.7272
   81MOL    H1430574   2.844   1.848   1.449 -0.1995 -2.9514 -0.7769
   81MOL    H1530575   2.708   1.794   1.546  0.8306  2.9051  2.0429
   81MOL    H1630576   2.705   1.639   1.351 -2.6435  0.4086  0.8010
   81MOL    H1730577   2.727   1.782   1.243  1.1714  1.1499  1.2677
   81MOL    H1830578   2.505   1.515   1.216  0.1798 -0.3829  1.3824
   81MOL    H1930579   2.382   1.537   1.323  2.9581  0.9186  1.4585
   81MOL    H2030580   2.466   1.768   1.129  1.1695  2.2178  1.3596
   81MOL    C2130581   2.306   1.518   1.125 -0.3779  0.6683  0.3166
   81MOL    C2230582   2.162   1.567   1.157  0.3264  0.8664  0.0055
   81MOL    C2330583   2.120   1.544   1.302  0.2405  0.0345 -0.0285
   81MOL    C2430584   1.969   1.537   1.312  0.0433  0.6620  0.5000
   81MOL    C2530585   1.929   1.538   1.163 -0.6659  0.1598 -0.9231
   81MOL    C2630586   2.051   1.503   1.084  0.4362 -0.0108  0.4528
   81MOL    C2730587   2.347   1.549   0.976 -0.4285 -0.1371 -0.1758
   81MOL    H2830588   2.305   1.410   1.134 -0.1613  0.3766 -2.6400
   81MOL    H2930589   2.163   1.669   1.118 -1.2916  1.7850  2.2526
   81MOL    H3030590   2.150   1.623   1.371  0.5080  0.7852 -1.0104
   81MOL    H3130591   2.165   1.454   1.346 -0.6013 -0.2866  0.2019
   81MOL    H3230592   1.941   1.454   1.377 -1.3575  0.1390 -0.7634
   81MOL    H3330593   1.930   1.625   1.364  2.1322  1.7198  0.3393
   81MOL    H3430594   1.887   1.636   1.140 -1.4147  0.6829  2.4221
   81MOL    H3530595   1.846   1.468   1.152 -1.5471  1.0526 -0.0976
   81MOL    H3630596   2.023   1.546   0.988  0.0286 -1.1517  0.0625
   81MOL    H3730597   2.053   1.395   1.077 -3.0028 -0.1160  0.2401
   81MOL    H3830598   2.260   1.536   0.912  0.0273 -0.9176 -0.6566
   81MOL    H3930599   2.379   1.653   0.975 -1.1930  0.1108  1.0245
   81MOL    C4030600   2.465   1.462   0.914  0.8470  0.0299  0.1042
   81MOL    C4130601   2.418   1.319   0.872  0.0371 -0.5273  0.2007
   81MOL    C4230602   2.525   1.213   0.834 -0.0161 -0.0159  0.2682
   81MOL    C4330603   2.460   1.146   0.706  0.4300  0.4565 -0.0645
   81MOL    C4430604   2.320   1.193   0.687  0.5213  0.0455  0.0031
   81MOL    C4530605   2.306   1.318   0.759  0.4821  0.1265  0.3342
   81MOL    C4630606   2.538   1.528   0.788 -0.2867 -0.0179  0.1112
   81MOL    H4730607   2.534   1.438   0.995  1.0251  1.5623  0.4240
   81MOL    H4830608   2.365   1.285   0.962 -0.5640 -0.7653 -0.2384
   81MOL    H4930609   2.552   1.145   0.915 -0.0909 -1.3671 -0.8146
   81MOL    H5030610   2.616   1.256   0.793 -1.1656  1.4360 -0.8098
   81MOL    H5130611   2.481   1.039   0.711 -0.8627  0.1770 -0.4606
   81MOL    H5230612   2.515   1.186   0.621 -0.9778 -2.3278 -2.3862
   81MOL    H5330613   2.294   1.202   0.581 -0.9143 -1.9315  0.1421
   81MOL    H5430614   2.248   1.133   0.744  0.3801  0.0731 -0.1430
   81MOL    H5530615   2.329   1.396   0.686  1.1842 -0.8271 -0.4868
   81MOL    H5630616   2.208   1.336   0.802 -0.2364 -2.8278  0.0523
   81MOL    H5730617   2.608   1.462   0.735  0.9597  1.1428  0.2867
   81MOL    H5830618   2.463   1.559   0.714  0.5488  0.5307 -0.5208
   81MOL    C5930619   2.616   1.653   0.822  0.2836  0.9025 -0.3856
   81MOL    C6030620   2.761   1.626   0.853  0.2698  0.1021  0.0505
   81MOL    C6130621   2.791   1.522   0.958  0.8533  0.0485 -0.6479
   81MOL    C6230622   2.940   1.545   0.995  0.9480  0.3007 -0.5289
   81MOL    C6330623   2.968   1.686   0.954 -0.6784  0.1567 -0.1913
   81MOL    C6430624   2.842   1.746   0.900 -0.5311 -0.0986 -0.6499
   81MOL    C6530625   2.587   1.765   0.718  0.4147 -0.0068 -0.1585
   81MOL    H6630626   2.582   1.690   0.919 -1.0490 -0.3035 -0.3699
   81MOL    H6730627   2.804   1.601   0.756  0.5864  0.2991  0.1388
   81MOL    H6830628   2.781   1.420   0.921  2.3764 -1.2539  2.3401
   81MOL    H6930629   2.727   1.533   1.045 -0.3588  0.3997 -1.5680
   81MOL    H7030630   3.010   1.477   0.947  0.7398 -0.5381  0.3339
   81MOL    H7130631   2.959   1.537   1.102 -1.7472 -0.5719 -0.0776
   81MOL    H7230632   3.030   1.689   0.865 -0.3132 -1.3810  0.0028
   81MOL    H7330633   3.023   1.738   1.033 -1.0388  0.5653 -0.2071
   81MOL    H7430634   2.781   1.799   0.974  1.8256  3.8003 -1.3664
   81MOL    H7530635   2.864   1.817   0.821 -1.0100  1.3793  0.5118
   81MOL    H7630636   2.585   1.711   0.623 -0.7200 -0.4224  0.0904
   81MOL    H7730637   2.673   1.831   0.721  0.5099  0.1320 -3.8691
   81MOL    C7830638   2.451   1.835   0.739 -0.6587  0.1324  0.1619
   81MOL    C7930639   2.451   1.924   0.862  0.5088 -0.3596  0.0234
   81MOL    C8030640   2.313   1.972   0.910  0.3149 -0.3710  0.8398
   81MOL    C8130641   2.345   2.078   1.015  0.0548 -0.5381 -0.2119
   81MOL    C8230642   2.475   2.143   0.972 -0.1174 -0.3742 -0.2295
   81MOL    C8330643   2.528   2.057   0.848 -0.0504  0.2043  0.2507
   81MOL    C8430644   2.403   1.909   0.608  0.4658 -0.5119  1.0410
   81MOL    H8530645   2.372   1.764   0.762 -0.9021  0.4311  0.2513
   81MOL    H8630646   2.499   1.872   0.944  1.8658  1.8618  0.6729
   81MOL    H8730647   2.255   1.890   0.951  0.3352 -0.2871  1.0377
   81MOL    H8830648   2.258   2.026   0.833 -0.1550  1.0388  2.1526
   81MOL    H8930649   2.349   2.019   1.106 -0.0458 -0.5748 -0.2314
   81MOL    H9030650   2.260   2.147   1.015  2.9337  3.1727 -1.6690
   81MOL    H9130651   2.481   2.250   0.951 -0.4773 -0.3744 -0.3338
   81MOL    H9230652   2.543   2.134   1.056  0.3655  2.5699 -0.2457
   81MOL    H9330653   2.504   2.117   0.761 -1.6616 -0.9479 -0.1204
   81MOL    H9430654   2.637   2.053   0.855  0.2632  2.0704 -3.0507
   81MOL    H9530655   2.498   1.957   0.586 -1.1304  1.5411 -1.8306
   81MOL    H9630656   2.321   1.980   0.617 -1.4448 -2.4418 -0.5487
   81MOL    C9730657   2.376   1.811   0.486  0.3841  0.2536 -0.2337
   81MOL    C9830658   2.443   1.861   0.360 -0.6194 -0.1559 -0.2664
   81MOL    C9930659   2.405   2.003   0.317  0.3076 -0.1500 -0.6889
   81MOL   C10030660   2.534   2.056   0.247  0.6070  0.1439  0.1720
   81MOL   C10130661   2.638   1.943   0.254  0.5297 -0.1666 -0.6541
   81MOL   C10230662   2.593   1.848   0.361  0.1217  0.0984  0.1404
   81MOL   C10330663   2.225   1.791   0.469 -0.6507  0.2155 -0.5126
   81MOL   H10430664   2.426   1.716   0.503 -0.0558  0.0045 -0.3338
   81MOL   H10530665   2.409   1.805   0.273  0.2190  0.2966 -0.8989
   81MOL   H10630666   2.318   2.015   0.252 -0.2916  2.0820  0.4636
   81MOL   H10730667   2.386   2.072   0.400 -2.2964  0.7973 -2.0198
   81MOL   H10830668   2.569   2.145   0.298  1.8884  0.2212 -0.8246
   81MOL   H10930669   2.512   2.080   0.143  2.3241  2.5218  0.3247
   81MOL   H11030670   2.742   1.973   0.268  0.6123 -0.5350 -0.4762
   81MOL   H11130671   2.641   1.894   0.156  0.3652 -1.0920 -0.2007
   81MOL   H11230672   2.610   1.745   0.329 -2.5062 -0.3914  0.2417
   81MOL   H11330673   2.648   1.855   0.455  0.1695  0.2396  0.1021
   81MOL   H11430674   2.180   1.799   0.568 -0.0364 -0.0852 -0.2076
   81MOL   H11530675   2.192   1.883   0.421 -0.1896  0.4873 -0.3098
   81MOL   C11630676   2.191   1.663   0.403  0.7045 -0.4539  0.0053
   81MOL   C11730677   2.065   1.610   0.475 -0.0810 -0.0790  0.7125
   81MOL   C11830678   2.081   1.556   0.612  0.1516 -0.5617 -0.0176
   81MOL   C11930679   1.948   1.565   0.687 -0.0528 -0.2416 -0.2218
   81MOL   C12030680   1.857   1.637   0.590 -0.1101  0.3493  0.1213
   81MOL   C12130681   1.940   1.697   0.475 -1.0355  0.0306 -0.6871
   81MOL   C12230682   2.182   1.658   0.250  1.0553 -0.0862  0.1565
   81MOL   H12330683   2.256   1.580   0.430 -2.4271 -2.1742  2.5418
   81MOL   H12430684   2.024   1.522   0.426 -0.1386  0.3788 -0.0591
   81MOL   H12530685   2.122   1.458   0.636 -1.3163 -1.0065  0.7156
   81MOL   H12630686   2.155   1.615   0.667  0.2578 -0.6417 -0.0755
   81MOL   H12730687   1.966   1.630   0.772  2.3694  1.0616 -1.6652
   81MOL   H12830688   1.908   1.475   0.734 -0.7914  0.2705  0.1303
   81MOL   H12930689   1.798   1.711   0.645 -1.3104 -0.6512  0.2064
   81MOL   H13030690   1.800   1.564   0.532  1.3540 -0.6277 -0.1083
   81MOL   H13130691   1.897   1.717   0.376 -2.5200 -2.2706 -0.5438
   81MOL   H13230692   1.980   1.792   0.509  0.4882 -0.5862 -0.6960
   81MOL   H13330693   2.181   1.756   0.203 -1.7720  0.1430  0.5585
   81MOL   H13430694   2.090   1.610   0.215  0.8086  0.0772  0.5624
   81MOL   C13530695   2.296   1.563   0.187 -0.5474  0.2088 -0.0458
   81MOL   C13630696   2.317   1.601   0.032  0.6675  1.0388 -0.1760
   81MOL   C13730697   2.387   1.732   7.681 -0.3243  0.3970 -0.4472
   81MOL   C13830698   2.365   1.747   7.532 -0.2650 -0.7343 -0.4609
   81MOL   C13930699   2.261   1.640   7.488 -0.0871 -0.2283 -0.2134
   81MOL   C14030700   2.203   1.598   7.622  0.2662  0.6716 -0.7432
   81MOL   C14130701   2.261   1.409   0.205  0.9878  0.1486 -0.5516
   81MOL   H14230702   2.392   1.580   0.234 -0.3563 -1.1969  0.0867
   81MOL   H14330703   2.387   1.523   0.002 -0.9558 -1.3595  2.0600
   81MOL   H14430704   2.345   1.825   0.030 -1.3749 -0.7450  1.2012
   81MOL   H14530705   2.492   1.724   0.018 -0.3163 -0.7692 -0.8034
   81MOL   H14630706   2.458   1.738   7.475 -0.3925 -1.4161 -0.5660
   81MOL   H14730707   2.326   1.844   7.501  1.1085  0.4491  1.4203
   81MOL   H14830708   2.292   1.550   7.436 -1.0577 -1.0663  0.6328
   81MOL   H14930709   2.192   1.687   7.418 -1.9600 -0.5967  1.3417
   81MOL   H15030710   2.128   1.669   7.656 -0.8798 -1.4911  1.4721
   81MOL   H15130711   2.150   1.502   7.627 -2.5510  2.2590  1.3454
   81MOL   H15230712   2.170   1.393   0.148  0.2080  3.3229 -0.2982
   81MOL   H15330713   2.225   1.385   0.305  0.7373  1.8675 -0.2119
   81MOL   C15430714   2.361   1.301   0.166  0.3554  0.0396 -0.0179
   81MOL   C15530715   2.500   1.337   0.224  0.6233  0.0078 -0.4647
   81MOL   C15630716   2.608   1.232   0.188 -0.5051  0.2070 -0.5830
   81MOL   C15730717   2.712   1.266   0.291 -0.4247 -0.1689 -0.5076
   81MOL   C15830718   2.653   1.332   0.412  0.4808 -0.1090 -0.8478
   81MOL   C15930719   2.505   1.337   0.378  0.5552 -0.2939 -0.0707
   81MOL   C16030720   2.301   1.159   0.209  0.4857 -0.4784 -0.3906
   81MOL   H16130721   2.361   1.289   0.058 -1.7278  0.1330 -0.0517
   81MOL   H16230722   2.537   1.427   0.176  0.7957  0.3600  0.3421
   81MOL   H16330723   2.587   1.125   0.201  0.3684  0.1812  0.6507
   81MOL   H16430724   2.645   1.238   0.085 -0.6920  0.0698 -0.6615
   81MOL   H16530725   2.741   1.166   0.324 -2.9834 -1.0311 -0.7156
   81MOL   H16630726   2.795   1.321   0.247 -1.5608  1.3747 -0.7750
   81MOL   H16730727   2.692   1.433   0.427 -1.2863  0.2935  1.1738
   81MOL   H16830728   2.668   1.266   0.497 -0.7778  0.2617 -0.3363
   81MOL   H16930729   2.447   1.419   0.419 -0.7625 -0.3560 -1.7667
   81MOL   H17030730   2.457   1.247   0.414 -1.2606  0.1995 -1.2182
   81MOL   H17130731   2.317   1.139   0.315  0.3180 -1.0980 -0.4802
   81MOL   H17230732   2.362   1.083   0.160  3.8300  0.3055  2.3029
   81MOL   C17330733   2.155   1.126   0.169  0.3659  0.5121  0.1939
   81MOL   C17430734   2.101   0.991   0.227 -0.4414 -0.6469  0.0295
   81MOL   C17530735   2.092   0.975   0.378  0.3203 -0.1048  0.3911
   81MOL   C17630736   2.072   0.818   0.392  0.3582 -0.7979  0.4753
   81MOL   C17730737   2.102   0.755   0.255 -0.4434 -0.1623 -0.2018
   81MOL   C17830738   2.168   0.864   0.175  0.5433 -0.1996  0.4362
   81MOL   C17930739   2.132   1.144   0.017  0.5183 -0.4655 -0.3205
   81MOL   H18030740   2.099   1.206   0.218 -0.7224  1.6329 -2.7711
   81MOL   H18130741   1.999   0.972   0.193 -0.7119  1.6888 -0.4948
   81MOL   H18230742   2.007   1.030   0.420  0.7010  0.3611  0.5538
   81MOL   H18330743   2.182   1.000   0.434 -0.7694  2.2842  1.1207
   81MOL   H18430744   2.130   0.776   0.475  0.8405 -0.3678  0.3559
   81MOL   H18530745   1.969   0.785   0.409  0.3649 -1.5986 -0.9688
   81MOL   H18630746   2.008   0.729   0.206 -0.1894  0.7129 -1.1907
   81MOL   H18730747   2.159   0.663   0.258 -0.5238 -0.1989  0.1433
   81MOL   H18830748   2.275   0.876   0.194  0.5587  2.1956 -1.0541
   81MOL   H18930749   2.156   0.853   0.067  0.8311  1.5877  0.2171
   81MOL   H19030750   2.180   1.227   7.656  0.2190  0.2920  0.6279
   81MOL   H19130751   2.191   1.060   7.670  0.2189 -1.2315  0.9317
   81MOL   C19230752   1.979   1.132   7.663  0.8290  0.3563 -0.1052
   81MOL   C19330753   1.985   1.122   7.506  0.1809 -0.1160  0.1008
   81MOL   C19430754   1.844   1.097   7.440  0.1010  0.4277 -0.2968
   81MOL   C19530755   1.872   1.034   7.309 -0.2187 -0.2657 -0.5558
   81MOL   C19630756   2.001   0.935   7.331 -0.0361 -0.2315 -0.7406
   81MOL   C19730757   2.068   0.993   7.461 -0.2613 -0.3306  0.7922
   81MOL   C19830758   1.902   1.261   0.010 -0.1252  0.3312  0.5650
   81MOL   H19930759   1.936   1.040   0.013  0.8380  0.1810 -0.4995
   81MOL   H20030760   2.024   1.214   7.463  0.0322 -0.0781  0.0457
   81MOL   H20130761   1.784   1.187   7.434  0.5961  0.7978  0.1861
   81MOL   H20230762   1.790   1.024   7.501 -0.4883 -0.5121 -1.9069
   81MOL   H20330763   1.781   0.981   7.282  0.0368 -0.6060 -0.7651
   81MOL   H20430764   1.885   1.104   7.226  1.1071  0.4872  0.2702
   81MOL   H20530765   2.073   0.928   7.250 -0.4037 -0.6440 -1.0358
   81MOL   H20630766   1.966   0.833   7.349  2.0491 -0.8129  0.0997
   81MOL   H20730767   2.175   1.011   7.455 -0.4780  0.8211  0.2327
   81MOL   H20830768   2.063   0.914   7.536  0.1267  0.7260  1.9492
   81MOL   H20930769   1.943   1.292   0.106 -0.0707 -1.2789  1.0766
   81MOL   H21030770   1.927   1.339   7.627 -0.9908 -1.4610 -1.6978
   81MOL   C21130771   1.758   1.249   0.041  0.9989 -0.1478  0.1176
   81MOL   C21230772   1.720   1.163   0.168 -0.5112  0.2628 -0.2428
   81MOL   C21330773   1.748   1.220   0.312 -0.9392  0.7955  0.4992
   81MOL   C21430774   1.657   1.149   0.407 -0.7988  0.4682  0.2100
   81MOL   C21530775   1.559   1.064   0.319  0.2739 -0.3275  0.6027
   81MOL   C21630776   1.575   1.119   0.177 -0.9272 -0.2783 -0.6702
   81MOL   C21730777   1.684   1.383   0.057  0.4506 -0.6690 -0.1539
   81MOL   H21830778   1.723   1.183   7.652  0.0004 -0.1639  0.5659
   81MOL   H21930779   1.779   1.072   0.155  1.3352  1.1203  1.7348
   81MOL   H22030780   1.853   1.221   0.341 -0.0392  3.9879 -2.5530
   81MOL   H22130781   1.727   1.327   0.307  0.3460  0.9461 -2.6227
   81MOL   H22230782   1.712   1.078   0.469 -1.9589 -0.7237 -0.1015
   81MOL   H22330783   1.610   1.221   0.473  0.5902 -0.1203  1.8887
   81MOL   H22430784   1.452   1.074   0.338 -0.2872  0.7012 -2.7961
   81MOL   H22530785   1.574   0.957   0.331 -0.6106 -0.3522  1.5489
   81MOL   H22630786   1.555   1.044   0.101 -0.8971 -1.1096  0.1317
   81MOL   H22730787   1.504   1.198   0.155 -0.2168  1.0621  1.6135
   81MOL   H22830788   1.759   1.447   0.105 -1.0566  0.5394  0.6337
   81MOL   H22930789   1.600   1.385   0.127 -1.4112 -0.2837 -2.3457
   81MOL   C23030790   1.639   1.451   7.613 -0.0967  0.4434  0.1955
   81MOL   C23130791   1.567   1.591   7.636 -0.5455 -0.4909  0.1217
   81MOL   C23230792   1.423   1.599   7.689  0.7758  0.9436  0.5386
   81MOL   C23330793   1.412   1.733   0.070  0.7725  0.1497  0.5058
   81MOL   C23430794   1.540   1.808   0.046  0.0560  0.2726  0.0485
   81MOL   C23530795   1.644   1.692   0.032 -0.0074 -0.4751  0.0442
   81MOL   C23630796   1.546   1.367   7.517  0.0326 -0.6636  0.3971
   81MOL   H23730797   1.736   1.473   7.569  0.5695  0.2506  1.5560
   81MOL   H23830798   1.573   1.628   7.534 -0.7190 -0.4435  0.1283
   81MOL   H23930799   1.354   1.588   7.606 -1.1128  0.9602  2.0799
   81MOL   H24030800   1.403   1.516   0.067  0.4792 -0.3660 -1.1338
   81MOL   H24130801   1.332   1.796   0.032  0.7887 -0.8789 -1.3284
   81MOL   H24230802   1.405   1.719   0.177  1.5351 -2.4221  0.2492
   81MOL   H24330803   1.565   1.886   0.118  0.5197  0.0756  0.0996
   81MOL   H24430804   1.529   1.860   7.641 -2.4032  1.5914  1.0008
   81MOL   H24530805   1.675   1.655   0.130 -0.0064 -1.7983 -0.4402
   81MOL   H24630806   1.724   1.737   7.663 -0.3965 -2.2454 -1.9128
   81MOL   H24730807   1.447   1.376   7.561  0.7352 -0.1031  1.8752
   81MOL   H24830808   1.578   1.264   7.535  0.8591 -0.5298 -0.2725
   81MOL   C24930809   1.548   1.409   7.369 -0.9090 -0.2282 -1.1472
   81MOL   C25030810   1.444   1.344   7.274 -0.2162 -0.7190 -0.1954
   81MOL   C25130811   1.297   1.375   7.313 -0.0393 -0.4364 -0.2212
   81MOL   C25230812   1.237   1.235   7.355 -0.3479  0.3936 -0.4024
   81MOL   C25330813   1.349   1.145   7.367  0.2496  0.0141 -0.1855
   81MOL   C25430814   1.453   1.187   7.264 -0.1217 -1.7297 -0.3473
   81MOL   C25530815   1.688   1.408   7.303 -0.4183  0.4459  0.1967
   81MOL   H25630816   1.507   1.511   7.369 -1.1651 -0.2769  2.4814
   81MOL   H25730817   1.459   1.373   7.170 -2.2867 -0.8277 -0.5401
   81MOL   H25830818   1.236   1.424   7.238 -2.1182  1.0064  2.3229
   81MOL   H25930819   1.286   1.443   7.397 -1.3228  0.3852 -1.0465
   81MOL   H26030820   1.170   1.216   7.271 -0.3572  2.8923 -1.0105
   81MOL   H26130821   1.174   1.247   7.443 -0.7787 -1.4125 -0.4440
   81MOL   H26230822   1.310   1.044   7.355 -0.3889  0.1606  0.6375
   81MOL   H26330823   1.385   1.160   7.469  0.4391 -0.0495 -0.2421
   81MOL   H26430824   1.433   1.151   7.163 -0.3659  0.2004 -1.0078
   81MOL   H26530825   1.558   1.167   7.287  1.8909  3.5745 -3.8760
   81MOL   H26630826   1.777   1.418   7.365  0.5876 -1.5981 -0.8570
   81MOL   H26730827   1.715   1.316   7.251  0.9915  1.1242 -0.3166
   81MOL   C26830828   1.706   1.509   7.187 -0.6635 -0.4723 -0.5888
   81MOL   C26930829   1.812   1.477   7.072  0.0491 -1.0927  0.2655
   81MOL   C27030830   1.785   1.355   6.976  0.5821 -0.6252 -0.4534
   81MOL   C27130831   1.925   1.298   6.940 -0.8083 -0.2465 -1.0141
   81MOL   C27230832   2.031   1.400   6.987  0.5146  0.2037 -0.0534
   81MOL   C27330833   1.958   1.455   7.116 -0.3213  0.2116 -0.2893
   81MOL   C27430834   1.743   1.643   7.243 -0.0359 -0.2591  1.0396
   81MOL   H27530835   1.614   1.527   7.133 -1.4214 -0.0740  0.8009
   81MOL   H27630836   1.821   1.564   7.007 -0.2719 -0.5653  0.9326
   81MOL   H27730837   1.743   1.278   7.040 -2.1708  1.3970  0.2490
   81MOL   H27830838   1.717   1.376   6.894  0.6071 -0.5295 -0.4491
   81MOL   H27930839   1.934   1.205   6.996  1.9382 -0.6622 -2.0383
   81MOL   H28030840   1.951   1.271   6.837 -0.8759 -2.5227 -0.4562
   81MOL   H28130841   2.045   1.483   6.918 -1.0582 -0.9837 -1.8789
   81MOL   H28230842   2.128   1.362   7.018 -0.1317  1.3246  3.5470
   81MOL   H28330843   2.013   1.541   7.155  0.4811 -0.1580 -0.5964
   81MOL   H28430844   1.948   1.389   7.203  1.6962 -0.3957 -0.5055
   81MOL   H28530845   1.851   1.654   7.232  0.0820 -0.2137  2.1878
   81MOL   H28630846   1.719   1.654   7.349 -2.0936 -0.5475  0.6109
   81MOL   C28730847   1.667   1.760   7.177  0.5796  0.0272 -0.1138
   81MOL   C28830848   1.515   1.783   7.232 -0.4799 -0.2142 -0.2622
   81MOL   C28930849   1.509   1.856   7.366  0.2247 -0.3028 -0.1668
   81MOL   C29030850   1.425   1.988   7.333  0.4245 -0.1175  0.1136
   81MOL   C29130851   1.340   1.947   7.216  0.4015 -0.0854 -0.5081
   81MOL   C29230852   1.428   1.860   7.136 -0.0446 -0.3325 -0.5766
   81MOL   C29330853   1.762   1.878   7.172 -0.2859  0.1417  0.6998
   81MOL   H29430854   1.653   1.726   7.075 -0.4568  1.1177 -0.3415
   81MOL   H29530855   1.467   1.688   7.254 -1.9981  0.5232 -0.3580
   81MOL   H29630856   1.460   1.785   7.432 -0.1270 -0.5281 -0.6701
   81MOL   H29730857   1.607   1.873   7.412  1.3276  0.0487 -2.5448
   81MOL   H29830858   1.362   2.017   7.417  0.5621  1.7515 -0.4032
   81MOL   H29930859   1.499   2.067   7.317  1.2979 -1.0753 -0.6313
   81MOL   H30030860   1.299   2.035   7.166  0.8121  0.1787 -0.3844
   81MOL   H30130861   1.253   1.896   7.257  1.8033 -1.4542  0.8519
   81MOL   H30230862   1.485   1.928   7.072 -1.1407  0.8625 -0.3229
   81MOL   H30330863   1.384   1.777   7.081  2.4266 -1.9991 -0.1023
   81MOL   H30430864   1.819   1.878   7.265  0.1258 -2.1779  0.4669
   81MOL   H30530865   1.718   1.976   7.154  0.5337  0.4120  0.1630
   81MOL   C30630866   1.866   1.873   7.059  0.2057 -0.3751  0.1970
   81MOL   C30730867   1.814   1.893   6.914  0.0414 -0.1276  0.2810
   81MOL   C30830868   1.812   2.037   6.850  0.3329  0.4219  0.5814
   81MOL   C30930869   1.797   2.015   6.698 -0.2782  0.5218 -0.0937
   81MOL   C31030870   1.850   1.871   6.672 -0.3726 -0.1325 -0.4676
   81MOL   C31130871   1.865   1.798   6.806 -0.2774  0.7542  0.0430
   81MOL   C31230872   1.987   1.972   7.095  1.3260 -0.4155 -0.0091
   81MOL   H31330873   1.913   1.774   7.063  0.1134 -0.4374 -0.3574
   81MOL   H31430874   1.708   1.870   6.911  0.3168 -1.3384 -0.5169
   81MOL   H31530875   1.902   2.090   6.880  1.6746 -1.1398 -0.5692
   81MOL   H31630876   1.737   2.104   6.892 -0.5537 -0.2329  0.0477
   81MOL   H31730877   1.691   2.014   6.672 -0.2916 -0.4063 -0.0225
   81MOL   H31830878   1.861   2.081   6.640  2.4868 -1.4887  0.5720
   81MOL   H31930879   1.943   1.881   6.615  1.2589 -1.2969  1.9072
   81MOL   H32030880   1.776   1.818   6.612 -0.1215  0.1589 -1.0461
   81MOL   H32130881   1.804   1.708   6.800 -1.3685  1.4481  0.6461
   81MOL   H32230882   1.968   1.768   6.826 -0.7453 -0.2370  1.0080
   81MOL   H32330883   2.015   1.949   7.198  0.6918 -0.0924  0.2395
   81MOL   H32430884   1.957   2.077   7.102 -0.0024 -0.6542 -1.7926
   81MOL   C32530885   2.108   1.965   6.995  0.7568  0.6790 -0.2190
   81MOL   C32630886   2.185   1.838   7.017 -0.0915 -0.8358  0.6994
   81MOL   C32730887   2.264   1.820   7.155  0.7021 -0.7558  0.2122
   81MOL   C32830888   2.412   1.808   7.111 -0.4771  0.1207 -0.2638
   81MOL   C32930889   2.413   1.752   6.966 -0.0547  0.0479 -0.2615
   81MOL   C33030890   2.293   1.823   6.902 -0.1544 -0.1923  0.9834
   81MOL   C33130891   2.200   2.090   7.021  0.3811 -0.2684 -0.1353
   81MOL   H33230892   2.074   1.982   6.893  0.0442 -1.8441 -0.4289
   81MOL   H33330893   2.111   1.759   7.004 -0.7587  0.0074 -0.7681
   81MOL   H33430894   2.231   1.730   7.206  1.0377 -0.1078  1.5883
   81MOL   H33530895   2.245   1.909   7.216  1.0990  0.3390 -1.2160
   81MOL   H33630896   2.467   1.745   7.182 -0.5082  0.9894  0.5378
   81MOL   H33730897   2.456   1.907   7.111  1.4029 -0.6816  1.0780
   81MOL   H33830898   2.391   1.645   6.966 -0.0428  0.0407 -1.1246
   81MOL   H33930899   2.499   1.749   6.899 -0.5413 -0.7699 -0.8706
   81MOL   H34030900   2.260   1.756   6.822  0.3798  0.7302 -0.0122
   81MOL   H34130901   2.309   1.918   6.851 -1.2388 -0.7993 -0.5292
   81MOL   H34230902   2.304   2.060   7.029 -0.0047 -1.4882  0.2684
   81MOL   H34330903   2.176   2.123   7.122 -1.1903  0.1652 -0.6305
   81MOL   C34430904   2.201   2.211   6.922 -0.3181 -0.1451 -0.4089
   81MOL   C34530905   2.286   2.175   6.797 -0.2282  0.5607 -0.0259
   81MOL   C34630906   2.439   2.169   6.815 -0.2173  0.0556  0.7517
   81MOL   C34730907   2.510   2.215   6.690  0.7723 -0.6597  0.0548
   81MOL   C34830908   2.409   2.316   6.634 -0.0228 -0.0230 -0.3877
   81MOL   C34930909   2.267   2.281   6.686 -0.1969  0.2735  0.3929
   81MOL   C35030910   2.236   2.346   7.000  0.3479 -0.9299 -0.2508
   81MOL   H35130911   2.097   2.219   6.890 -0.7823 -2.7902  0.2745
   81MOL   H35230912   2.254   2.082   6.751  0.2005  2.2931 -4.0423
   81MOL   H35330913   2.476   2.067   6.831  0.7020  0.0285 -1.3691
   81MOL   H35430914   2.464   2.225   6.905 -0.3925  0.4914  0.5269
   81MOL   H35530915   2.609   2.261   6.692  1.2881 -1.7986  2.0396
   81MOL   H35630916   2.498   2.131   6.622 -1.2109 -1.3457  1.2213
   81MOL   H35730917   2.405   2.331   6.527  1.3563  0.2998 -0.3923
   81MOL   H35830918   2.441   2.408   6.683 -0.6086  0.0317 -0.0923
   81MOL   H35930919   2.213   2.369   6.723  0.8845  0.5646  1.3124
   81MOL   H36030920   2.211   2.233   6.606 -0.4731  0.6732  0.3443
   81MOL   H36130921   2.281   2.422   6.935  0.9359  0.2346  1.4897
   81MOL   H36230922   2.321   2.323   7.065  1.7636  0.1855 -1.6630
   81MOL   C36330923   2.120   2.417   7.078 -0.0565  0.0208  0.7717
   81MOL   C36430924   2.177   2.541   7.164  0.0133  0.6398  0.0729
   81MOL   C36530925   2.065   2.611   7.236  0.0170  0.1790 -0.0120
   81MOL   C36630926   2.040   2.750   7.171 -1.0447 -0.8317  0.7035
   81MOL   C36730927   2.137   2.750   7.050 -0.1093 -0.2321  0.0819
   81MOL   C36830928   2.250   2.648   7.086 -0.6372 -0.0492 -0.2483
   81MOL   C36930929   2.000   2.453   6.995  0.8017 -0.4572 -0.1297
   81MOL   H37030930   2.076   2.348   7.151 -1.0757  1.3927  1.4716
   81MOL   H37130931   2.246   2.500   7.237 -0.6104  0.8648  0.8037
   81MOL   H37230932   1.973   2.555   7.255  2.3500 -3.0516  2.2390
   81MOL   H37330933   2.098   2.623   7.339 -0.8717  0.0288  0.2914
   81MOL   H37430934   1.940   2.771   7.135 -0.6310 -0.7524 -0.4259
   81MOL   H37530935   2.065   2.832   7.238 -0.3560 -0.9456  0.5882
   81MOL   H37630936   2.073   2.713   6.970 -0.8733  1.8350 -0.2997
   81MOL   H37730937   2.175   2.846   7.014  0.4528 -1.4545 -2.7459
   81MOL   H37830938   2.317   2.699   7.156 -2.1504  1.4374  0.1706
   81MOL   H37930939   2.324   2.623   7.011 -0.7910  0.1239 -0.4581
   81MOL   H38030940   2.030   2.504   6.904  1.5116  0.9771  0.8853
   81MOL   H38130941   1.917   2.505   7.041  1.3122  1.8539 -1.7494
   81MOL   H38230942   1.943   2.366   6.961  1.6783 -1.6382  1.3346
   82MOL     C130943   5.340   6.013   2.071 -0.3635 -0.3141  0.2897
   82MOL     C230944   5.449   6.133   2.073 -0.2295 -1.1510 -0.4871
   82MOL     C330945   5.550   6.132   1.963 -0.3883 -0.4630  0.0392
   82MOL     C430946   5.680   6.069   2.025  0.1127  0.0760  0.1732
   82MOL     C530947   5.681   6.136   2.155  0.1206 -0.9562 -0.0061
   82MOL     C630948   5.534   6.124   2.201 -1.0819  0.7282 -0.7610
   82MOL     C730949   5.267   6.001   1.931  0.0129 -0.0507 -0.7354
   82MOL     H830950   5.398   5.923   2.091  0.1723  0.3220  1.6877
   82MOL     H930951   5.393   6.227   2.064  0.4198 -0.6849  0.3438
   82MOL    H1030952   5.512   6.082   1.874  0.1223 -1.5074  0.3979
   82MOL    H1130953   5.570   6.233   1.927 -3.0168 -0.3062 -1.0525
   82MOL    H1230954   5.673   5.960   2.025  0.1024  0.0701  1.7122
   82MOL    H1330955   5.767   6.100   1.967  1.1254 -1.6565  0.7288
   82MOL    H1430956   5.750   6.096   2.229 -0.2667 -0.2645  0.7239
   82MOL    H1530957   5.705   6.242   2.145  1.2149 -0.9666  2.1806
   82MOL    H1630958   5.505   6.210   2.261  0.5492 -0.0843  1.2295
   82MOL    H1730959   5.526   6.035   2.264  0.9283  1.1043  0.0335
   82MOL    H1830960   5.261   6.107   1.906  2.2647  0.4627  0.7406
   82MOL    H1930961   5.335   5.960   1.856 -0.2814 -2.0334  0.0495
   82MOL    H2030962   5.264   6.013   2.150 -0.5478 -0.2893  0.1148
   82MOL    C2130963   5.129   5.929   1.952 -0.0454  0.9785 -0.0982
   82MOL    C2230964   5.023   5.964   1.848  0.3295  0.0642  0.6470
   82MOL    C2330965   5.081   5.965   1.698  0.0297  0.6070 -0.1714
   82MOL    C2430966   4.970   6.028   1.617  0.3934 -0.3978  0.8717
   82MOL    C2530967   4.902   6.126   1.718  0.3916  0.8323 -0.3419
   82MOL    C2630968   4.964   6.101   1.858 -0.0923  0.3036 -0.5903
   82MOL    C2730969   5.165   5.771   1.975  0.0006 -0.5821  0.6547
   82MOL    H2830970   5.082   5.979   2.036 -2.6363  0.1222 -0.9875
   82MOL    H2930971   4.943   5.889   1.850 -0.8655  1.2180 -1.9244
   82MOL    H3030972   5.111   5.870   1.653 -1.3170  0.1263 -0.0591
   82MOL    H3130973   5.168   6.031   1.693  0.9813 -0.4871  1.3761
   82MOL    H3230974   5.004   6.086   1.531 -2.5302  0.3788  0.1854
   82MOL    H3330975   4.894   5.963   1.573  0.6816 -0.0845 -0.1155
   82MOL    H3430976   4.793   6.134   1.715  0.3657  1.8364  2.3852
   82MOL    H3530977   4.923   6.230   1.694 -0.8845  0.6316 -2.5575
   82MOL    H3630978   4.887   6.124   1.933  0.0258 -1.4827  0.1001
   82MOL    H3730979   5.046   6.172   1.869 -1.2710  1.2902  2.3587
   82MOL    H3830980   5.218   5.727   1.890  0.6656 -0.9688  1.2654
   82MOL    H3930981   5.230   5.775   2.062 -0.6148 -0.5734  1.1184
   82MOL    C4030982   5.056   5.681   2.011 -0.0071 -0.0750  0.5866
   82MOL    C4130983   5.090   5.533   2.010 -0.7276 -0.1283  0.0077
   82MOL    C4230984   5.199   5.486   2.112  0.6669  0.4877 -0.7228
   82MOL    C4330985   5.245   5.349   2.054  0.6401  0.1715  0.4630
   82MOL    C4430986   5.250   5.382   1.905 -0.8751  0.0138  0.1630
   82MOL    C4530987   5.130   5.473   1.875  0.3397  0.0391  0.2290
   82MOL    C4630988   4.994   5.728   2.141  0.5195 -0.3514 -0.4009
   82MOL    H4730989   4.984   5.681   1.930 -0.1179 -0.2002  0.6852
   82MOL    H4830990   5.000   5.475   2.028 -0.4150 -0.6946 -0.2189
   82MOL    H4930991   5.162   5.492   2.214  1.5140 -2.1026 -0.2369
   82MOL    H5030992   5.279   5.560   2.110  0.6503  0.4714 -2.5992
   82MOL    H5130993   5.171   5.270   2.068  1.3643 -1.1314 -2.4948
   82MOL    H5230994   5.336   5.303   2.093 -1.3648 -2.2454  2.4426
   82MOL    H5330995   5.340   5.443   1.897 -0.6155 -0.5614 -1.7459
   82MOL    H5430996   5.279   5.297   1.843 -1.6669  0.9964 -1.5830
   82MOL    H5530997   5.134   5.542   1.790 -0.3734 -1.8667 -1.3734
   82MOL    H5630998   5.042   5.416   1.846  0.6603  0.7681 -2.2765
   82MOL    H5730999   5.054   5.695   2.226  3.6679 -0.3986 -2.5557
   82MOL    H5831000   4.999   5.835   2.165  1.7492 -0.1423 -1.5287
   82MOL    C5931001   4.843   5.689   2.168 -0.2022  0.0832  0.5848
   82MOL    C6031002   4.801   5.699   2.319 -0.8173  0.3374 -0.2917
   82MOL    C6131003   4.798   5.842   2.378 -0.5222 -0.5657 -0.4731
   82MOL    C6231004   4.782   5.824   2.527  0.5991 -0.5021  0.1834
   82MOL    C6331005   4.849   5.693   2.560  0.3814  0.2604  0.3874
   82MOL    C6431006   4.881   5.627   2.428 -0.1524 -0.1843 -0.1739
   82MOL    C6531007   4.743   5.771   2.075  0.2176 -0.0109 -0.2443
   82MOL    H6631008   4.834   5.588   2.130  0.2942  0.8217 -1.5807
   82MOL    H6731009   4.702   5.654   2.333 -0.4238 -0.2131  0.7915
   82MOL    H6831010   4.722   5.902   2.329 -0.6699  0.3710  0.8641
   82MOL    H6931011   4.893   5.887   2.349  0.7372 -1.3978  2.2085
   82MOL    H7031012   4.680   5.822   2.566 -0.1772  0.0554 -1.7564
   82MOL    H7131013   4.824   5.906   2.586  1.9526 -1.6429  0.8170
   82MOL    H7231014   4.783   5.637   2.625 -0.9941  1.4927  0.0762
   82MOL    H7331015   4.942   5.712   2.613  0.3124 -0.0422  0.6162
   82MOL    H7431016   4.988   5.643   2.415 -0.1268 -1.1228 -1.1405
   82MOL    H7531017   4.853   5.522   2.427  0.8301 -0.4964  1.9769
   82MOL    H7631018   4.755   5.751   1.969 -0.1575 -2.7312  0.1936
   82MOL    H7731019   4.758   5.878   2.089 -2.6116  0.5555 -1.2359
   82MOL    C7831020   4.590   5.756   2.105  0.1052 -0.4940  0.5567
   82MOL    C7931021   4.516   5.851   2.003  0.1044 -0.0767  0.3455
   82MOL    C8031022   4.558   5.998   2.028 -0.3021 -0.5251 -0.0617
   82MOL    C8131023   4.450   6.089   1.961 -0.0368  0.2462 -0.0121
   82MOL    C8231024   4.325   6.008   1.963 -0.3877  0.9040 -0.8869
   82MOL    C8331025   4.364   5.866   2.017 -0.5841 -0.2355 -0.1287
   82MOL    C8431026   4.567   5.598   2.093 -0.2543  0.1800  0.5872
   82MOL    H8531027   4.550   5.784   2.202  0.5111 -1.9297  1.1464
   82MOL    H8631028   4.540   5.826   1.900  0.9821 -0.0103  0.5268
   82MOL    H8731029   4.654   6.019   1.981 -0.3149 -0.1202  0.0870
   82MOL    H8831030   4.570   6.021   2.134  0.0723  0.4526 -0.3107
   82MOL    H8931031   4.489   6.105   1.860  0.8910  3.1748  0.7679
   82MOL    H9031032   4.444   6.188   2.006 -0.8197  0.1731  0.0370
   82MOL    H9131033   4.256   6.039   2.042  2.1705  1.1283  1.3326
   82MOL    H9231034   4.272   5.990   1.870 -1.4751 -1.0478  0.1011
   82MOL    H9331035   4.333   5.857   2.121  0.2052 -0.0713  0.1252
   82MOL    H9431036   4.304   5.788   1.970  0.4015 -1.5316  0.7277
   82MOL    H9531037   4.632   5.548   2.164  1.0482  1.3644  0.2322
   82MOL    H9631038   4.601   5.561   1.996 -1.2514 -0.5084  0.4902
   82MOL    C9731039   4.420   5.551   2.112  1.0185 -0.1177 -0.2130
   82MOL    C9831040   4.366   5.586   2.252 -0.0604  0.1969  0.7326
   82MOL    C9931041   4.211   5.583   2.261 -0.1140 -0.5748  0.7293
   82MOL   C10031042   4.182   5.566   2.413 -0.0080  0.3520 -0.0279
   82MOL   C10131043   4.297   5.477   2.463  0.0387  0.3922  0.1815
   82MOL   C10231044   4.412   5.491   2.362  0.6698 -0.4858 -0.3339
   82MOL   C10331045   4.423   5.405   2.064  0.0954 -0.3102  0.2822
   82MOL   H10431046   4.356   5.606   2.043 -0.3922  0.4583  1.5429
   82MOL   H10531047   4.390   5.685   2.293 -0.8020 -0.1447  2.0058
   82MOL   H10631048   4.164   5.666   2.209  1.4202 -0.2381 -0.1257
   82MOL   H10731049   4.190   5.493   2.203 -1.8505 -1.2146  2.2798
   82MOL   H10831050   4.082   5.531   2.439 -0.3019 -0.2107 -1.8786
   82MOL   H10931051   4.187   5.659   2.469 -0.3925  0.3641 -0.0154
   82MOL   H11031052   4.261   5.374   2.467  0.7807  0.0867 -0.7745
   82MOL   H11131053   4.335   5.507   2.560 -2.0226  0.2575  1.0639
   82MOL   H11231054   4.502   5.529   2.411 -0.3833 -2.9976  3.7655
   82MOL   H11331055   4.452   5.395   2.326  1.4184 -0.4369  0.3560
   82MOL   H11431056   4.511   5.351   2.101  0.9153 -0.8229 -2.2565
   82MOL   H11531057   4.351   5.355   2.128 -1.5144  0.9622 -0.5110
   82MOL   C11631058   4.404   5.379   1.915 -0.6368 -0.0959  0.2966
   82MOL   C11731059   4.484   5.258   1.854  0.4440  0.2134  0.0491
   82MOL   C11831060   4.632   5.288   1.845  0.0976 -0.5905 -0.4066
   82MOL   C11931061   4.690   5.145   1.877  0.1420  0.3188 -0.3620
   82MOL   C12031062   4.582   5.039   1.903 -0.0047  0.1086  1.0415
   82MOL   C12131063   4.461   5.129   1.932  0.0556 -0.5623  0.6361
   82MOL   C12231064   4.249   5.366   1.878 -0.1385 -0.2906  0.0679
   82MOL   H12331065   4.439   5.469   1.865 -1.1719  1.5718  2.8270
   82MOL   H12431066   4.450   5.257   1.750 -0.2022 -1.5254  0.2493
   82MOL   H12531067   4.658   5.334   1.749 -1.2510 -0.3023 -0.6460
   82MOL   H12631068   4.662   5.360   1.921  1.4332  0.0139 -1.4852
   82MOL   H12731069   4.746   5.154   1.970 -0.1384 -0.1244 -0.1502
   82MOL   H12831070   4.757   5.117   1.797  2.3363  1.4816  0.9996
   82MOL   H12931071   4.610   4.969   1.982  2.5369  0.3233  0.3820
   82MOL   H13031072   4.575   4.977   1.813 -0.5907  0.6660  0.6981
   82MOL   H13131073   4.366   5.081   1.908 -0.1731 -0.5597  1.5306
   82MOL   H13231074   4.469   5.143   2.040  0.6889 -0.5869  0.5964
   82MOL   H13331075   4.195   5.423   1.953 -0.4842  2.4559 -2.1630
   82MOL   H13431076   4.229   5.260   1.894  0.4377 -0.1982  1.3789
   82MOL   C13531077   4.211   5.399   1.734  0.6405  0.1756 -0.5631
   82MOL   C13631078   4.198   5.552   1.714  0.2279 -0.1748  0.6143
   82MOL   C13731079   4.079   5.630   1.780 -0.3822  0.0008  0.6646
   82MOL   C13831080   4.062   5.763   1.707  0.0948 -0.0270  0.1814
   82MOL   C13931081   4.083   5.721   1.560 -0.1949 -0.5121  0.1708
   82MOL   C14031082   4.186   5.603   1.568  0.3646 -0.3682  0.0759
   82MOL   C14131083   4.086   5.311   1.701  0.1942 -0.7596 -0.1813
   82MOL   H14231084   4.285   5.358   1.666  0.7061 -0.4534 -0.1146
   82MOL   H14331085   4.289   5.598   1.752  0.5538 -0.4984  0.2246
   82MOL   H14431086   3.982   5.580   1.774 -0.2188 -0.0715 -2.1342
   82MOL   H14531087   4.092   5.643   1.887 -0.4146 -1.0189  0.7999
   82MOL   H14631088   4.144   5.826   1.741  0.9560 -2.2437  2.4448
   82MOL   H14731089   3.962   5.802   1.722 -0.0374 -0.1300 -0.4279
   82MOL   H14831090   4.122   5.796   1.491  1.6972 -2.9879 -1.5174
   82MOL   H14931091   3.990   5.682   1.519  0.4909 -2.3836  0.3629
   82MOL   H15031092   4.157   5.525   1.497  1.5203  1.0025 -1.9551
   82MOL   H15131093   4.282   5.642   1.534 -1.0679  1.3407 -2.1966
   82MOL   H15231094   4.016   5.372   1.644  0.0709  1.0789  1.8542
   82MOL   H15331095   4.025   5.316   1.792  1.1629 -0.4407  0.4653
   82MOL   C15431096   4.102   5.164   1.634  0.5940 -0.2016  0.4701
   82MOL   C15531097   3.968   5.087   1.633 -0.8513 -0.0655  0.5792
   82MOL   C15631098   3.854   5.156   1.562  1.0525 -0.0850  0.2015
   82MOL   C15731099   3.728   5.088   1.612  0.0991  0.7705  0.5931
   82MOL   C15831100   3.773   4.997   1.729 -0.5134 -0.5715 -0.0051
   82MOL   C15931101   3.907   5.052   1.771 -0.8614 -0.2064  0.8435
   82MOL   C16031102   4.164   5.159   1.494  0.0278  0.8504  0.1946
   82MOL   H16131103   4.166   5.114   1.706  0.2329 -0.3963  0.6586
   82MOL   H16231104   3.979   4.992   1.580  1.0157  1.2426 -1.4040
   82MOL   H16331105   3.851   5.265   1.571  1.9776 -0.0645  0.2962
   82MOL   H16431106   3.856   5.140   1.454 -1.9889 -1.9904  0.3703
   82MOL   H16531107   3.645   5.152   1.644 -0.5055 -0.3895  1.3762
   82MOL   H16631108   3.700   5.010   1.542 -0.0539  0.6484  0.7859
   82MOL   H16731109   3.780   4.892   1.700 -0.4716 -0.4707 -0.3558
   82MOL   H16831110   3.704   4.991   1.814  1.1021 -2.0789  1.2504
   82MOL   H16931111   3.959   4.978   1.831 -0.6349 -0.8400 -0.1344
   82MOL   H17031112   3.892   5.146   1.825 -0.6333  0.5548 -0.4040
   82MOL   H17131113   4.214   5.256   1.484  2.5835 -0.1376  2.5372
   82MOL   H17231114   4.089   5.162   1.415  0.6763 -1.2535 -0.5356
   82MOL   C17331115   4.254   5.029   1.472 -0.0535 -0.0410  0.9158
   82MOL   C17431116   4.393   5.030   1.540  0.1261 -0.1947  0.0881
   82MOL   C17531117   4.485   5.144   1.496  0.1862  0.6938  0.6207
   82MOL   C17631118   4.631   5.098   1.526  0.2566  0.1740 -0.0954
   82MOL   C17731119   4.628   4.944   1.510  0.5304  0.4231  0.2085
   82MOL   C17831120   4.481   4.899   1.536  0.7884 -0.4340  0.3669
   82MOL   C17931121   4.262   4.991   1.322 -0.1964 -0.4743 -0.0776
   82MOL   H18031122   4.202   4.947   1.521 -2.6402  1.1167  0.1857
   82MOL   H18131123   4.376   5.046   1.647 -3.6182 -0.2921 -0.4366
   82MOL   H18231124   4.456   5.239   1.540  0.3827  1.0142  0.0551
   82MOL   H18331125   4.469   5.155   1.389  2.9663  0.9570  0.1854
   82MOL   H18431126   4.698   5.144   1.453 -0.7143 -1.3942 -2.0436
   82MOL   H18531127   4.654   5.130   1.627 -1.5613 -0.1959  0.4635
   82MOL   H18631128   4.692   4.900   1.586  1.3510  2.1731  0.5456
   82MOL   H18731129   4.662   4.906   1.414  1.4002  0.0268  0.6766
   82MOL   H18831130   4.444   4.825   1.465  1.4783  0.6819 -1.1789
   82MOL   H18931131   4.483   4.858   1.637 -0.4158  2.4664  1.6213
   82MOL   H19031132   4.257   5.078   1.256  0.5682 -0.2193  0.1928
   82MOL   H19131133   4.367   4.963   1.310 -0.3242 -1.2830  0.7031
   82MOL   C19231134   4.173   4.874   1.276 -0.9361 -0.1070 -0.5119
   82MOL   C19331135   4.223   4.808   1.145 -0.3526 -0.1609  0.8457
   82MOL   C19431136   4.362   4.739   1.150  0.0037  0.0709  0.1251
   82MOL   C19531137   4.398   4.709   1.007 -0.6646  0.1991  0.4708
   82MOL   C19631138   4.323   4.819   0.923 -0.2857  0.1652 -0.1586
   82MOL   C19731139   4.245   4.904   1.033  1.0831 -0.3881  0.8324
   82MOL   C19831140   4.023   4.911   1.263 -0.0739 -0.0097 -0.0545
   82MOL   H19931141   4.167   4.796   1.353  1.3661  0.7156  0.5432
   82MOL   H20031142   4.161   4.723   1.117 -0.5858 -0.1992  1.4775
   82MOL   H20131143   4.367   4.650   1.213  0.6902 -0.3676 -0.5442
   82MOL   H20231144   4.446   4.800   1.185  0.3180  0.0265 -0.5488
   82MOL   H20331145   4.505   4.717   0.984 -0.9533 -0.1325 -1.0055
   82MOL   H20431146   4.375   4.604   0.996  0.1601  0.0327  0.2499
   82MOL   H20531147   4.249   4.769   0.860 -0.5173  0.1696  0.1103
   82MOL   H20631148   4.397   4.873   0.864  1.0938 -0.7263  0.7306
   82MOL   H20731149   4.150   4.919   0.982  0.1967  0.4885  2.7157
   82MOL   H20831150   4.283   5.004   1.051 -0.8899  0.1199  2.2735
   82MOL   H20931151   3.987   4.934   1.364 -0.6987 -0.9781 -0.0542
   82MOL   H21031152   4.025   5.005   1.208  0.7091  0.3262  0.5418
   82MOL   C21131153   3.911   4.816   1.208 -0.1578 -0.4535  0.3082
   82MOL   C21231154   3.913   4.676   1.288  0.3826 -0.4915  0.0972
   82MOL   C21331155   3.837   4.674   1.426 -0.1675  0.1196  0.3394
   82MOL   C21431156   3.797   4.531   1.438  0.0037  0.2915  0.4388
   82MOL   C21531157   3.774   4.464   1.298  0.3764 -0.9932 -0.5532
   82MOL   C21631158   3.853   4.564   1.204  0.0554 -0.1397 -0.0468
   82MOL   C21731159   3.765   4.884   1.200 -0.0804  0.0499  0.5346
   82MOL   H21831160   3.942   4.786   1.108  1.8685 -2.3403  1.4520
   82MOL   H21931161   4.017   4.648   1.303  0.8604  1.2310  0.1339
   82MOL   H22031162   3.898   4.703   1.512 -1.4955  0.5747  1.1331
   82MOL   H22131163   3.747   4.736   1.420 -0.4522 -0.1531  1.5855
   82MOL   H22231164   3.862   4.466   1.498  0.9442  1.4768  0.7240
   82MOL   H22331165   3.705   4.523   1.496 -1.7312 -2.6221 -2.5820
   82MOL   H22431166   3.669   4.451   1.273  0.5236 -2.4867 -0.4861
   82MOL   H22531167   3.812   4.362   1.291 -0.3590 -1.2042 -1.7965
   82MOL   H22631168   3.935   4.522   1.147  0.1404 -0.8213  0.5684
   82MOL   H22731169   3.782   4.596   1.127  1.1754  1.1175 -0.5833
   82MOL   H22831170   3.741   4.915   1.302 -0.5937  0.2625  0.3500
   82MOL   H22931171   3.689   4.812   1.170 -0.0958 -0.8506  2.6120
   82MOL   C23031172   3.762   5.001   1.090  0.4024  0.2559  0.2583
   82MOL   C23131173   3.723   5.138   1.159 -0.4322 -0.0649  0.0931
   82MOL   C23231174   3.751   5.265   1.081 -0.4418 -0.3697  0.6247
   82MOL   C23331175   3.657   5.371   1.152 -0.0812  0.4397  0.1326
   82MOL   C23431176   3.573   5.296   1.249  0.5362 -0.3199  0.3425
   82MOL   C23531177   3.577   5.151   1.213 -0.0875 -0.0581  0.2211
   82MOL   C23631178   3.680   4.965   0.969 -0.2476 -0.0329  0.2671
   82MOL   H23731179   3.864   5.018   1.056 -0.0292 -0.1471 -1.2393
   82MOL   H23831180   3.789   5.152   1.245 -1.2151 -0.6853  0.8049
   82MOL   H23931181   3.857   5.287   1.070 -1.0363  1.8486 -0.9411
   82MOL   H24031182   3.721   5.255   0.976  3.3601 -0.3042 -0.5250
   82MOL   H24131183   3.711   5.448   1.207 -0.9206 -0.0756  1.7186
   82MOL   H24231184   3.604   5.410   1.065  1.0381 -1.8821 -1.6314
   82MOL   H24331185   3.468   5.326   1.248  0.4141 -0.6602  1.6693
   82MOL   H24431186   3.625   5.304   1.344  1.7416  0.0550 -0.3454
   82MOL   H24531187   3.499   5.135   1.139  0.5624  0.6801 -0.6386
   82MOL   H24631188   3.557   5.085   1.297 -0.3935  1.1315  1.1031
   82MOL   H24731189   3.675   5.050   0.900  0.8911  0.4545  0.7725
   82MOL   H24831190   3.583   4.941   1.012 -0.0127 -2.1711 -0.3688
   82MOL   C24931191   3.728   4.849   0.878  0.7182  0.1888  0.1591
   82MOL   C25031192   3.835   4.901   0.768  0.2930  0.0212 -0.4168
   82MOL   C25131193   3.784   4.969   0.636  0.1929 -0.2246 -0.7415
   82MOL   C25231194   3.895   4.933   0.533 -0.3247  1.3340 -0.2173
   82MOL   C25331195   4.004   4.855   0.607  0.3592  0.5113 -0.1660
   82MOL   C25431196   3.937   4.793   0.729  0.2997 -0.2818 -0.4065
   82MOL   C25531197   3.624   4.763   0.809  0.4814 -0.5084 -0.5449
   82MOL   H25631198   3.786   4.782   0.942 -1.8868 -0.9318  1.4324
   82MOL   H25731199   3.890   4.973   0.829 -0.4503 -0.4019  0.7696
   82MOL   H25831200   3.754   5.073   0.654  1.2375  0.2139 -1.4979
   82MOL   H25931201   3.697   4.922   0.590  0.8220 -0.5856 -1.5753
   82MOL   H26031202   3.931   5.023   0.483 -0.4461  3.5462  3.4897
   82MOL   H26131203   3.854   4.861   0.462  1.8966  0.5108 -0.6969
   82MOL   H26231204   4.075   4.927   0.649  0.8792  1.1121 -2.0054
   82MOL   H26331205   4.071   4.779   0.566 -0.0661 -0.1288  0.3197
   82MOL   H26431206   3.999   4.763   0.814  0.7518  0.3319 -0.5202
   82MOL   H26531207   3.883   4.702   0.702  0.4585 -0.7606  0.8361
   82MOL   H26631208   3.538   4.823   0.778  1.8653  2.2960  0.8744
   82MOL   H26731209   3.660   4.720   0.716  1.9679  1.9004 -1.1043
   82MOL   C26831210   3.569   4.642   0.890  0.7196 -0.1646 -0.0510
   82MOL   C26931211   3.567   4.510   0.800 -0.2137  0.4515  0.1485
   82MOL   C27031212   3.706   4.463   0.769  0.6568  0.3123 -0.0836
   82MOL   C27131213   3.698   4.400   0.633 -0.3870  0.2169 -0.2457
   82MOL   C27231214   3.556   4.419   0.576 -0.1123 -0.3816  0.3799
   82MOL   C27331215   3.490   4.518   0.667 -0.1530 -0.0027  0.0422
   82MOL   C27431216   3.426   4.683   0.928 -0.1226 -0.2460  0.4821
   82MOL   H27531217   3.624   4.628   0.984  0.4341  1.3710  0.3493
   82MOL   H27631218   3.525   4.423   0.850 -1.2951 -0.5895 -2.5364
   82MOL   H27731219   3.773   4.549   0.759  2.4661 -1.2341 -1.6578
   82MOL   H27831220   3.760   4.404   0.842 -2.2221  0.0882  1.9317
   82MOL   H27931221   3.769   4.437   0.559 -0.7601  0.3152 -0.5635
   82MOL   H28031222   3.713   4.293   0.647  1.6212  0.4401 -0.5336
   82MOL   H28131223   3.489   4.334   0.585  0.5644 -1.0331 -0.6830
   82MOL   H28231224   3.552   4.436   0.468 -0.9286 -1.3780  0.2472
   82MOL   H28331225   3.383   4.500   0.677 -0.3193  1.0117  0.1636
   82MOL   H28431226   3.494   4.613   0.614 -4.2740 -1.1052 -2.4391
   82MOL   H28531227   3.372   4.707   0.837  2.3496  0.1334 -0.9360
   82MOL   H28631228   3.426   4.779   0.979 -0.5091 -0.0384  0.0939
   82MOL   C28731229   3.338   4.588   1.007 -0.1786  0.4341 -0.2290
   82MOL   C28831230   3.398   4.562   1.155 -0.0513  0.3022  0.3632
   82MOL   C28931231   3.406   4.683   1.250 -0.1708 -0.2309  0.9023
   82MOL   C29031232   3.405   4.622   1.393  0.4902  0.5426 -0.1140
   82MOL   C29131233   3.296   4.521   1.371  0.0665  0.1283 -0.0494
   82MOL   C29231234   3.321   4.459   1.241  0.2218  1.0415  0.4240
   82MOL   C29331235   3.193   4.640   1.015 -0.3514  0.0605 -1.3136
   82MOL   H29431236   3.336   4.492   0.955  0.5121  0.2954  0.0015
   82MOL   H29531237   3.499   4.520   1.148  0.0869  0.2451  2.5624
   82MOL   H29631238   3.495   4.743   1.230  0.2917 -0.7388  1.4297
   82MOL   H29731239   3.324   4.753   1.239 -0.1297 -0.2620  0.3871
   82MOL   H29831240   3.501   4.579   1.423  0.7289  0.5923 -0.7990
   82MOL   H29931241   3.377   4.700   1.464 -1.2485  0.1889 -0.4067
   82MOL   H30031242   3.207   4.583   1.359 -0.3966 -0.6122 -0.4734
   82MOL   H30131243   3.282   4.447   1.449 -0.3955  2.8071  2.5308
   82MOL   H30231244   3.229   4.421   1.198  0.1831  1.7759 -0.1505
   82MOL   H30331245   3.380   4.369   1.260 -0.6100  1.0253  3.1981
   82MOL   H30431246   3.186   4.732   1.073 -0.5860  0.2380 -1.6234
   82MOL   H30531247   3.138   4.568   1.075 -0.5075 -0.7767 -2.4471
   82MOL   C30631248   3.114   4.631   0.882 -0.5330  0.2646 -0.1177
   82MOL   C30731249   3.021   4.505   0.866 -0.3821 -0.1857  0.2319
   82MOL   C30831250   3.095   4.369   0.846 -0.2934  0.2555  0.5295
   82MOL   C30931251   2.972   4.268   0.859 -0.4153 -0.2504  0.1786
   82MOL   C31031252   2.881   4.324   0.970  0.6827 -0.3078  0.2570
   82MOL   C31131253   2.909   4.472   0.977 -0.2753 -0.4226  0.7972
   82MOL   C31231254   3.041   4.769   0.874  0.1118 -0.2931  0.3367
   82MOL   H31331255   3.188   4.615   0.804 -0.4972 -4.4633  0.7574
   82MOL   H31431256   2.964   4.520   0.775  0.5990  2.3683 -0.0240
   82MOL   H31531257   3.154   4.334   0.930 -0.7812 -0.6441  0.5013
   82MOL   H31631258   3.148   4.352   0.752  0.1611 -1.4107  1.0723
   82MOL   H31731259   2.912   4.262   0.768  0.0465  2.5521 -0.3717
   82MOL   H31831260   2.999   4.165   0.880  1.0728  0.1853  0.4361
   82MOL   H31931261   2.908   4.278   1.065  0.8400 -0.0313  0.3484
   82MOL   H32031262   2.775   4.304   0.955  0.7239 -0.7976  0.6158
   82MOL   H32131263   2.819   4.532   0.962 -0.2395 -0.9354 -1.7200
   82MOL   H32231264   2.946   4.489   1.078  1.1021  1.0976  0.0665
   82MOL   H32331265   3.119   4.844   0.890 -1.8508  1.2836  2.7895
   82MOL   H32431266   2.971   4.777   0.957 -1.3333 -2.0261 -0.6912
   82MOL   C32531267   2.975   4.809   0.737  0.2217  0.1601  0.0872
   82MOL   C32631268   3.060   4.768   0.614 -0.1373  0.1029  0.3667
   82MOL   C32731269   3.187   4.851   0.583 -0.1331 -0.9868 -0.0549
   82MOL   C32831270   3.223   4.818   0.433  0.3991 -0.9196 -0.8162
   82MOL   C32931271   3.096   4.764   0.365  0.6407  0.4615 -0.1995
   82MOL   C33031272   2.989   4.764   0.469  0.7021  0.1408 -0.6868
   82MOL   C33131273   2.940   4.958   0.732 -0.4576 -0.7468 -0.3202
   82MOL   H33231274   2.887   4.745   0.733  1.1354 -1.2299  1.5630
   82MOL   H33331275   3.087   4.663   0.623  2.1847  0.5729 -0.7217
   82MOL   H33431276   3.269   4.830   0.652  0.0675 -1.2328 -0.3622
   82MOL   H33531277   3.163   4.957   0.590  2.4045 -0.0049 -4.3966
   82MOL   H33631278   3.300   4.741   0.432  1.4135  0.0023  1.9846
   82MOL   H33731279   3.265   4.903   0.379  0.6986 -0.9596 -0.6437
   82MOL   H33831280   3.118   4.665   0.325  0.6372  1.1630 -1.9526
   82MOL   H33931281   3.066   4.820   0.277  0.1777  2.2002  1.0577
   82MOL   H34031282   2.917   4.682   0.463  1.2375 -0.3690 -0.1589
   82MOL   H34131283   2.932   4.856   0.453  1.9443  0.7307 -1.7549
   82MOL   H34231284   2.949   4.995   0.630  2.3959 -0.4463 -0.0011
   82MOL   H34331285   3.027   5.014   0.768  0.0998  0.1181 -2.9182
   82MOL   C34431286   2.808   4.996   0.809 -0.1824 -0.4361  0.3340
   82MOL   C34531287   2.680   5.019   0.728 -0.7795 -0.1851 -0.3992
   82MOL   C34631288   2.659   4.896   0.640 -0.2798 -0.0191  0.1154
   82MOL   C34731289   2.549   4.940   0.545 -0.4935  0.5015 -0.1339
   82MOL   C34831290   2.549   5.091   0.528  0.1565 -1.1492 -0.0893
   82MOL   C34931291   2.659   5.141   0.634 -0.2621  0.5868  0.0545
   82MOL   C35031292   2.821   5.116   0.908 -0.1482  0.4921 -0.2559
   82MOL   H35131293   2.779   4.906   0.863  4.3119 -2.1998 -0.0013
   82MOL   H35231294   2.604   5.031   0.806  1.4105  2.4656  1.4356
   82MOL   H35331295   2.614   4.817   0.700 -0.8909  0.3449  0.1285
   82MOL   H35431296   2.737   4.854   0.575  0.6951  0.4969  0.9361
   82MOL   H35531297   2.551   4.889   0.448  3.0342 -0.7702  0.5060
   82MOL   H35631298   2.453   4.915   0.589 -0.1579 -1.0250 -0.2349
   82MOL   H35731299   2.449   5.124   0.556 -0.0933 -0.4053 -1.8380
   82MOL   H35831300   2.588   5.113   0.429 -1.5340  0.6997 -0.3562
   82MOL   H35931301   2.753   5.148   0.580  0.8323 -0.1080  1.8321
   82MOL   H36031302   2.632   5.228   0.694  0.4665 -1.0625  2.8751
   82MOL   H36131303   2.724   5.158   0.932  0.5431  1.7676  0.4068
   82MOL   H36231304   2.879   5.196   0.862 -1.4947  1.7627  0.2071
   82MOL   C36331305   2.890   5.071   1.040  0.1999  0.0838 -0.3277
   82MOL   C36431306   2.957   5.187   1.115  0.9525 -0.2151  0.9949
   82MOL   C36531307   3.047   5.281   1.038  0.1603 -0.8683  0.1048
   82MOL   C36631308   3.132   5.354   1.153  0.2154  0.2679  0.1129
   82MOL   C36731309   3.146   5.256   1.271  0.5623  0.0264 -0.0941
   82MOL   C36831310   3.041   5.146   1.242 -0.2610  0.5633  0.0380
   82MOL   C36931311   2.801   4.989   1.132  0.4059  0.2042 -0.4913
   82MOL   H37031312   2.969   5.005   1.004 -0.4261  0.0147 -1.6137
   82MOL   H37131313   2.872   5.239   1.159  1.4268 -0.9978  2.8917
   82MOL   H37231314   3.110   5.208   0.988 -0.0323 -0.5093 -0.6722
   82MOL   H37331315   2.995   5.350   0.971 -1.9463  1.5273  3.9903
   82MOL   H37431316   3.228   5.377   1.107  0.0835  0.6025  0.0032
   82MOL   H37531317   3.093   5.453   1.177  0.0940 -0.1108  1.5291
   82MOL   H37631318   3.244   5.206   1.268  0.9921  0.9761 -2.2792
   82MOL   H37731319   3.143   5.313   1.364 -1.4977  0.1749 -0.2419
   82MOL   H37831320   2.982   5.118   1.329  2.0755 -0.5407  1.3128
   82MOL   H37931321   3.096   5.054   1.222  0.5371  0.8142  1.0321
   82MOL   H38031322   2.733   4.925   1.075  1.0138 -0.3696 -0.5811
   82MOL   H38131323   2.740   5.042   1.204  1.9504 -1.3271  2.0288
   82MOL   H38231324   2.862   4.927   1.198 -0.2652 -0.2871 -0.3302
   83MOL     C131325   5.601   3.117   4.095 -0.5481 -0.4314 -0.4606
   83MOL     C231326   5.513   3.226   4.160  0.3995 -0.1426 -0.3029
   83MOL     C331327   5.588   3.338   4.242  0.1404 -0.1591  0.0639
   83MOL     C431328   5.491   3.387   4.349  0.3995  0.0568 -1.0335
   83MOL     C531329   5.358   3.309   4.323 -0.0164  0.4558  0.5035
   83MOL     C631330   5.401   3.184   4.252  0.5133  0.7596 -0.0123
   83MOL     C731331   5.535   3.045   3.975  0.0229 -0.0462  0.4266
   83MOL     H831332   5.695   3.166   4.067  0.0134 -0.3862  1.4185
   83MOL     H931333   5.474   3.287   4.079  0.1767 -0.3475 -0.3509
   83MOL    H1031334   5.675   3.298   4.295  0.2530 -2.5782 -1.8550
   83MOL    H1131335   5.637   3.409   4.176  1.6154 -0.2940  0.9705
   83MOL    H1231336   5.534   3.373   4.448 -0.8292  1.2883 -0.3054
   83MOL    H1331337   5.475   3.494   4.343  2.4517  0.5179  1.1571
   83MOL    H1431338   5.299   3.285   4.412  0.7576 -0.3785  0.7952
   83MOL    H1531339   5.288   3.370   4.266 -0.0099 -1.2555 -1.3615
   83MOL    H1631340   5.316   3.141   4.199  0.9203  0.3761 -0.3602
   83MOL    H1731341   5.427   3.102   4.319 -1.0103 -0.3158 -0.6945
   83MOL    H1831342   5.451   2.994   4.021 -1.3819  2.9020  1.1964
   83MOL    H1931343   5.489   3.114   3.904  1.0908  1.1125  0.8492
   83MOL    H2031344   5.635   3.046   4.171 -0.5933 -0.8827 -0.8636
   83MOL    C2131345   5.631   2.943   3.906 -0.0654 -0.0175  0.0321
   83MOL    C2231346   5.550   2.830   3.823 -0.1333  0.1460  0.6790
   83MOL    C2331347   5.469   2.884   3.701  0.1049 -0.0638  0.0980
   83MOL    C2431348   5.348   2.784   3.678 -0.1642 -0.3300 -0.0420
   83MOL    C2531349   5.349   2.694   3.802  0.8137 -0.3404  0.9404
   83MOL    C2631350   5.450   2.744   3.902  0.7528 -0.4473 -0.7352
   83MOL    C2731351   5.722   3.013   3.804 -0.0316  0.8516 -0.3962
   83MOL    H2831352   5.693   2.886   3.975  1.4627 -0.5647 -1.7510
   83MOL    H2931353   5.615   2.757   3.774 -2.9300 -1.6402 -0.5035
   83MOL    H3031354   5.528   2.882   3.609  0.4757 -4.5757  0.3297
   83MOL    H3131355   5.429   2.983   3.723  1.2122 -0.0884  2.4288
   83MOL    H3231356   5.247   2.823   3.663 -2.1604 -4.8526  0.9356
   83MOL    H3331357   5.364   2.724   3.589  1.3345 -2.4455  1.5957
   83MOL    H3431358   5.401   2.603   3.772  1.1294  0.6377 -1.5542
   83MOL    H3531359   5.257   2.661   3.849 -0.2967  1.6886  0.2352
   83MOL    H3631360   5.490   2.653   3.947 -1.5738 -1.2033 -0.1145
   83MOL    H3731361   5.399   2.800   3.980  1.6985  0.6845 -0.9214
   83MOL    H3831362   5.664   3.043   3.716 -0.8082 -1.0943 -0.5685
   83MOL    H3931363   5.751   3.111   3.843 -1.3517  1.3915 -0.7195
   83MOL    C4031364   5.849   2.936   3.762  0.3959 -0.2263  0.0374
   83MOL    C4131365   5.883   2.971   3.609  0.0922 -0.1314  0.2162
   83MOL    C4231366   5.774   2.924   3.508 -0.7309  0.0922  0.3183
   83MOL    C4331367   5.842   2.919   3.376 -0.2481  0.1684  0.8100
   83MOL    C4431368   5.980   2.860   3.402  0.3360 -0.3974  0.4091
   83MOL    C4531369   6.013   2.906   3.555 -0.3519  0.1001  0.2349
   83MOL    C4631370   5.966   2.975   3.863 -0.0485 -0.6875 -0.2420
   83MOL    H4731371   5.836   2.828   3.767 -0.5595 -0.2640 -2.4205
   83MOL    H4831372   5.895   3.079   3.603 -2.1113  0.2026  1.3865
   83MOL    H4931373   5.683   2.982   3.496 -0.2205  1.1785  1.5992
   83MOL    H5031374   5.750   2.823   3.540  0.8375 -0.3800  0.0582
   83MOL    H5131375   5.848   3.017   3.327  0.1730 -0.5864 -0.6835
   83MOL    H5231376   5.779   2.875   3.298 -0.5717  0.4604  0.9009
   83MOL    H5331377   5.987   2.752   3.389 -0.1610 -0.4764  0.7985
   83MOL    H5431378   6.054   2.901   3.333  1.2647 -1.9788  0.4361
   83MOL    H5531379   6.033   2.805   3.592 -1.1763  0.3455  1.3899
   83MOL    H5631380   6.095   2.974   3.579  1.6351 -2.2684  0.2881
   83MOL    H5731381   6.058   2.925   3.832 -1.0235 -2.7672  0.0984
   83MOL    H5831382   5.984   3.079   3.836  1.1146 -0.7602  0.2347
   83MOL    C5931383   5.951   2.957   4.013 -1.0340  0.2957  0.0984
   83MOL    C6031384   5.929   2.808   4.063 -0.0205 -0.0833  0.0226
   83MOL    C6131385   5.852   2.790   4.193 -0.0813 -0.4269 -0.4054
   83MOL    C6231386   5.858   2.647   4.226  0.7227  0.5346  0.0319
   83MOL    C6331387   5.997   2.601   4.164 -0.2877 -0.3066  0.3493
   83MOL    C6431388   6.050   2.716   4.074  0.1166  0.3477 -0.0745
   83MOL    C6531389   6.078   3.012   4.088 -0.1416 -0.5785  0.6610
   83MOL    H6631390   5.862   3.014   4.038 -1.0987  0.1969  0.0946
   83MOL    H6731391   5.860   2.758   3.995 -0.7176 -0.8877  1.3084
   83MOL    H6831392   5.746   2.815   4.193  0.3496  1.4146 -0.8578
   83MOL    H6931393   5.895   2.838   4.281 -1.7651 -2.0365  1.3713
   83MOL    H7031394   5.775   2.596   4.177 -0.3861  1.9095  0.4625
   83MOL    H7131395   5.852   2.640   4.334  0.6836  1.5515  0.0986
   83MOL    H7231396   5.985   2.501   4.121  0.1987 -0.6891  1.0961
   83MOL    H7331397   6.064   2.586   4.248 -2.7997 -1.4013  2.2457
   83MOL    H7431398   6.133   2.765   4.124 -0.0302  1.4153 -0.8716
   83MOL    H7531399   6.078   2.684   3.974  1.0111  1.6148 -0.2404
   83MOL    H7631400   6.166   2.987   4.029 -0.2634  0.5090  0.0066
   83MOL    H7731401   6.071   2.972   4.189 -0.4762 -1.0001  0.4730
   83MOL    C7831402   6.084   3.174   4.107 -0.2789  0.3014  1.0443
   83MOL    C7931403   5.984   3.232   4.216  0.2138  1.0915 -0.2476
   83MOL    C8031404   5.947   3.387   4.221 -0.0202  0.6873  0.4888
   83MOL    C8131405   5.919   3.412   4.366 -0.3032  0.8766 -0.7406
   83MOL    C8231406   5.930   3.284   4.447 -0.2051  0.5933 -1.2103
   83MOL    C8331407   6.018   3.192   4.356  0.2383  0.0226  0.1537
   83MOL    C8431408   6.227   3.227   4.120 -1.0605 -0.0054  0.1017
   83MOL    H8531409   6.049   3.211   4.010  0.3022  0.1758  0.7875
   83MOL    H8631410   5.889   3.186   4.190  0.6227 -0.9499  1.6387
   83MOL    H8731411   5.859   3.401   4.158  0.8641 -0.1581 -0.9625
   83MOL    H8831412   6.030   3.451   4.190 -0.6338  0.3611 -1.9211
   83MOL    H8931413   5.818   3.451   4.379  0.0575  1.7363 -0.5074
   83MOL    H9031414   5.997   3.483   4.391  1.0115  0.0638 -2.4184
   83MOL    H9131415   5.975   3.298   4.545 -3.1249  2.3781 -0.0860
   83MOL    H9231416   5.834   3.233   4.450  0.0786  0.1496  1.9899
   83MOL    H9331417   6.120   3.227   4.372 -0.6855  2.8285  0.2977
   83MOL    H9431418   6.000   3.088   4.384 -1.9529  0.3720  0.1337
   83MOL    H9531419   6.284   3.179   4.199 -1.0906  1.7121  1.2022
   83MOL    H9631420   6.214   3.330   4.155 -4.5185  0.6084 -2.7785
   83MOL    C9731421   6.313   3.238   3.988  0.6798 -0.2223 -0.0265
   83MOL    C9831422   6.472   3.244   4.022  0.2289 -0.0791  0.5151
   83MOL    C9931423   6.511   3.368   4.106 -0.4676 -0.2679  0.2367
   83MOL   C10031424   6.633   3.321   4.186  0.4266  0.3695  0.0924
   83MOL   C10131425   6.598   3.180   4.225 -0.7759 -0.2423 -0.1049
   83MOL   C10231426   6.528   3.123   4.100 -0.1895 -0.4937  0.4041
   83MOL   C10331427   6.267   3.372   3.908  0.5985  0.7275 -0.3860
   83MOL   H10431428   6.294   3.151   3.926  3.7276 -0.8523 -0.1271
   83MOL   H10531429   6.531   3.241   3.931  2.3543 -1.8898  1.9160
   83MOL   H10631430   6.526   3.454   4.040 -0.1927 -0.2335  0.3457
   83MOL   H10731431   6.432   3.394   4.177  1.0981 -2.0374  2.6761
   83MOL   H10831432   6.669   3.376   4.272  2.2896  0.6752 -0.8539
   83MOL   H10931433   6.717   3.311   4.118 -1.3816 -0.8611 -2.0389
   83MOL   H11031434   6.531   3.167   4.310  0.9515  0.5414  1.4019
   83MOL   H11131435   6.691   3.131   4.254  0.2161  1.0950 -0.9665
   83MOL   H11231436   6.598   3.061   4.045  0.7903  1.1747 -0.2793
   83MOL   H11331437   6.443   3.061   4.129 -1.2175  1.1924  1.0879
   83MOL   H11431438   6.158   3.377   3.908  0.5186 -0.6836 -0.4301
   83MOL   H11531439   6.291   3.457   3.971  1.6021  0.8715 -0.9545
   83MOL   C11631440   6.319   3.383   3.758 -0.2438  1.0879  0.1945
   83MOL   C11731441   6.222   3.313   3.656 -0.3562  0.7231  0.0073
   83MOL   C11831442   6.119   3.401   3.579  0.5657 -0.0480 -0.4801
   83MOL   C11931443   6.082   3.335   3.445 -0.0346 -0.2168 -0.8805
   83MOL   C12031444   6.200   3.254   3.420 -0.2821  0.7264 -0.3092
   83MOL   C12131445   6.295   3.242   3.543 -0.0609 -0.5010  0.2725
   83MOL   C12231446   6.361   3.526   3.737 -0.3878 -0.0172  0.6527
   83MOL   H12331447   6.412   3.326   3.753 -0.7850  0.1568  0.5209
   83MOL   H12431448   6.160   3.240   3.707  0.8284 -0.8565 -0.7672
   83MOL   H12531449   6.026   3.412   3.635  1.3617  0.3432  0.7843
   83MOL   H12631450   6.152   3.502   3.559 -0.1918  0.0856 -1.0955
   83MOL   H12731451   6.073   3.420   3.378  0.1105  1.8014  1.5825
   83MOL   H12831452   5.990   3.277   3.453 -1.1499  1.8825  2.8435
   83MOL   H12931453   6.251   3.288   3.330  0.7238 -0.2664 -0.1148
   83MOL   H13031454   6.156   3.159   3.391 -1.1737  1.4925 -1.5317
   83MOL   H13131455   6.318   3.136   3.555 -0.4634 -0.4588  1.4681
   83MOL   H13231456   6.392   3.288   3.527 -1.0749  1.1374 -1.2464
   83MOL   H13331457   6.428   3.562   3.815  0.0854 -1.3437  0.8609
   83MOL   H13431458   6.272   3.588   3.747  0.3570  1.3053 -0.6601
   83MOL   C13531459   6.425   3.565   3.602 -0.3254 -0.1835 -0.1453
   83MOL   C13631460   6.570   3.522   3.604  0.2208  0.1451  0.0924
   83MOL   C13731461   6.675   3.604   3.677  0.4082  0.9030 -0.0948
   83MOL   C13831462   6.810   3.568   3.624 -0.3486 -0.0520 -0.0621
   83MOL   C13931463   6.778   3.487   3.496  0.0734 -0.7110  0.3528
   83MOL   C14031464   6.627   3.501   3.470 -0.8256 -0.0500 -0.1321
   83MOL   C14131465   6.413   3.720   3.577 -0.5600 -0.2210  0.3556
   83MOL   H14231466   6.373   3.520   3.517  2.3910 -2.5142 -0.6355
   83MOL   H14331467   6.577   3.423   3.649 -0.2774 -0.5409 -1.2953
   83MOL   H14431468   6.663   3.712   3.662 -0.8821  0.7816 -0.0492
   83MOL   H14531469   6.667   3.596   3.786 -0.2928  1.2515 -0.1172
   83MOL   H14631470   6.862   3.506   3.697  1.1050 -0.1307 -1.1338
   83MOL   H14731471   6.872   3.655   3.604 -1.1848  0.4870 -0.3223
   83MOL   H14831472   6.812   3.385   3.509 -0.5390 -0.8293  1.0770
   83MOL   H14931473   6.835   3.530   3.414 -0.2060  0.7693  0.9173
   83MOL   H15031474   6.611   3.585   3.401 -0.9324  0.3245  0.3479
   83MOL   H15131475   6.588   3.411   3.424 -0.2540 -0.7464  0.7412
   83MOL   H15231476   6.500   3.748   3.517 -0.0026  0.6533  1.5330
   83MOL   H15331477   6.424   3.767   3.675 -1.8681  0.4642  0.1768
   83MOL   C15431478   6.281   3.777   3.509 -0.1035 -0.1862 -0.0601
   83MOL   C15531479   6.239   3.912   3.570 -1.0794  0.5962  0.3285
   83MOL   C15631480   6.352   4.033   3.564 -0.1565 -0.5756  0.5686
   83MOL   C15731481   6.333   4.106   3.695 -0.0725  0.0499  0.0064
   83MOL   C15831482   6.212   4.046   3.773 -0.5046 -0.1929  0.1468
   83MOL   C15931483   6.192   3.909   3.717  0.0437  0.0338  0.5345
   83MOL   C16031484   6.296   3.785   3.357 -0.6091  0.8863 -0.3097
   83MOL   H16131485   6.205   3.704   3.535 -1.1371  0.8014 -0.3013
   83MOL   H16231486   6.161   3.957   3.509  1.2299  0.6905 -2.6878
   83MOL   H16331487   6.453   3.994   3.555 -0.5303 -0.9981 -2.1019
   83MOL   H16431488   6.336   4.107   3.486  0.8557  0.1104  1.0037
   83MOL   H16531489   6.422   4.103   3.759 -1.9308  0.2451  2.7209
   83MOL   H16631490   6.313   4.212   3.682  1.2096 -0.0358 -2.9252
   83MOL   H16731491   6.137   4.116   3.736  2.3566  1.5577 -2.5894
   83MOL   H16831492   6.207   4.042   3.882 -1.4217 -0.8054  0.0833
   83MOL   H16931493   6.087   3.879   3.719 -0.5672  1.9717 -1.2442
   83MOL   H17031494   6.233   3.824   3.772 -1.6277 -0.1931  1.4685
   83MOL   H17131495   6.363   3.702   3.333 -1.1897  0.3127  0.0386
   83MOL   H17231496   6.358   3.863   3.313 -1.1317  1.1711 -0.5484
   83MOL   C17331497   6.165   3.770   3.266  0.1470  0.0765 -0.1239
   83MOL   C17431498   6.200   3.671   3.147  0.1831  0.2497  0.9003
   83MOL   C17531499   6.239   3.526   3.189 -0.2025 -0.7213 -0.4781
   83MOL   C17631500   6.376   3.497   3.124  0.8966 -0.4903 -0.4892
   83MOL   C17731501   6.391   3.591   3.005 -0.1930 -0.3510  0.6976
   83MOL   C17831502   6.315   3.717   3.047  0.2650  0.2564  0.7515
   83MOL   C17931503   6.118   3.902   3.210  0.2374 -0.0354  0.0533
   83MOL   H18031504   6.094   3.713   3.326 -0.3351  0.3095 -0.4679
   83MOL   H18131505   6.111   3.656   3.085  0.0276 -2.1733  1.6621
   83MOL   H18231506   6.163   3.464   3.143 -1.0609  1.0124 -1.4468
   83MOL   H18331507   6.236   3.520   3.298 -0.2803  0.8462 -0.3786
   83MOL   H18431508   6.453   3.498   3.201  2.0657 -1.2349 -1.6228
   83MOL   H18531509   6.383   3.395   3.087  3.6442 -1.1639  1.7227
   83MOL   H18631510   6.342   3.554   2.915 -2.8207  1.2618  1.4251
   83MOL   H18731511   6.497   3.605   2.986  0.1673 -2.6291  0.8471
   83MOL   H18831512   6.391   3.774   3.101  0.2772  1.6284 -0.6753
   83MOL   H18931513   6.281   3.785   2.969  0.3631  0.3570  0.7958
   83MOL   H19031514   6.145   3.974   3.286 -1.1581  0.7993 -0.2107
   83MOL   H19131515   6.162   3.946   3.121 -3.3278  2.5180 -0.5798
   83MOL   C19231516   5.969   3.905   3.176  0.3689  0.4626  0.2909
   83MOL   C19331517   5.917   4.007   3.071 -0.0609  0.0866  0.0183
   83MOL   C19431518   5.972   3.990   2.925 -0.1421  0.2314 -0.2920
   83MOL   C19531519   6.028   4.127   2.878 -0.1579  0.2895 -0.8909
   83MOL   C19631520   5.973   4.228   2.974  0.5309  0.5115 -0.1371
   83MOL   C19731521   5.958   4.151   3.109  0.3454  0.0816 -0.5989
   83MOL   C19831522   5.883   3.904   3.304  0.0283  0.0872 -1.1406
   83MOL   H19931523   5.954   3.810   3.123 -0.7916  1.8433 -1.9170
   83MOL   H20031524   5.809   4.019   3.067 -0.1031  0.2177  1.2199
   83MOL   H20131525   5.885   3.965   2.865 -1.9399 -0.8648  2.6544
   83MOL   H20231526   6.048   3.912   2.913  2.3979  2.4191  0.9854
   83MOL   H20331527   6.135   4.123   2.855  0.4552 -0.9842  1.9639
   83MOL   H20431528   5.982   4.146   2.782  0.2200  0.9457 -0.9451
   83MOL   H20531529   5.884   4.278   2.934 -0.1874 -1.0481 -0.5004
   83MOL   H20631530   6.045   4.311   2.974  0.6103  0.4684 -1.8524
   83MOL   H20731531   5.881   4.187   3.178 -0.9637 -0.7733 -1.5869
   83MOL   H20831532   6.051   4.168   3.164  0.0275  1.9652 -0.6173
   83MOL   H20931533   5.941   3.864   3.387 -0.0629  1.2521 -0.5059
   83MOL   H21031534   5.859   4.005   3.335 -5.4257 -1.3592 -0.1099
   83MOL   C21131535   5.745   3.827   3.303  0.3576 -0.4691  0.4349
   83MOL   C21231536   5.767   3.672   3.310  0.2964  0.2094  0.2017
   83MOL   C21331537   5.813   3.603   3.442  0.3809  0.1547 -0.6996
   83MOL   C21431538   5.739   3.464   3.443  0.0870  0.3191 -0.6627
   83MOL   C21531539   5.606   3.481   3.364 -0.8184  0.8576 -0.0063
   83MOL   C21631540   5.640   3.599   3.269  0.6730  0.5557  0.5805
   83MOL   C21731541   5.654   3.871   3.419  0.0244  0.3274  0.0126
   83MOL   H21831542   5.701   3.845   3.205  2.9946  2.2705 -0.3018
   83MOL   H21931543   5.855   3.649   3.250  0.8273 -0.0265  1.0682
   83MOL   H22031544   5.921   3.599   3.431  0.5381 -1.2930  1.2253
   83MOL   H22131545   5.795   3.656   3.536  0.4612  0.5463 -0.9028
   83MOL   H22231546   5.800   3.385   3.399 -0.1851  0.3496 -1.0932
   83MOL   H22331547   5.725   3.428   3.545  0.8409  0.1464 -0.6159
   83MOL   H22431548   5.529   3.518   3.432 -1.6511  1.0333 -1.0468
   83MOL   H22531549   5.577   3.389   3.313  1.2463 -0.6663  1.4387
   83MOL   H22631550   5.655   3.543   3.176  1.0147  2.1865 -0.3742
   83MOL   H22731551   5.553   3.659   3.245 -0.4025 -1.5534 -0.9870
   83MOL   H22831552   5.713   3.878   3.510 -0.7360  0.9528  0.4724
   83MOL   H22931553   5.581   3.797   3.454  0.6050 -0.2448  0.0179
   83MOL   C23031554   5.567   3.992   3.388  0.1863 -0.4165 -0.3843
   83MOL   C23131555   5.539   4.069   3.515 -0.2928 -0.5492 -0.6865
   83MOL   C23231556   5.489   4.003   3.643  0.3129  0.3709  0.4962
   83MOL   C23331557   5.502   4.119   3.748 -0.5414 -0.2781  0.6427
   83MOL   C23431558   5.591   4.228   3.685 -0.2061 -0.2517 -0.6283
   83MOL   C23531559   5.656   4.156   3.566  0.0022  0.0749 -0.0243
   83MOL   C23631560   5.436   3.961   3.308  0.6939  0.3988 -1.0419
   83MOL   H23731561   5.632   4.058   3.331  0.3295  0.5692  0.8921
   83MOL   H23831562   5.462   4.140   3.485 -2.0362 -1.8060  0.6846
   83MOL   H23931563   5.392   3.954   3.635  0.3720  0.0210  1.7728
   83MOL   H24031564   5.557   3.929   3.687  1.7800  0.4680 -1.5394
   83MOL   H24131565   5.403   4.156   3.774 -0.7971 -0.7308  0.3241
   83MOL   H24231566   5.539   4.067   3.837  2.3427 -0.3915 -0.5764
   83MOL   H24331567   5.669   4.263   3.752 -0.2457  0.2546 -0.8474
   83MOL   H24431568   5.524   4.309   3.659  1.7661  1.5018 -0.3482
   83MOL   H24531569   5.734   4.093   3.608 -0.1270 -0.8171 -1.1072
   83MOL   H24631570   5.697   4.234   3.501 -2.3976  1.4560  0.0326
   83MOL   H24731571   5.360   3.952   3.385  0.1725 -0.9625 -1.7095
   83MOL   H24831572   5.436   3.869   3.250  0.7305 -0.0261 -0.3762
   83MOL   C24931573   5.390   4.070   3.213  0.0042 -0.0873  0.5980
   83MOL   C25031574   5.239   4.069   3.186 -0.0612 -0.0282 -0.0036
   83MOL   C25131575   5.134   4.096   3.299  0.6085  0.2833 -0.3361
   83MOL   C25231576   4.993   4.043   3.252  0.2697 -0.4968 -0.5687
   83MOL   C25331577   5.025   3.945   3.139  0.6263  0.6164  0.2248
   83MOL   C25431578   5.177   3.935   3.143  0.8120  0.2737 -0.5388
   83MOL   C25531579   5.476   4.074   3.086  0.2183 -0.9055  0.4395
   83MOL   H25631580   5.414   4.165   3.262 -0.4140  0.0798  0.4853
   83MOL   H25731581   5.209   4.139   3.108 -0.5321 -0.4278 -0.1752
   83MOL   H25831582   5.124   4.200   3.330 -3.0787 -0.3829  0.8812
   83MOL   H25931583   5.170   4.045   3.388  0.0296  2.3145  1.1126
   83MOL   H26031584   4.928   4.127   3.228  1.5907  1.0991  1.3066
   83MOL   H26131585   4.932   3.997   3.331 -0.0719 -0.4344 -0.7982
   83MOL   H26231586   4.990   3.986   3.044 -0.7219  0.5783  0.6902
   83MOL   H26331587   4.984   3.845   3.156  0.7099  0.7132  0.9884
   83MOL   H26431588   5.207   3.903   3.044 -0.7045 -0.7193 -0.6830
   83MOL   H26531589   5.212   3.863   3.217 -1.0193 -0.6263 -0.5217
   83MOL   H26631590   5.579   4.050   3.109  0.8434  1.7297  0.5342
   83MOL   H26731591   5.427   4.000   3.023 -0.4073  0.1916 -0.3908
   83MOL   C26831592   5.476   4.214   3.019 -0.5349  0.0049 -0.1054
   83MOL   C26931593   5.508   4.195   2.869 -0.3477  0.1875 -0.2735
   83MOL   C27031594   5.398   4.124   2.787 -0.2113  0.3566 -0.4765
   83MOL   C27131595   5.469   4.098   2.660  0.2072 -0.5715  0.0244
   83MOL   C27231596   5.617   4.060   2.691 -0.4540 -0.6680 -0.0544
   83MOL   C27331597   5.644   4.141   2.820 -0.1671 -0.0249 -0.0054
   83MOL   C27431598   5.574   4.312   3.088  0.0662  0.0620 -0.1130
   83MOL   H27531599   5.378   4.260   3.030 -1.0978 -1.5361  1.7212
   83MOL   H27631600   5.506   4.296   2.827  3.1046  1.1616  1.7152
   83MOL   H27731601   5.356   4.032   2.826  0.7476 -1.1492 -2.8997
   83MOL   H27831602   5.314   4.191   2.771 -0.2642 -0.3602 -3.4993
   83MOL   H27931603   5.419   4.022   2.599  0.5435  1.0366 -2.3552
   83MOL   H28031604   5.479   4.185   2.595  0.8568 -0.7643 -0.1399
   83MOL   H28131605   5.688   4.081   2.611  0.1203  0.2035  0.6704
   83MOL   H28231606   5.624   3.955   2.720 -1.5416 -1.1637 -1.5724
   83MOL   H28331607   5.706   4.228   2.797 -0.6470  0.5268  0.7840
   83MOL   H28431608   5.686   4.093   2.908  0.2961 -0.5544 -0.5134
   83MOL   H28531609   5.654   4.334   3.018  0.4378 -0.8987 -0.0011
   83MOL   H28631610   5.631   4.261   3.166 -4.2490 -1.3893  2.2283
   83MOL   C28731611   5.525   4.449   3.149  0.8006 -0.0908 -0.2751
   83MOL   C28831612   5.398   4.446   3.243  0.7668  0.0740  0.2316
   83MOL   C28931613   5.421   4.401   3.385  0.0877 -0.5141  0.0386
   83MOL   C29031614   5.423   4.532   3.475 -0.2155 -0.5394 -0.1643
   83MOL   C29131615   5.344   4.630   3.392  0.3323  0.0280 -0.0085
   83MOL   C29231616   5.319   4.575   3.252 -0.2151 -0.4721  0.5904
   83MOL   C29331617   5.635   4.560   3.182 -0.1422 -0.1048 -0.1479
   83MOL   H29431618   5.485   4.491   3.057  0.9661 -1.6762 -1.0872
   83MOL   H29531619   5.334   4.367   3.204 -1.6564  0.4117  3.2829
   83MOL   H29631620   5.341   4.337   3.421 -0.5725 -0.3632 -1.1195
   83MOL   H29731621   5.515   4.347   3.396 -1.2451 -2.4742  2.0871
   83MOL   H29831622   5.375   4.516   3.571 -0.8695 -0.6101 -0.4986
   83MOL   H29931623   5.521   4.572   3.500 -0.7303 -0.6362  2.1089
   83MOL   H30031624   5.399   4.723   3.378 -0.1161  0.3950  0.5999
   83MOL   H30131625   5.255   4.657   3.449 -0.2906 -1.8684 -0.0727
   83MOL   H30231626   5.333   4.650   3.174  3.1677  0.3064  1.8792
   83MOL   H30331627   5.212   4.551   3.247 -0.0824 -1.2156  1.2180
   83MOL   H30431628   5.662   4.534   3.285 -0.0643  2.4435  0.4972
   83MOL   H30531629   5.591   4.658   3.194  0.4908  0.1638  0.0054
   83MOL   C30631630   5.759   4.564   3.093 -1.1753 -0.5691  0.0871
   83MOL   C30731631   5.731   4.628   2.949 -0.7374 -0.2856  0.0783
   83MOL   C30831632   5.690   4.775   2.943  0.0102 -0.2377  0.0572
   83MOL   C30931633   5.783   4.835   2.837  0.6551 -0.6817 -0.5405
   83MOL   C31031634   5.833   4.726   2.746 -0.7826 -0.1999 -0.1054
   83MOL   C31131635   5.846   4.606   2.845  0.0767  0.5153 -0.0190
   83MOL   C31231636   5.874   4.647   3.162  0.7514 -0.3686 -0.4404
   83MOL   H31331637   5.802   4.464   3.078 -0.2303 -0.3278  1.1312
   83MOL   H31431638   5.642   4.580   2.908 -0.5071  0.4564 -1.3379
   83MOL   H31531639   5.701   4.815   3.044  1.5499  0.1582 -0.2537
   83MOL   H31631640   5.583   4.776   2.919  0.2079 -1.0266 -0.9027
   83MOL   H31731641   5.734   4.914   2.779  0.1805 -1.5141 -1.2951
   83MOL   H31831642   5.868   4.878   2.889  2.9429 -3.7860 -1.5996
   83MOL   H31931643   5.931   4.748   2.703  0.6961 -2.5335  1.8827
   83MOL   H32031644   5.758   4.715   2.668 -2.4319 -0.1568  1.4505
   83MOL   H32131645   5.834   4.504   2.809  3.4363  0.4783 -1.2625
   83MOL   H32231646   5.946   4.624   2.885 -0.2586  0.7291  0.7305
   83MOL   H32331647   5.823   4.714   3.231  1.5946 -1.2281  1.0370
   83MOL   H32431648   5.930   4.704   3.088  1.8715 -1.8890 -0.7781
   83MOL   C32531649   5.995   4.576   3.234  0.9280 -0.0876  0.1422
   83MOL   C32631650   5.954   4.484   3.352  0.5238  0.5556 -0.4978
   83MOL   C32731651   5.907   4.561   3.471  0.1809 -0.2207 -0.8799
   83MOL   C32831652   5.966   4.485   3.591  0.5301 -0.5330  0.6872
   83MOL   C32931653   6.105   4.442   3.536  0.6637 -0.1015 -0.7014
   83MOL   C33031654   6.070   4.395   3.404  1.1479 -0.0918 -0.0742
   83MOL   C33131655   6.111   4.674   3.276 -1.0053 -0.5827 -0.2448
   83MOL   H33231656   6.032   4.510   3.155  2.1816  1.5069 -0.6305
   83MOL   H33331657   5.875   4.419   3.314 -1.8157  2.3400  1.1706
   83MOL   H33431658   5.799   4.565   3.480  0.2263 -0.3008 -0.3100
   83MOL   H33531659   5.946   4.663   3.472  1.5597 -0.7328 -1.6593
   83MOL   H33631660   5.904   4.397   3.608 -1.4699  1.3084  3.3312
   83MOL   H33731661   5.976   4.528   3.691  3.2271 -1.7625  1.0063
   83MOL   H33831662   6.137   4.367   3.608 -1.8619 -0.2521  0.3435
   83MOL   H33931663   6.178   4.523   3.537 -0.1842  0.6742  1.4294
   83MOL   H34031664   6.057   4.288   3.419  0.7749 -0.1917 -1.0579
   83MOL   H34131665   6.162   4.403   3.345  1.1411  0.7293  0.0294
   83MOL   H34231666   6.187   4.615   3.326 -0.9710  0.4005  0.9041
   83MOL   H34331667   6.080   4.743   3.355  0.1313 -0.8738  0.4549
   83MOL   C34431668   6.192   4.735   3.157  0.3317 -0.1219 -0.4741
   83MOL   C34531669   6.233   4.628   3.046 -0.1413 -0.5582  0.1658
   83MOL   C34631670   6.326   4.514   3.091 -0.6827  0.5137 -0.5192
   83MOL   C34731671   6.377   4.454   2.950  0.0763 -0.3118 -0.7493
   83MOL   C34831672   6.378   4.563   2.850 -0.0147 -0.0905 -0.1108
   83MOL   C34931673   6.313   4.681   2.919 -0.1611 -0.2877  0.1702
   83MOL   C35031674   6.309   4.814   3.218 -0.0264 -0.6802 -0.7171
   83MOL   H35131675   6.115   4.801   3.117  1.5053  0.9054 -1.0571
   83MOL   H35231676   6.142   4.578   3.011 -0.4438  0.1528 -0.0832
   83MOL   H35331677   6.272   4.442   3.154  1.0841  0.1389  0.5877
   83MOL   H35431678   6.404   4.566   3.146 -0.6549  0.3926 -0.4431
   83MOL   H35531679   6.477   4.412   2.959  0.2365 -0.1210 -1.6516
   83MOL   H35631680   6.306   4.376   2.923  0.1889 -0.9580  0.7385
   83MOL   H35731681   6.305   4.547   2.770 -0.6235  1.6817  0.0627
   83MOL   H35831682   6.481   4.577   2.816  0.0113  0.1078  0.0426
   83MOL   H35931683   6.387   4.752   2.958 -1.5681  0.6456  1.1710
   83MOL   H36031684   6.247   4.739   2.855  0.7115  0.5468  0.0106
   83MOL   H36131685   6.373   4.860   3.143  1.0409 -0.3405  0.3854
   83MOL   H36231686   6.381   4.750   3.269  1.4414  0.0861 -1.8233
   83MOL   C36331687   6.279   4.936   3.311 -0.1080 -0.9430 -0.2188
   83MOL   C36431688   6.412   4.998   3.363 -0.1705  1.0353  0.2416
   83MOL   C36531689   6.404   5.114   3.459 -0.0889  0.1785  0.3699
   83MOL   C36631690   6.505   5.223   3.419  0.2596  0.2549  0.0719
   83MOL   C36731691   6.590   5.165   3.307 -0.1886 -0.0965 -0.1106
   83MOL   C36831692   6.510   5.046   3.244  0.1599 -0.6773  0.0934
   83MOL   C36931693   6.175   5.037   3.252  0.5214  0.4217 -0.6520
   83MOL   H37031694   6.227   4.898   3.399 -0.5811 -1.2214 -0.6148
   83MOL   H37131695   6.463   4.921   3.419  0.3817  1.5282  0.4292
   83MOL   H37231696   6.303   5.151   3.477 -0.2279 -0.3320  0.6399
   83MOL   H37331697   6.436   5.076   3.556 -2.2798 -0.3419  0.9250
   83MOL   H37431698   6.461   5.317   3.384  0.1530 -0.6416 -2.3079
   83MOL   H37531699   6.569   5.249   3.503  1.8419 -1.7357 -0.4795
   83MOL   H37631700   6.608   5.241   3.230 -0.0544 -0.5778 -0.5577
   83MOL   H37731701   6.685   5.135   3.351 -0.8043 -3.1180 -0.7320
   83MOL   H37831702   6.588   4.975   3.219  1.1517  1.0557 -1.9226
   83MOL   H37931703   6.457   5.057   3.149 -1.5607  1.9108  1.2611
   83MOL   H38031704   6.203   5.066   3.150 -0.6484  1.6830 -0.6325
   83MOL   H38131705   6.170   5.130   3.309 -1.9880  0.2760 -0.6081
   83MOL   H38231706   6.072   5.005   3.261  0.8266  0.2270  2.4632
   84MOL     C131707   3.408   5.806   1.254  0.2072 -0.2401 -0.1754
   84MOL     C231708   3.552   5.829   1.304 -0.0267 -0.2024 -0.5751
   84MOL     C331709   3.648   5.709   1.269  0.5683 -0.4746  0.4075
   84MOL     C431710   3.755   5.713   1.384 -0.0920  0.3813  0.3858
   84MOL     C531711   3.711   5.806   1.494 -0.4551  0.4120 -0.0130
   84MOL     C631712   3.564   5.846   1.463  0.1690 -0.6694 -0.1104
   84MOL     C731713   3.315   5.916   1.314  0.1037  0.7272 -0.3184
   84MOL     H831714   3.389   5.807   1.146  0.2823  0.6565 -0.1860
   84MOL     H931715   3.585   5.918   1.250  3.5311 -0.6111  0.8221
   84MOL    H1031716   3.592   5.615   1.267 -1.2548  0.5864 -0.8593
   84MOL    H1131717   3.692   5.720   1.170 -0.3750  1.0258  0.1304
   84MOL    H1231718   3.770   5.608   1.407 -0.3824  0.1225 -0.5632
   84MOL    H1331719   3.849   5.750   1.343  0.0108 -0.5055 -0.2059
   84MOL    H1431720   3.727   5.763   1.592 -0.0827  0.3896 -0.0838
   84MOL    H1531721   3.757   5.904   1.501 -0.7887  0.7134 -1.6495
   84MOL    H1631722   3.536   5.948   1.493 -0.2016 -1.1144  1.0755
   84MOL    H1731723   3.496   5.773   1.505  2.8442 -2.4656  1.1641
   84MOL    H1831724   3.307   5.907   1.423 -0.9528 -2.7041 -0.6318
   84MOL    H1931725   3.362   6.013   1.297 -1.3027  1.2567 -1.2122
   84MOL    H2031726   3.381   5.709   1.294 -1.9497 -0.3733 -1.8766
   84MOL    C2131727   3.176   5.911   1.246 -0.5279 -0.3252 -0.4917
   84MOL    C2231728   3.107   5.772   1.262  0.2959 -0.1139  0.5329
   84MOL    C2331729   2.982   5.741   1.165 -0.3481  0.2978 -0.2027
   84MOL    C2431730   2.872   5.684   1.255  0.1618  0.7819 -0.6641
   84MOL    C2531731   2.941   5.642   1.382  0.5272 -0.4598 -0.3194
   84MOL    C2631732   3.055   5.741   1.406  0.4264 -0.6052 -0.1178
   84MOL    C2731733   3.089   6.032   1.293  0.4257  0.1781 -0.3065
   84MOL    H2831734   3.197   5.936   1.143  1.8590 -1.6345 -0.3505
   84MOL    H2931735   3.183   5.701   1.229  0.6757  0.1758  0.7755
   84MOL    H3031736   3.014   5.669   1.090  0.2073 -1.4953  1.6900
   84MOL    H3131737   2.931   5.825   1.119 -1.4813  0.6683  1.6509
   84MOL    H3231738   2.798   5.762   1.271  0.4235  0.7400  0.8143
   84MOL    H3331739   2.817   5.601   1.211 -0.7845  0.9577  0.1648
   84MOL    H3431740   2.984   5.542   1.371  0.1092 -0.9216  2.0611
   84MOL    H3531741   2.869   5.632   1.463  2.0864  0.5201  1.2219
   84MOL    H3631742   3.132   5.699   1.470  0.6266 -0.7194 -0.4291
   84MOL    H3731743   3.012   5.828   1.455 -1.4552 -2.4077  1.5153
   84MOL    H3831744   2.988   5.992   1.281 -0.7215  1.7671  3.4077
   84MOL    H3931745   3.077   6.036   1.401 -1.5448  0.3843 -0.5011
   84MOL    C4031746   3.104   6.177   1.224  0.9826  0.4246  0.1498
   84MOL    C4131747   2.985   6.210   1.131  0.4666  0.2275  0.0703
   84MOL    C4231748   2.852   6.241   1.212 -0.6718  0.2761  0.7567
   84MOL    C4331749   2.746   6.205   1.112  0.1018 -0.1368  0.2800
   84MOL    C4431750   2.795   6.086   1.023 -0.4529 -0.0798  0.0190
   84MOL    C4531751   2.946   6.115   1.011  0.3073  0.4337 -0.3318
   84MOL    C4631752   3.125   6.289   1.326 -0.5499  0.4394  0.1364
   84MOL    H4731753   3.194   6.165   1.163  0.3220  0.9652 -0.9427
   84MOL    H4831754   3.001   6.301   1.074 -0.9580 -0.4208 -1.4289
   84MOL    H4931755   2.848   6.343   1.251  2.4920  0.7751 -0.0751
   84MOL    H5031756   2.845   6.170   1.294  1.3080 -1.4960 -0.5289
   84MOL    H5131757   2.742   6.298   1.056  2.8390  0.2028  0.5695
   84MOL    H5231758   2.645   6.194   1.150  0.2340  1.5835  1.2121
   84MOL    H5331759   2.781   5.992   1.077  0.7648 -0.8431 -0.9522
   84MOL    H5431760   2.747   6.078   0.925 -1.1227  0.9029  0.2669
   84MOL    H5531761   3.007   6.025   1.007 -1.6884 -0.9451 -0.3403
   84MOL    H5631762   2.958   6.155   0.910  1.6557  0.0418 -0.3421
   84MOL    H5731763   3.101   6.384   1.278 -0.0147  1.3501  1.6320
   84MOL    H5831764   3.049   6.287   1.404 -0.7816 -0.4954 -0.1063
   84MOL    C5931765   3.255   6.287   1.405  0.0118  0.1009  0.3623
   84MOL    C6031766   3.353   6.392   1.347 -0.3333 -0.3130  0.0740
   84MOL    C6131767   3.380   6.367   1.199  0.2637 -0.0626  0.2429
   84MOL    C6231768   3.513   6.445   1.167 -0.2149  0.1958  0.7649
   84MOL    C6331769   3.583   6.464   1.305 -0.1519  0.5880  0.2353
   84MOL    C6431770   3.491   6.390   1.411 -0.4821 -0.8069 -0.5751
   84MOL    C6531771   3.231   6.318   1.555  0.0274  0.7021 -0.1867
   84MOL    H6631772   3.300   6.188   1.401 -1.0283 -0.3352 -0.5473
   84MOL    H6731773   3.313   6.493   1.357  0.7948  0.4021 -2.2138
   84MOL    H6831774   3.296   6.398   1.137  0.4774 -2.5334 -1.3675
   84MOL    H6931775   3.397   6.260   1.184 -3.2667 -0.9210  1.6355
   84MOL    H7031776   3.488   6.542   1.124 -0.4178 -0.6744 -1.1192
   84MOL    H7131777   3.578   6.379   1.109 -0.6726 -0.7611  1.3262
   84MOL    H7231778   3.614   6.567   1.324 -0.4184  0.3009  2.3909
   84MOL    H7331779   3.683   6.419   1.301 -0.2218  0.3191  1.3293
   84MOL    H7431780   3.521   6.286   1.426  2.9894  0.2797  0.5052
   84MOL    H7531781   3.504   6.445   1.504  0.0931 -0.1640 -1.0267
   84MOL    H7631782   3.185   6.416   1.564 -2.4489 -0.3567 -0.8437
   84MOL    H7731783   3.327   6.343   1.601  0.5555 -0.5931 -0.5694
   84MOL    C7831784   3.155   6.214   1.643  0.3634 -0.6957  0.3565
   84MOL    C7931785   3.243   6.094   1.660 -0.3992 -0.3346  0.0001
   84MOL    C8031786   3.172   5.963   1.716 -0.7490  0.0066  0.2513
   84MOL    C8131787   3.291   5.875   1.747  0.4061  0.8171 -0.3717
   84MOL    C8231788   3.410   5.959   1.780  0.3518 -0.4366 -0.7072
   84MOL    C8331789   3.376   6.100   1.742  0.3990 -0.7206 -0.0715
   84MOL    C8431790   3.107   6.281   1.776 -0.1943  0.0217 -0.3554
   84MOL    H8531791   3.067   6.185   1.586  0.4040 -0.7430  0.3184
   84MOL    H8631792   3.280   6.075   1.559 -0.1134 -0.8467  0.1973
   84MOL    H8731793   3.119   5.911   1.637 -1.3836 -2.4406  2.1979
   84MOL    H8831794   3.108   5.987   1.801 -0.8787  0.1108  0.1233
   84MOL    H8931795   3.318   5.816   1.660 -0.2117 -0.4873  0.3069
   84MOL    H9031796   3.281   5.807   1.832  2.0634 -0.8596 -1.4884
   84MOL    H9131797   3.432   5.953   1.887  2.2608  0.5812 -1.0363
   84MOL    H9231798   3.497   5.917   1.729 -1.5581 -1.8371 -2.9007
   84MOL    H9331799   3.367   6.162   1.831 -0.6854 -0.3099 -0.4605
   84MOL    H9431800   3.456   6.129   1.675  1.4503 -1.0981  1.0082
   84MOL    H9531801   3.200   6.294   1.832 -1.2560  1.8557  1.0329
   84MOL    H9631802   3.044   6.207   1.825 -0.9665  2.3183  2.2541
   84MOL    C9731803   3.020   6.407   1.768  0.0533 -0.2446 -0.8617
   84MOL    C9831804   2.962   6.447   1.906  0.1802 -0.3401  0.2221
   84MOL    C9931805   3.056   6.414   2.025  0.1749 -0.5361 -0.5323
   84MOL   C10031806   3.021   6.518   2.133  0.0899 -0.9693  0.3391
   84MOL   C10131807   3.010   6.649   2.050  0.0513 -0.1284 -0.2994
   84MOL   C10231808   2.938   6.608   1.921  0.1792  0.2439  0.1060
   84MOL   C10331809   2.905   6.402   1.656  0.0314  0.6387  0.2382
   84MOL   H10431810   3.086   6.487   1.736 -0.2706  0.8630  1.1360
   84MOL   H10531811   2.866   6.398   1.921 -0.5738  1.0679  0.0964
   84MOL   H10631812   3.040   6.312   2.061  1.5341 -0.0490  1.5247
   84MOL   H10731813   3.164   6.412   2.007  0.6166 -0.9931  1.9533
   84MOL   H10831814   3.102   6.531   2.204  0.1219 -0.4601  0.2088
   84MOL   H10931815   2.933   6.483   2.186  0.9951 -1.6923  1.3907
   84MOL   H11031816   3.110   6.675   2.016  0.0709  0.8010  0.4580
   84MOL   H11131817   2.971   6.731   2.111  1.5401  0.6934 -0.4278
   84MOL   H11231818   2.833   6.627   1.945 -0.2380  0.9181 -2.1713
   84MOL   H11331819   2.976   6.669   1.840 -0.6997  0.0864 -0.4353
   84MOL   H11431820   2.932   6.363   1.558 -1.1450  0.3309  0.0367
   84MOL   H11531821   2.832   6.329   1.690  0.9301 -0.4006 -0.0456
   84MOL   C11631822   2.814   6.523   1.621  0.1848  0.2064 -0.4719
   84MOL   C11731823   2.911   6.633   1.576 -0.7142  0.1269 -0.6259
   84MOL   C11831824   2.958   6.611   1.437 -0.1531 -0.7512 -0.4727
   84MOL   C11931825   2.946   6.750   1.371 -0.0693 -0.1891  0.9634
   84MOL   C12031826   2.835   6.821   1.449  0.4531 -0.0847 -0.2914
   84MOL   C12131827   2.855   6.776   1.593 -0.0056 -0.3932  0.2129
   84MOL   C12231828   2.694   6.491   1.527 -0.4801  0.1406 -0.5021
   84MOL   H12331829   2.778   6.559   1.718 -1.9191  1.0862 -1.5331
   84MOL   H12431830   3.002   6.645   1.635 -2.0494 -0.6394  1.6551
   84MOL   H12531831   3.058   6.572   1.416  1.1884  2.6559 -0.6874
   84MOL   H12631832   2.888   6.540   1.392 -1.6060 -0.7089  1.6721
   84MOL   H12731833   2.920   6.746   1.266 -0.1346  0.5432  0.9454
   84MOL   H12831834   3.036   6.810   1.389  0.4266 -1.5650  3.2172
   84MOL   H12931835   2.747   6.770   1.408  0.3793 -0.7719  0.7119
   84MOL   H13031836   2.813   6.925   1.422  0.3343  0.6170  2.3265
   84MOL   H13131837   2.924   6.846   1.640 -0.4877 -0.0536  0.4092
   84MOL   H13231838   2.763   6.774   1.651 -0.0828  0.4308  0.1252
   84MOL   H13331839   2.731   6.425   1.448  2.2505  3.5109 -2.1830
   84MOL   H13431840   2.671   6.582   1.473  0.5249  2.0757  2.2338
   84MOL   C13531841   2.578   6.430   1.598  0.2583  0.2660 -0.1051
   84MOL   C13631842   2.473   6.355   1.517 -0.2918  0.3456  0.0568
   84MOL   C13731843   2.510   6.214   1.483 -0.6109  0.6842 -0.4188
   84MOL   C13831844   2.400   6.172   1.383 -0.5472  0.3913 -0.3384
   84MOL   C13931845   2.363   6.298   1.301  0.2441  0.9038 -0.0710
   84MOL   C14031846   2.433   6.411   1.381  0.0641 -0.0699 -0.2214
   84MOL   C14131847   2.504   6.542   1.674 -1.3674 -0.3613  0.1565
   84MOL   H14231848   2.616   6.359   1.672 -2.7567  0.5044  1.7649
   84MOL   H14331849   2.379   6.344   1.571  0.2947 -1.1644  0.8154
   84MOL   H14431850   2.606   6.208   1.432 -0.8184  1.9331 -0.9782
   84MOL   H14531851   2.525   6.156   1.575 -0.2965  3.5375  1.3824
   84MOL   H14631852   2.317   6.125   1.436 -0.2258  2.2652  1.8893
   84MOL   H14731853   2.444   6.097   1.317 -0.2121  0.1206  0.1938
   84MOL   H14831854   2.257   6.320   1.292  0.6650  2.5799 -1.1535
   84MOL   H14931855   2.417   6.292   1.206 -0.2374 -2.0065 -0.1841
   84MOL   H15031856   2.526   6.430   1.328  0.5237 -0.1706  0.5382
   84MOL   H15131857   2.370   6.499   1.391 -1.3540 -1.0544 -0.3076
   84MOL   H15231858   2.456   6.604   1.598 -0.3126 -1.3948 -1.3905
   84MOL   H15331859   2.578   6.605   1.722  0.9612 -2.0700 -1.1240
   84MOL   C15431860   2.404   6.499   1.786 -0.2943  0.2770  0.7709
   84MOL   C15531861   2.453   6.395   1.883  0.6568 -0.2383  0.9967
   84MOL   C15631862   2.345   6.332   1.980 -0.7718  0.2596  0.4021
   84MOL   C15731863   2.440   6.254   2.063 -0.4387 -0.5327 -0.5078
   84MOL   C15831864   2.576   6.325   2.079  0.7510  0.8906 -0.1668
   84MOL   C15931865   2.588   6.415   1.957  0.6636  0.5451 -0.5730
   84MOL   C16031866   2.372   6.630   1.866 -0.0435 -0.1417 -0.1634
   84MOL   H16131867   2.311   6.460   1.745 -0.5232  1.4843  0.1185
   84MOL   H16231868   2.478   6.309   1.821 -0.0012 -0.3535  0.8850
   84MOL   H16331869   2.300   6.410   2.042  1.1062  1.5601  0.1908
   84MOL   H16431870   2.265   6.285   1.923 -0.0323 -0.5903  0.0616
   84MOL   H16531871   2.392   6.223   2.156  0.4532 -0.5826 -0.0581
   84MOL   H16631872   2.462   6.162   2.010 -0.7387 -0.4164 -0.8392
   84MOL   H16731873   2.655   6.250   2.082 -2.0980 -2.2601 -0.8425
   84MOL   H16831874   2.587   6.379   2.174 -0.9184 -0.4611  0.8186
   84MOL   H16931875   2.663   6.366   1.894  0.5077  1.4249 -1.4574
   84MOL   H17031876   2.622   6.518   1.973 -2.1711  1.2278  1.3856
   84MOL   H17131877   2.466   6.681   1.886  0.6550 -0.6567 -1.9758
   84MOL   H17231878   2.337   6.619   1.968  0.6783  0.4592  0.1603
   84MOL   C17331879   2.283   6.733   1.801  0.5541  0.1659 -0.5351
   84MOL   C17431880   2.309   6.876   1.851  0.7293  0.0532  0.4314
   84MOL   C17531881   2.227   6.981   1.778 -0.0498  0.3799  0.3267
   84MOL   C17631882   2.302   7.111   1.803  0.8489  0.5376 -0.0654
   84MOL   C17731883   2.449   7.075   1.780 -0.2897  0.0309  0.2498
   84MOL   C17831884   2.457   6.925   1.824  0.0229  0.1259 -0.3651
   84MOL   C17931885   2.134   6.690   1.827 -0.3304 -0.2460  0.2712
   84MOL   H18031886   2.292   6.738   1.692 -0.4564 -2.6662 -0.7904
   84MOL   H18131887   2.281   6.870   1.956  1.1416  0.2468  0.5519
   84MOL   H18231888   2.126   6.984   1.818  0.5839  1.9852  1.8989
   84MOL   H18331889   2.213   6.956   1.673 -0.5565 -0.2878  0.5560
   84MOL   H18431890   2.278   7.190   1.732 -0.6409 -0.9238 -1.2518
   84MOL   H18531891   2.286   7.143   1.906 -2.4739 -2.8554  0.5910
   84MOL   H18631892   2.524   7.129   1.838 -0.4943 -1.3062  1.8024
   84MOL   H18731893   2.469   7.086   1.674  2.7544  2.2672  0.9814
   84MOL   H18831894   2.499   6.864   1.744  1.3537  0.6422 -0.0856
   84MOL   H18931895   2.527   6.903   1.905  0.7960 -1.3408 -1.4025
   84MOL   H19031896   2.141   6.663   1.932  0.4263 -0.0343  0.2838
   84MOL   H19131897   2.073   6.780   1.825 -1.3016 -0.9112 -0.1449
   84MOL   C19231898   2.066   6.578   1.745  0.7891 -0.0672 -0.1062
   84MOL   C19331899   2.091   6.576   1.595  0.1978  1.2281  0.1940
   84MOL   C19431900   2.025   6.691   1.530 -0.1876  0.3509 -0.1628
   84MOL   C19531901   2.021   6.647   1.384 -0.0528 -0.6593 -0.1209
   84MOL   C19631902   2.023   6.496   1.377  0.4011 -0.3693  0.0570
   84MOL   C19731903   2.060   6.446   1.516 -0.4183 -0.6442 -0.6530
   84MOL   C19831904   1.923   6.550   1.789  0.6407  0.3240 -0.0632
   84MOL   H19931905   2.114   6.487   1.780 -0.1238 -1.0120 -1.2731
   84MOL   H20031906   2.198   6.594   1.583  0.3232 -0.0751 -0.8064
   84MOL   H20131907   2.079   6.783   1.549  0.9786  0.0368 -1.7869
   84MOL   H20231908   1.928   6.717   1.571 -0.2920  0.4665 -0.4785
   84MOL   H20331909   1.932   6.688   1.337 -0.3501 -1.1124  0.0375
   84MOL   H20431910   2.103   6.696   1.332 -0.2136 -0.7750 -0.4945
   84MOL   H20531911   2.086   6.459   1.296  0.6804  0.6256 -0.1955
   84MOL   H20631912   1.922   6.462   1.353 -0.0112  0.8958 -0.0631
   84MOL   H20731913   2.138   6.370   1.507 -1.8371 -2.1939 -0.1400
   84MOL   H20831914   1.975   6.394   1.561 -0.2390  0.0953  0.5660
   84MOL   H20931915   1.875   6.490   1.711  2.3105  0.4361 -1.1999
   84MOL   H21031916   1.934   6.496   1.883 -2.3299  2.1890  1.4368
   84MOL   C21131917   1.828   6.670   1.821 -0.8783  0.3944  0.0393
   84MOL   C21231918   1.683   6.645   1.770 -0.2740 -1.0134  0.6199
   84MOL   C21331919   1.675   6.654   1.615  0.3860 -0.5838  0.2062
   84MOL   C21431920   1.539   6.611   1.585 -0.5662  0.4279 -0.0805
   84MOL   C21531921   1.497   6.512   1.694  0.0609 -0.7900  0.1106
   84MOL   C21631922   1.606   6.519   1.806 -0.1987 -0.5148 -0.1892
   84MOL   C21731923   1.819   6.692   1.976  0.2913 -0.0796  0.4789
   84MOL   H21831924   1.864   6.762   1.773  1.6415 -0.3048  0.5163
   84MOL   H21931925   1.623   6.732   1.798  0.0995 -0.2754 -0.8118
   84MOL   H22031926   1.710   6.749   1.575  2.5534 -0.7585  1.5750
   84MOL   H22131927   1.731   6.576   1.564  0.2482  1.3035 -2.9408
   84MOL   H22231928   1.468   6.694   1.594  1.5218  2.1888  0.5133
   84MOL   H22331929   1.531   6.575   1.482 -1.8654  2.2138 -0.6302
   84MOL   H22431930   1.463   6.415   1.659 -1.1693  0.0853 -1.2099
   84MOL   H22531931   1.398   6.539   1.732  0.1010 -0.2499 -0.1627
   84MOL   H22631932   1.574   6.516   1.910 -0.0050  2.1147 -0.0418
   84MOL   H22731933   1.681   6.440   1.792  0.7982  0.1543  1.2263
   84MOL   H22831934   1.918   6.671   2.017  0.0392 -1.6884  0.2779
   84MOL   H22931935   1.758   6.611   2.014  1.7725 -2.6750 -2.4795
   84MOL   C23031936   1.773   6.833   2.022  0.1334 -0.2716 -0.2224
   84MOL   C23131937   1.888   6.927   2.009  0.0976  0.5511  0.5285
   84MOL   C23231938   1.848   7.074   2.014 -0.2990 -0.4998  0.5925
   84MOL   C23331939   1.904   7.137   2.143  0.1081  0.5807  0.1549
   84MOL   C23431940   2.026   7.050   2.170  0.3133  0.4834  0.9619
   84MOL   C23531941   2.000   6.909   2.113 -0.1574 -0.3509  0.3160
   84MOL   C23631942   1.710   6.847   2.160  0.0126  0.4793 -0.2808
   84MOL   H23731943   1.702   6.855   1.943 -1.0802 -2.2230  0.2729
   84MOL   H23831944   1.923   6.913   1.907 -2.7234 -2.3210 -0.1135
   84MOL   H23931945   1.905   7.132   1.942 -0.4925 -1.9840 -0.7746
   84MOL   H24031946   1.742   7.091   1.997 -0.3286 -1.0209  0.2746
   84MOL   H24131947   1.922   7.244   2.130  0.0812  0.6266  0.4904
   84MOL   H24231948   1.829   7.126   2.222  0.0500 -1.3240 -0.1488
   84MOL   H24331949   2.052   7.064   2.275  1.4919  2.1376  0.4746
   84MOL   H24431950   2.105   7.090   2.107 -0.4865  0.0270 -0.3556
   84MOL   H24531951   1.974   6.837   2.191  2.3328 -0.3234  1.1949
   84MOL   H24631952   2.092   6.877   2.064  0.8032  2.1175  0.4323
   84MOL   H24731953   1.743   6.933   2.220 -1.6102  0.0067  1.3270
   84MOL   H24831954   1.762   6.769   2.216  1.9549  1.4055 -0.7256
   84MOL   C24931955   1.556   6.830   2.162  0.0842  0.6134 -0.8616
   84MOL   C25031956   1.473   6.913   2.268  0.4344  0.5141  0.0824
   84MOL   C25131957   1.494   7.065   2.252 -0.8504  0.7975  0.0624
   84MOL   C25231958   1.530   7.130   2.393 -0.3752 -0.1601 -0.1515
   84MOL   C25331959   1.502   7.013   2.497  0.0576 -0.6612 -0.1801
   84MOL   C25431960   1.523   6.884   2.413  0.5150 -0.0727  0.4181
   84MOL   C25531961   1.525   6.675   2.173 -0.6794 -0.1568  0.4003
   84MOL   H25631962   1.517   6.852   2.062 -1.2195  1.7664 -0.1104
   84MOL   H25731963   1.364   6.900   2.269  0.7015 -1.9491  0.3273
   84MOL   H25831964   1.424   7.112   2.183  0.4231  0.4987 -1.4767
   84MOL   H25931965   1.590   7.072   2.200 -0.6047 -1.7891  0.1136
   84MOL   H26031966   1.474   7.215   2.432 -1.5011 -0.3591 -1.3001
   84MOL   H26131967   1.638   7.144   2.398 -0.4216  0.0545  0.3626
   84MOL   H26231968   1.396   7.010   2.519 -0.0788 -0.3949 -0.7757
   84MOL   H26331969   1.558   7.031   2.589 -0.0983 -0.4324 -0.1294
   84MOL   H26431970   1.480   6.789   2.445  0.6790 -1.0757 -2.2176
   84MOL   H26531971   1.629   6.860   2.402  0.0212 -1.5389 -1.2822
   84MOL   H26631972   1.562   6.635   2.079  0.1079  1.8385 -0.1689
   84MOL   H26731973   1.591   6.626   2.246 -0.6993 -1.0853 -0.2082
   84MOL   C26831974   1.383   6.622   2.191  0.6462  0.2519 -0.2329
   84MOL   C26931975   1.389   6.470   2.238 -0.2458  0.1566  0.5880
   84MOL   C27031976   1.427   6.442   2.382  0.0390 -0.3489  0.0162
   84MOL   C27131977   1.503   6.305   2.390  0.1681 -0.3092  0.7278
   84MOL   C27231978   1.508   6.257   2.245 -0.3262 -0.7720 -0.2710
   84MOL   C27331979   1.480   6.377   2.160  0.7847 -0.1484  0.1655
   84MOL   C27431980   1.286   6.642   2.066  0.7433  1.0628  0.4716
   84MOL   H27531981   1.355   6.674   2.283  2.3251 -0.4330  0.6803
   84MOL   H27631982   1.287   6.432   2.228  0.0737 -0.1482 -1.8356
   84MOL   H27731983   1.483   6.520   2.434 -1.0392  1.0946 -0.9542
   84MOL   H27831984   1.350   6.431   2.458  1.0595  0.8265  1.2513
   84MOL   H27931985   1.606   6.329   2.417 -0.0252  1.1822  0.2025
   84MOL   H28031986   1.455   6.233   2.457  0.7191  0.6283  2.1680
   84MOL   H28131987   1.443   6.170   2.230  1.3379 -1.9795 -0.6865
   84MOL   H28231988   1.610   6.235   2.213  0.9701  1.0516  2.3996
   84MOL   H28331989   1.449   6.355   2.058  0.8838  0.3214  0.0327
   84MOL   H28431990   1.580   6.418   2.146  0.6790  0.0521  0.0064
   84MOL   H28531991   1.339   6.586   1.989 -2.7599  0.3434 -1.5351
   84MOL   H28631992   1.285   6.749   2.047 -0.2881  1.1712  1.1176
   84MOL   C28731993   1.138   6.602   2.084 -0.8223  0.5450 -1.1488
   84MOL   C28831994   1.077   6.665   2.210  0.7290  0.0447  0.4870
   84MOL   C28931995   1.040   6.810   2.195 -0.3282  0.0949 -0.1075
   84MOL   C29031996   0.944   6.840   2.306  0.4330 -0.3350 -0.7016
   84MOL   C29131997   0.869   6.708   2.328 -0.8276 -0.0498  0.8241
   84MOL   C29231998   0.945   6.595   2.260 -0.5459  0.2937 -0.4763
   84MOL   C29331999   1.049   6.592   1.955 -0.3111 -0.3785 -0.9721
   84MOL   H29432000   1.139   6.495   2.105  0.8257  1.2353  2.6864
   84MOL   H29532001   1.148   6.664   2.293 -0.2972 -0.6510  1.3796
   84MOL   H29632002   1.132   6.863   2.218  0.0888 -0.8858  0.5545
   84MOL   H29732003   0.999   6.825   2.095 -2.2738 -1.7645  0.3661
   84MOL   H29832004   1.013   6.866   2.387  0.3880 -0.6772 -0.5533
   84MOL   H29932005   0.878   6.924   2.282 -0.7873 -1.5431 -1.6224
   84MOL   H30032006   0.776   6.723   2.273 -0.7521  0.1810  0.7592
   84MOL   H30132007   0.845   6.681   2.431  1.1572  2.3733  1.9628
   84MOL   H30232008   0.879   6.543   2.191  0.9630 -0.0708 -1.6688
   84MOL   H30332009   0.985   6.518   2.326 -0.3640  1.5587  0.9221
   84MOL   H30432010   1.036   6.697   1.929  0.8069  0.0224  0.0698
   84MOL   H30532011   0.949   6.555   1.977 -0.0644  0.2839  1.4213
   84MOL   C30632012   1.108   6.514   1.835  0.3266 -0.5370  0.1920
   84MOL   C30732013   1.142   6.360   1.867 -0.3593  0.0610 -0.1843
   84MOL   C30832014   1.025   6.265   1.913 -0.5512  0.0396 -0.7399
   84MOL   C30932015   1.036   6.139   1.824  0.4253 -0.1543  0.1459
   84MOL   C31032016   1.107   6.178   1.697 -0.2056 -0.2345 -0.4921
   84MOL   C31132017   1.200   6.287   1.740 -0.5367  0.1568 -0.8836
   84MOL   C31232018   1.018   6.544   1.707 -0.1167 -0.1285 -0.6095
   84MOL   H31332019   1.199   6.568   1.809  0.3733 -0.7176 -0.0175
   84MOL   H31432020   1.222   6.357   1.941  0.5345 -0.4143 -1.1535
   84MOL   H31532021   0.932   6.321   1.904  0.1257  1.3518  0.1448
   84MOL   H31632022   1.028   6.243   2.020 -2.5178 -0.9824 -0.8821
   84MOL   H31732023   1.084   6.057   1.877  1.0125 -0.0001 -0.1456
   84MOL   H31832024   0.941   6.096   1.794  1.5793 -1.8280 -1.1921
   84MOL   H31932025   1.036   6.202   1.618  1.2450  1.1966 -1.4032
   84MOL   H32032026   1.167   6.095   1.659 -0.7072 -0.8706  0.1006
   84MOL   H32132027   1.295   6.238   1.762 -0.8060 -0.6637 -1.5190
   84MOL   H32232028   1.221   6.352   1.655  0.3723  0.2989 -0.5510
   84MOL   H32332029   0.916   6.510   1.730 -0.0235  0.4449  0.6963
   84MOL   H32432030   1.041   6.472   1.629 -0.3520  0.2269 -1.0041
   84MOL   C32532031   1.008   6.689   1.657 -0.9361 -0.7072 -0.0534
   84MOL   C32632032   0.889   6.725   1.558  0.0629 -0.6286  0.0360
   84MOL   C32732033   0.758   6.726   1.644 -0.3644  0.2322 -0.4947
   84MOL   C32832034   0.647   6.715   1.544  0.3749  0.1642 -0.2464
   84MOL   C32932035   0.705   6.651   1.420 -0.2192  0.2594 -0.2028
   84MOL   C33032036   0.852   6.625   1.441 -0.2358 -0.0450 -0.4563
   84MOL   C33132037   1.147   6.726   1.589 -0.1063  0.1899  0.4384
   84MOL   H33232038   1.000   6.759   1.740 -1.5702 -0.7262 -0.0978
   84MOL   H33332039   0.901   6.826   1.520  0.1270 -0.4563  0.5092
   84MOL   H33432040   0.751   6.805   1.719  4.0956 -0.0831  0.3792
   84MOL   H33532041   0.744   6.639   1.708  0.2386  2.0398  2.1745
   84MOL   H33632042   0.602   6.811   1.519  0.1750  0.1475  0.0442
   84MOL   H33732043   0.566   6.660   1.593 -0.4130  1.4846 -0.0277
   84MOL   H33832044   0.692   6.710   1.329 -0.4965 -1.0500 -1.0286
   84MOL   H33932045   0.651   6.561   1.389  1.5474 -0.4957 -1.1639
   84MOL   H34032046   0.922   6.641   1.358 -0.1239 -0.0785 -0.3695
   84MOL   H34132047   0.855   6.518   1.466 -2.6050  0.3823  1.8425
   84MOL   H34232048   1.137   6.687   1.488 -0.6373 -0.4977  0.7498
   84MOL   H34332049   1.233   6.669   1.627  1.4380 -0.9230 -4.3039
   84MOL   C34432050   1.198   6.868   1.590 -0.3557 -0.3789 -0.1123
   84MOL   C34532051   1.283   6.907   1.464  0.3402  0.3672  0.0396
   84MOL   C34632052   1.323   7.056   1.441 -0.1331 -0.4605  0.3095
   84MOL   C34732053   1.358   7.060   1.292 -0.1469 -0.2710 -0.5737
   84MOL   C34832054   1.264   6.961   1.221 -0.1228 -0.4704  0.1543
   84MOL   C34932055   1.204   6.875   1.334  0.1792 -0.4940 -0.4828
   84MOL   C35032056   1.251   6.904   1.730 -0.5794 -0.1916 -0.5542
   84MOL   H35132057   1.097   6.910   1.586 -0.1880  0.2308  1.7616
   84MOL   H35232058   1.372   6.844   1.456  1.3838  1.9828 -1.4803
   84MOL   H35332059   1.406   7.083   1.505  0.7583 -2.7141  0.1597
   84MOL   H35432060   1.246   7.131   1.459  1.9210  1.7467  0.0864
   84MOL   H35532061   1.337   7.161   1.257  0.4092  0.0120 -0.0864
   84MOL   H35632062   1.459   7.024   1.272 -0.6158 -3.2823  2.0010
   84MOL   H35732063   1.324   6.899   1.155 -1.1618 -0.2677 -0.9947
   84MOL   H35832064   1.194   7.008   1.153 -1.7908 -2.2550  0.6003
   84MOL   H35932065   1.101   6.908   1.349  0.7259  1.4026 -0.6939
   84MOL   H36032066   1.210   6.769   1.311 -1.0326 -1.2931  2.6449
   84MOL   H36132067   1.354   6.870   1.739  0.2768  2.4511  0.0301
   84MOL   H36232068   1.188   6.854   1.803 -0.4378 -0.8426 -0.8718
   84MOL   C36332069   1.255   7.054   1.769 -0.6501 -0.6227  0.6874
   84MOL   C36432070   1.116   7.116   1.773  0.1787  0.3341 -0.6122
   84MOL   C36532071   1.112   7.263   1.808 -0.2898  0.1203  0.0803
   84MOL   C36632072   1.009   7.281   1.912 -0.5125  0.4717 -0.4879
   84MOL   C36732073   0.917   7.163   1.899  0.2021 -0.7147 -0.4448
   84MOL   C36832074   1.019   7.049   1.872  0.2216  0.8244 -0.2907
   84MOL   C36932075   1.335   7.061   1.890 -0.1817  0.0740 -0.1797
   84MOL   H37032076   1.298   7.119   1.692 -0.3339 -0.5635  0.9126
   84MOL   H37132077   1.076   7.111   1.672 -0.9687 -2.1681 -0.0875
   84MOL   H37232078   1.208   7.303   1.841 -1.0944  0.6303  1.8721
   84MOL   H37332079   1.082   7.318   1.718 -1.2456  1.7313  1.3458
   84MOL   H37432080   1.059   7.283   2.009 -1.2599  2.1015 -0.1117
   84MOL   H37532081   0.944   7.367   1.902 -0.7754  0.7297  2.7474
   84MOL   H37632082   0.852   7.146   1.985 -1.3009  0.6348 -1.2826
   84MOL   H37732083   0.853   7.184   1.813 -0.0307  0.0258 -0.0925
   84MOL   H37832084   0.976   6.954   1.840 -0.2007 -0.0628  2.7664
   84MOL   H37932085   1.077   7.019   1.960  0.6728  0.1625 -0.8088
   84MOL   H38032086   1.351   7.168   1.906 -1.7159  0.3679 -0.5282
   84MOL   H38132087   1.437   7.023   1.877 -0.4494 -1.0422  0.8601
   84MOL   H38232088   1.306   7.013   1.983  1.2683  0.1855  0.3567
   85MOL     C132089   5.476   1.220   1.654  0.0327 -0.3392  0.0153
   85MOL     C232090   5.347   1.195   1.751  0.8724 -0.5192  0.6896
   85MOL     C332091   5.216   1.159   1.685  0.4463 -0.5559  1.6072
   85MOL     C432092   5.111   1.192   1.790  0.6981  0.2444  0.0403
   85MOL     C532093   5.164   1.322   1.849 -0.1060  0.8164 -0.2059
   85MOL     C632094   5.313   1.313   1.843 -0.3883  0.1358  0.0015
   85MOL     C732095   5.539   1.085   1.605  0.6162 -0.1378 -0.1629
   85MOL     H832096   5.440   1.288   1.577 -1.0503  0.7639  1.4702
   85MOL     H932097   5.364   1.111   1.819 -1.6578 -0.4070  1.4912
   85MOL    H1032098   5.195   1.231   1.606 -1.0112 -3.1648 -0.4907
   85MOL    H1132099   5.235   1.055   1.658  0.1067  0.1159 -1.3858
   85MOL    H1232100   5.011   1.201   1.748  1.1565  1.5489 -0.8429
   85MOL    H1332101   5.104   1.117   1.868  1.9627  0.6757  0.5920
   85MOL    H1432102   5.127   1.405   1.790  1.2536  1.0493 -0.7557
   85MOL    H1532103   5.126   1.349   1.947  0.7081 -1.6416  0.8251
   85MOL    H1632104   5.366   1.314   1.938  0.1038 -3.5177 -0.1752
   85MOL    H1732105   5.348   1.408   1.802 -0.8033  0.0990 -0.4390
   85MOL    H1832106   5.620   1.050   1.667 -0.9203  0.1748  2.0783
   85MOL    H1932107   5.458   1.011   1.605  0.9700 -0.5229 -0.0941
   85MOL    H2032108   5.545   1.284   1.709 -0.6006  0.0009  0.4090
   85MOL    C2132109   5.586   1.090   1.462  0.6227 -0.2616  0.3593
   85MOL    C2232110   5.463   1.101   1.364  0.4028 -0.1084  0.1070
   85MOL    C2332111   5.363   0.980   1.373  0.0782 -0.3559  0.0392
   85MOL    C2432112   5.320   0.948   1.229 -0.7175  1.3406 -0.6512
   85MOL    C2532113   5.388   1.052   1.134  0.0916  0.2420  0.2464
   85MOL    C2632114   5.507   1.115   1.217  0.7488 -0.0104 -0.0572
   85MOL    C2732115   5.686   1.206   1.433  0.1476  0.4553 -0.4726
   85MOL    H2832116   5.636   1.002   1.422 -2.5630 -1.2116 -1.7713
   85MOL    H2932117   5.397   1.183   1.389 -1.0980 -1.0680 -0.6488
   85MOL    H3032118   5.290   0.997   1.453 -1.1351 -0.0012 -1.1275
   85MOL    H3132119   5.427   0.895   1.399  1.2072  0.3383 -0.4426
   85MOL    H3232120   5.352   0.847   1.203 -0.1886  0.7087  2.2073
   85MOL    H3332121   5.211   0.944   1.230 -0.6818 -1.1727 -1.9236
   85MOL    H3432122   5.318   1.132   1.112  0.3215  0.5011  0.4520
   85MOL    H3532123   5.415   1.008   1.039  0.6003 -0.2908  0.6303
   85MOL    H3632124   5.545   1.213   1.190  0.7407 -0.1911 -0.7224
   85MOL    H3732125   5.594   1.051   1.203  0.2644 -0.8004  0.4791
   85MOL    H3832126   5.718   1.201   1.329  1.1352 -0.1988 -0.1527
   85MOL    H3932127   5.626   1.296   1.439  2.7834  2.1758  0.9260
   85MOL    C4032128   5.807   1.221   1.530  0.1622  0.1824 -0.1634
   85MOL    C4132129   5.913   1.104   1.523 -0.3161  0.3639  0.1484
   85MOL    C4232130   6.041   1.118   1.611 -0.6877  0.0477  0.6113
   85MOL    C4332131   6.126   0.999   1.569  0.2279  0.6335  0.4938
   85MOL    C4432132   6.089   0.963   1.420  0.3922 -0.0328 -0.3521
   85MOL    C4532133   5.976   1.064   1.390 -0.4165 -0.4331 -0.2139
   85MOL    C4632134   5.869   1.365   1.497  0.2427 -0.3453  0.0575
   85MOL    H4732135   5.773   1.223   1.634  3.4004 -0.5961  0.9754
   85MOL    H4832136   5.859   1.018   1.562 -0.5482  1.2229  1.7669
   85MOL    H4932137   6.015   1.102   1.715  0.8604 -2.0889  0.7139
   85MOL    H5032138   6.104   1.206   1.600 -0.1403 -0.4950 -0.8313
   85MOL    H5132139   6.098   0.912   1.629 -0.5677  1.0317  0.6959
   85MOL    H5232140   6.233   1.012   1.586  0.2502 -0.4722  1.3008
   85MOL    H5332141   6.170   0.975   1.349  0.3628  1.5323 -0.1559
   85MOL    H5432142   6.046   0.863   1.427  1.9934 -0.6293  1.1704
   85MOL    H5532143   6.017   1.150   1.336  0.1795 -2.0078 -2.3683
   85MOL    H5632144   5.903   1.028   1.317  0.3551 -0.9047 -0.7703
   85MOL    H5732145   5.968   1.378   1.540  0.1230 -2.2694  0.9544
   85MOL    H5832146   5.897   1.374   1.392  1.7015 -1.6352  0.3122
   85MOL    C5932147   5.791   1.488   1.546 -0.0650 -0.4993  0.1209
   85MOL    C6032148   5.848   1.559   1.667 -0.1313 -0.4832  0.0288
   85MOL    C6132149   5.991   1.623   1.658 -0.2340  0.3976 -0.2416
   85MOL    C6232150   6.018   1.669   1.802 -0.2499 -1.0449  0.0136
   85MOL    C6332151   5.959   1.552   1.885 -0.7011  0.2076 -0.4114
   85MOL    C6432152   5.836   1.488   1.802 -0.8073  0.1175  0.6578
   85MOL    C6532153   5.757   1.577   1.426 -0.6468 -0.1609  0.1971
   85MOL    H6632154   5.699   1.444   1.586 -0.1738  1.2485  1.8420
   85MOL    H6732155   5.782   1.644   1.684 -0.0198  0.5496 -4.2083
   85MOL    H6832156   6.007   1.714   1.600 -1.6054  0.8477  0.0613
   85MOL    H6932157   6.062   1.546   1.627  0.0143  0.6134 -0.2095
   85MOL    H7032158   5.969   1.754   1.849  3.0419  0.7888  0.3522
   85MOL    H7132159   6.124   1.677   1.828 -0.1252 -3.1710  0.2394
   85MOL    H7232160   5.929   1.574   1.987 -1.0029  2.5755 -0.9920
   85MOL    H7332161   6.044   1.486   1.901 -0.8989  0.4121  1.6102
   85MOL    H7432162   5.867   1.385   1.782 -0.4590  0.7572 -2.2899
   85MOL    H7532163   5.737   1.498   1.846 -0.9143  0.2047  0.3969
   85MOL    H7632164   5.703   1.515   1.354 -2.3163  1.7540 -0.2417
   85MOL    H7732165   5.852   1.605   1.381  0.4283  0.3054  2.6894
   85MOL    C7832166   5.673   1.706   1.445  0.0974  0.0262 -0.4105
   85MOL    C7932167   5.691   1.802   1.315 -0.1156 -0.8003 -0.8684
   85MOL    C8032168   5.668   1.738   1.178  0.3807  0.4587 -0.6736
   85MOL    C8132169   5.702   1.850   1.083 -0.2071 -1.4366 -0.3944
   85MOL    C8232170   5.829   1.923   1.139 -0.2725  0.4986 -0.3634
   85MOL    C8332171   5.831   1.874   1.285 -0.6622  0.2540  0.1375
   85MOL    C8432172   5.524   1.681   1.484  0.1076 -0.3612 -0.1008
   85MOL    H8532173   5.728   1.765   1.518  0.9655  0.3624 -1.3205
   85MOL    H8632174   5.614   1.879   1.315 -0.0945 -0.7691  0.9760
   85MOL    H8732175   5.562   1.714   1.169  0.5583  0.2370 -2.2500
   85MOL    H8832176   5.721   1.645   1.162  1.1951  0.5455  1.4020
   85MOL    H8932177   5.610   1.909   1.077 -0.2592 -1.4613  0.1106
   85MOL    H9032178   5.713   1.809   0.982  1.4644 -2.4262  0.1738
   85MOL    H9132179   5.917   1.884   1.087  0.4212  0.4835  0.8003
   85MOL    H9232180   5.827   2.032   1.134 -0.4636  0.5199  0.2147
   85MOL    H9332181   5.917   1.809   1.300 -1.5598 -1.3570 -1.5100
   85MOL    H9432182   5.837   1.958   1.354  1.3529 -0.3848  0.7874
   85MOL    H9532183   5.520   1.588   1.540 -3.1675 -0.0641  0.2751
   85MOL    H9632184   5.485   1.648   1.387 -0.4887 -0.4592  0.1701
   85MOL    C9732185   5.431   1.797   1.539 -0.2544  0.1636  0.9785
   85MOL    C9832186   5.468   1.833   1.685  0.8463 -0.0145  0.0094
   85MOL    C9932187   5.496   1.723   1.790 -1.5471 -0.3678  0.1501
   85MOL   C10032188   5.567   1.795   1.899 -0.4384 -0.3757  0.3815
   85MOL   C10132189   5.650   1.898   1.830  0.0925  0.0727 -0.3397
   85MOL   C10232190   5.582   1.933   1.695  0.0373 -0.4657 -0.4370
   85MOL   C10332191   5.284   1.757   1.512 -0.2349 -0.6823 -0.6318
   85MOL   H10432192   5.449   1.890   1.485  1.7598 -0.1187  1.1272
   85MOL   H10532193   5.379   1.889   1.714 -0.3309 -1.0194 -1.5996
   85MOL   H10632194   5.405   1.666   1.810 -1.8102 -0.1458 -0.3975
   85MOL   H10732195   5.561   1.647   1.746 -1.5881  0.3181 -1.1144
   85MOL   H10832196   5.614   1.725   1.968 -0.3677 -0.6107  0.0928
   85MOL   H10932197   5.495   1.843   1.966  0.0088 -0.8021  1.1751
   85MOL   H11032198   5.748   1.856   1.806 -0.4663 -2.2346  1.2249
   85MOL   H11132199   5.666   1.988   1.890 -1.0035 -0.2008  0.3683
   85MOL   H11232200   5.537   2.032   1.693 -0.6010 -0.7883 -2.3076
   85MOL   H11332201   5.662   1.914   1.624  1.0711  0.9290  0.3198
   85MOL   H11432202   5.257   1.667   1.568  2.6008 -2.2900 -1.7476
   85MOL   H11532203   5.225   1.826   1.573 -0.5765  1.2787 -3.0598
   85MOL   C11632204   5.241   1.757   1.364  0.1814 -0.1991  0.2892
   85MOL   C11732205   5.185   1.618   1.311 -0.3665  0.1846  0.0363
   85MOL   C11832206   5.273   1.499   1.311  0.4972 -0.2793 -0.6142
   85MOL   C11932207   5.176   1.385   1.278 -0.4068 -0.5902  0.0895
   85MOL   C12032208   5.051   1.419   1.354  0.5543  0.0394 -0.1709
   85MOL   C12132209   5.049   1.570   1.369 -0.3361  0.0719 -0.3186
   85MOL   C12232210   5.134   1.864   1.343  0.2584  0.6668  0.3093
   85MOL   H12332211   5.325   1.776   1.297 -0.9601 -0.0530 -1.1454
   85MOL   H12432212   5.151   1.634   1.208  1.2038 -3.5176 -1.1419
   85MOL   H12532213   5.363   1.507   1.250  1.8824  0.1704  1.4549
   85MOL   H12632214   5.311   1.488   1.412 -0.5127 -0.6201 -0.2645
   85MOL   H12732215   5.212   1.291   1.320  2.5759  0.3874 -0.1517
   85MOL   H12832216   5.162   1.379   1.170  1.4026 -0.0659 -0.1947
   85MOL   H12932217   5.053   1.378   1.455 -0.6923  0.3798 -0.0011
   85MOL   H13032218   4.955   1.378   1.322  0.1250 -0.1681  1.3492
   85MOL   H13132219   4.972   1.614   1.305  0.6832 -0.2296 -1.7997
   85MOL   H13232220   5.037   1.609   1.470  1.4494  1.7165 -0.6986
   85MOL   H13332221   5.048   1.844   1.406 -0.3786 -1.3045 -1.1552
   85MOL   H13432222   5.095   1.848   1.243 -1.5777  0.7424  0.9944
   85MOL   C13532223   5.181   2.012   1.340 -0.1331 -0.2184  0.0681
   85MOL   C13632224   5.048   2.096   1.317 -0.2501 -0.0668 -0.0536
   85MOL   C13732225   4.972   2.091   1.178 -0.2225  0.4980  0.1766
   85MOL   C13832226   4.890   2.222   1.179  0.0614 -0.0519  0.5252
   85MOL   C13932227   4.973   2.320   1.270 -0.2374  0.1156  0.4803
   85MOL   C14032228   5.051   2.240   1.366 -0.0788  0.1052  0.6784
   85MOL   C14132229   5.288   2.030   1.225 -0.3298  0.2970  0.0258
   85MOL   H14232230   5.234   2.036   1.432  2.1640 -0.1629 -1.2395
   85MOL   H14332231   4.977   2.058   1.391 -1.1212  0.8138 -0.4306
   85MOL   H14432232   5.036   2.090   1.090  1.2294 -1.0645  1.2304
   85MOL   H14532233   4.914   1.999   1.174 -0.7060  0.7462  1.2461
   85MOL   H14632234   4.794   2.198   1.224  0.8390  0.7591  2.6552
   85MOL   H14732235   4.866   2.265   1.081  0.9003 -1.8521 -0.4851
   85MOL   H14832236   4.910   2.394   1.318 -0.8994  0.4433 -0.8614
   85MOL   H14932237   5.036   2.372   1.198  0.6837 -1.2599  0.2787
   85MOL   H15032238   5.151   2.281   1.384 -0.7249  0.2858  3.9896
   85MOL   H15132239   4.995   2.246   1.458 -3.2044  2.4126 -1.2892
   85MOL   H15232240   5.254   1.986   1.132 -0.5447  1.1526 -0.3046
   85MOL   H15332241   5.377   1.979   1.262  0.1639  0.9140 -0.2951
   85MOL   C15432242   5.336   2.173   1.195  0.5981  0.5957 -0.3005
   85MOL   C15532243   5.429   2.220   1.308 -0.0791  0.1562 -0.0758
   85MOL   C15632244   5.451   2.365   1.305 -0.0451 -0.1555 -0.2356
   85MOL   C15732245   5.584   2.378   1.381 -0.1861  0.0882 -1.0103
   85MOL   C15832246   5.666   2.267   1.327  0.2090 -0.1589 -0.3426
   85MOL   C15932247   5.563   2.151   1.322  0.4531  0.1088  0.1228
   85MOL   C16032248   5.410   2.162   1.060  0.3616 -0.6559  0.1217
   85MOL   H16132249   5.245   2.232   1.188  1.6263  2.1381 -1.0930
   85MOL   H16232250   5.375   2.198   1.400 -0.9131 -2.3974 -1.1346
   85MOL   H16332251   5.473   2.399   1.204  0.5329  1.2053  0.3307
   85MOL   H16432252   5.362   2.419   1.339  1.3098  0.0834  3.1384
   85MOL   H16532253   5.639   2.472   1.372  0.0025  0.2611  1.3797
   85MOL   H16632254   5.556   2.370   1.486  1.5731 -0.0652 -0.5342
   85MOL   H16732255   5.756   2.233   1.379 -0.3048 -2.4294 -0.8384
   85MOL   H16832256   5.698   2.303   1.229 -1.0181 -1.2070 -1.1437
   85MOL   H16932257   5.569   2.101   1.418  1.7608 -1.4459 -0.7520
   85MOL   H17032258   5.590   2.082   1.242  0.7698 -0.3447  0.6240
   85MOL   H17132259   5.440   2.058   1.045  1.5464 -0.4121  0.7284
   85MOL   H17232260   5.510   2.204   1.065 -0.5198  1.6081 -0.4926
   85MOL   C17332261   5.343   2.218   0.931  0.0740  0.0077  0.2527
   85MOL   C17432262   5.436   2.178   0.811  0.4816  0.2694  0.7669
   85MOL   C17532263   5.403   2.041   0.752 -0.0378  0.2799  0.3164
   85MOL   C17632264   5.513   2.019   0.651 -0.3508  0.0590 -0.7539
   85MOL   C17732265   5.618   2.128   0.679 -0.9844 -0.2531  0.3911
   85MOL   C17832266   5.587   2.187   0.812 -0.6956  0.7141  0.5624
   85MOL   C17932267   5.321   2.372   0.941 -0.5599 -0.0056 -0.5944
   85MOL   H18032268   5.248   2.166   0.918 -0.5088  1.4086 -1.2001
   85MOL   H18132269   5.407   2.250   0.734  1.5784  0.2490  0.3179
   85MOL   H18232270   5.304   2.036   0.706  0.2078  0.5419 -0.2435
   85MOL   H18332271   5.413   1.964   0.829  1.1870 -0.3146 -0.4118
   85MOL   H18432272   5.553   1.918   0.656 -0.5804  0.0094  0.3700
   85MOL   H18532273   5.473   2.040   0.552 -0.8839  2.0227 -0.1587
   85MOL   H18632274   5.620   2.205   0.601 -0.2253  2.2409  2.7955
   85MOL   H18732275   5.716   2.084   0.663 -0.0658  2.1034 -0.7000
   85MOL   H18832276   5.621   2.113   0.884  0.9551  1.6238  0.7517
   85MOL   H18932277   5.631   2.285   0.833 -0.4949  0.4593  1.3594
   85MOL   H19032278   5.285   2.408   1.037 -1.6784  0.3003 -1.1154
   85MOL   H19132279   5.421   2.414   0.953 -0.1577 -0.2769 -2.7433
   85MOL   C19232280   5.229   2.430   0.833  0.0656  1.2838  0.0536
   85MOL   C19332281   5.259   2.571   0.798 -0.4226  0.3064  0.9528
   85MOL   C19432282   5.398   2.602   0.742  0.8044  0.1553  0.2153
   85MOL   C19532283   5.397   2.746   0.738 -0.5368 -0.3718  0.3972
   85MOL   C19632284   5.340   2.784   0.874  0.9762 -0.3157  0.2480
   85MOL   C19732285   5.248   2.669   0.913  0.1244 -0.0314 -0.3445
   85MOL   C19832286   5.079   2.403   0.852 -0.3175 -0.6911 -0.2793
   85MOL   H19932287   5.252   2.372   0.743  0.2304  0.5563  0.5647
   85MOL   H20032288   5.184   2.603   0.725 -1.4901 -1.6220  1.1547
   85MOL   H20132289   5.425   2.566   0.643 -1.5997  0.1472 -0.4673
   85MOL   H20232290   5.474   2.559   0.807  2.5512 -1.8782 -3.0454
   85MOL   H20332291   5.497   2.787   0.719 -0.8100 -0.1720 -0.6587
   85MOL   H20432292   5.338   2.788   0.657  0.3527  0.4561  0.1653
   85MOL   H20532293   5.291   2.881   0.864  3.3512  0.9032  0.0755
   85MOL   H20632294   5.419   2.800   0.947 -0.2196 -0.2277  1.5452
   85MOL   H20732295   5.144   2.697   0.927  0.6653  1.4894  0.7293
   85MOL   H20832296   5.279   2.633   1.011 -0.1258  1.8006  0.4109
   85MOL   H20932297   5.055   2.327   0.926 -3.0877  0.1220 -0.2797
   85MOL   H21032298   5.050   2.486   0.916  0.2550 -0.6372 -0.0833
   85MOL   C21132299   4.996   2.371   0.731  0.0363 -0.6093 -0.2485
   85MOL   C21232300   5.045   2.244   0.656  0.4928  0.2575 -0.3217
   85MOL   C21332301   5.023   2.105   0.719 -0.6518  0.0732  0.3080
   85MOL   C21432302   5.024   2.001   0.612 -0.4989 -0.0234  0.1058
   85MOL   C21532303   5.020   2.079   0.482  0.6579 -0.6180 -0.5348
   85MOL   C21632304   4.981   2.229   0.515  0.0953  0.9225  0.8679
   85MOL   C21732305   4.842   2.367   0.761  0.5098 -0.0919  0.1781
   85MOL   H21832306   5.014   2.447   0.656 -0.6156  0.6926  0.9007
   85MOL   H21932307   5.150   2.259   0.627  0.3074  1.2437 -0.5087
   85MOL   H22032308   5.071   2.073   0.812 -0.1735 -0.2869 -0.0590
   85MOL   H22132309   4.919   2.117   0.748 -1.0019  0.0857 -0.9523
   85MOL   H22232310   5.118   1.948   0.628 -0.2562  1.0419  2.4611
   85MOL   H22332311   4.937   1.936   0.615 -0.2549 -0.3363  0.6040
   85MOL   H22432312   4.969   2.038   0.395  1.2562  1.4128 -1.8905
   85MOL   H22532313   5.121   2.093   0.443  0.8531  1.6085  0.7205
   85MOL   H22632314   5.036   2.288   0.442  0.5135  0.9909  1.2383
   85MOL   H22732315   4.879   2.266   0.512  0.0640  0.8040  0.4625
   85MOL   H22832316   4.810   2.306   0.845 -1.5532 -1.4292 -1.5182
   85MOL   H22932317   4.785   2.311   0.687  1.1629 -0.0204 -0.3904
   85MOL   C23032318   4.767   2.504   0.782 -0.3410 -0.3510  0.0477
   85MOL   C23132319   4.800   2.607   0.666 -0.2340  0.1416  0.5219
   85MOL   C23232320   4.779   2.549   0.523 -0.2544 -0.0853 -0.0793
   85MOL   C23332321   4.772   2.669   0.432 -0.2570 -1.0023  0.5833
   85MOL   C23432322   4.718   2.784   0.510 -0.1256 -0.2290 -0.4786
   85MOL   C23532323   4.711   2.733   0.656 -0.5682 -0.3945  0.2312
   85MOL   C23632324   4.804   2.564   0.916  0.4772 -0.3846  0.1859
   85MOL   H23732325   4.663   2.474   0.783 -0.4119 -0.0829  1.3522
   85MOL   H23832326   4.904   2.639   0.677 -0.4381  0.7512  0.6413
   85MOL   H23932327   4.866   2.487   0.506  0.1708  0.6090 -0.4537
   85MOL   H24032328   4.690   2.487   0.510  0.8146 -1.9707  1.4572
   85MOL   H24132329   4.876   2.691   0.404  0.0360 -0.9197  1.7258
   85MOL   H24232330   4.726   2.650   0.335  0.2553  0.7670 -0.0305
   85MOL   H24332331   4.620   2.793   0.463  0.3169  1.6090 -1.1232
   85MOL   H24432332   4.769   2.880   0.500 -1.7714  0.4837 -2.6883
   85MOL   H24532333   4.609   2.710   0.686  0.9187 -4.4980  2.4366
   85MOL   H24632334   4.750   2.814   0.718 -0.2060  0.3535 -0.9576
   85MOL   H24732335   4.883   2.638   0.905 -1.9525  2.2444 -0.1118
   85MOL   H24832336   4.833   2.481   0.980 -0.8078 -1.0987 -0.1415
   85MOL   C24932337   4.686   2.630   0.995  0.1640 -0.8629  0.4118
   85MOL   C25032338   4.721   2.743   1.096 -0.5677  0.1162  0.4194
   85MOL   C25132339   4.795   2.869   1.035 -0.1571  0.0222 -0.1592
   85MOL   C25232340   4.850   2.946   1.152 -0.9478 -0.4072  0.2925
   85MOL   C25332341   4.892   2.836   1.249  0.6435 -0.1558  0.9531
   85MOL   C25432342   4.823   2.707   1.208  0.4273 -0.1946  0.4624
   85MOL   C25532343   4.604   2.520   1.062  0.0615  0.1684  0.0739
   85MOL   H25632344   4.620   2.679   0.923  1.6693  0.0629 -0.3650
   85MOL   H25732345   4.626   2.780   1.134 -0.5988 -0.5239  0.9774
   85MOL   H25832346   4.730   2.938   0.980  1.3258  1.1204 -0.5692
   85MOL   H25932347   4.882   2.836   0.978  0.9978  1.4767  0.7225
   85MOL   H26032348   4.776   3.007   1.205  0.5317  0.5679  1.2927
   85MOL   H26132349   4.926   3.018   1.120 -0.2870 -1.3591 -0.2907
   85MOL   H26232350   4.876   2.856   1.355  1.2247 -1.3959  1.2798
   85MOL   H26332351   4.999   2.817   1.235  0.2157 -1.8461 -0.1158
   85MOL   H26432352   4.785   2.661   1.299 -1.6105  1.8715  0.7171
   85MOL   H26532353   4.893   2.641   1.158 -0.0267  0.5122 -1.1572
   85MOL   H26632354   4.595   2.443   0.986 -2.4489  1.8147 -1.3749
   85MOL   H26732355   4.661   2.464   1.136  0.2363  1.1860  0.7155
   85MOL   C26832356   4.464   2.545   1.121 -0.0548  0.0824 -0.0145
   85MOL   C26932357   4.409   2.430   1.202 -0.0947 -0.3851  0.2137
   85MOL   C27032358   4.495   2.384   1.324  0.0599 -0.5350  0.3630
   85MOL   C27132359   4.485   2.230   1.337  0.1289 -0.5465  0.6260
   85MOL   C27232360   4.389   2.185   1.221  1.0154  0.0014 -1.0013
   85MOL   C27332361   4.393   2.301   1.119 -0.2294  0.4587 -0.4207
   85MOL   C27432362   4.355   2.591   1.019 -0.3556 -0.8208 -0.5837
   85MOL   H27532363   4.476   2.627   1.191  1.6629  0.2590 -0.4906
   85MOL   H27632364   4.309   2.452   1.239 -1.1852 -1.5892 -1.9697
   85MOL   H27732365   4.599   2.415   1.318 -0.4295  1.0767 -0.0689
   85MOL   H27832366   4.454   2.418   1.419 -1.4005  2.2293 -1.1827
   85MOL   H27932367   4.580   2.178   1.324 -0.5375 -0.9472 -3.1526
   85MOL   H28032368   4.440   2.201   1.432  1.2117 -2.5887  0.5389
   85MOL   H28132369   4.287   2.164   1.251  0.4274  4.5555  0.6847
   85MOL   H28232370   4.439   2.097   1.182  2.0707  0.6628 -1.1680
   85MOL   H28332371   4.298   2.303   1.064 -0.1477 -2.5365 -0.7980
   85MOL   H28432372   4.476   2.277   1.052  0.3540  1.8095 -0.2009
   85MOL   H28532373   4.354   2.518   0.938  1.6823 -0.1393 -1.2597
   85MOL   H28632374   4.398   2.681   0.973  0.3944 -0.4256  0.8571
   85MOL   C28732375   4.207   2.617   1.067  0.8647 -0.4115  0.0449
   85MOL   C28832376   4.186   2.716   1.184 -0.0928  0.7768 -0.2674
   85MOL   C28932377   4.223   2.862   1.156  0.2023  0.1719  0.1970
   85MOL   C29032378   4.157   2.930   1.281 -0.2837  0.2804 -0.6617
   85MOL   C29132379   4.036   2.844   1.316 -0.2388 -0.4885  0.7862
   85MOL   C29232380   4.043   2.714   1.238  0.1565 -0.1830  0.0938
   85MOL   C29332381   4.123   2.651   0.939  0.0514  0.5037 -0.4033
   85MOL   H29432382   4.154   2.527   1.096 -1.1971  0.3477 -1.2568
   85MOL   H29532383   4.245   2.690   1.272  2.9595  2.0670 -1.8672
   85MOL   H29632384   4.328   2.880   1.135  1.1201 -0.1523  3.9839
   85MOL   H29732385   4.184   2.907   1.065  0.4544 -1.0530 -0.5230
   85MOL   H29832386   4.229   2.918   1.362 -1.5190  0.1779  0.4230
   85MOL   H29932387   4.136   3.036   1.262  0.8001  0.6255  0.0235
   85MOL   H30032388   3.951   2.905   1.282  0.7655  0.1828 -0.5676
   85MOL   H30132389   4.034   2.834   1.424 -0.2384  0.2192  0.8577
   85MOL   H30232390   3.962   2.708   1.166  0.9680 -0.2209 -0.8326
   85MOL   H30332391   4.029   2.627   1.303 -2.3997 -0.4865 -0.7999
   85MOL   H30432392   4.183   2.726   0.889  1.8564  0.2229  1.2579
   85MOL   H30532393   4.026   2.698   0.957  0.6425  1.0266  1.5811
   85MOL   C30632394   4.096   2.527   0.852  0.5887  0.1429  0.1455
   85MOL   C30732395   3.946   2.519   0.808 -0.7702  0.2684  0.0212
   85MOL   C30832396   3.852   2.481   0.931 -0.5642  0.3060  0.4380
   85MOL   C30932397   3.718   2.554   0.893  0.9486 -0.1273  0.8948
   85MOL   C31032398   3.736   2.608   0.755  0.1932  0.4857  0.5794
   85MOL   C31132399   3.886   2.639   0.740 -0.4568 -0.4374  0.2058
   85MOL   C31232400   4.182   2.529   0.725  0.9807 -0.4808 -1.1123
   85MOL   H31332401   4.120   2.435   0.906  0.1963  0.3627  0.7073
   85MOL   H31432402   3.945   2.441   0.732  2.6463 -0.1372  0.2847
   85MOL   H31532403   3.884   2.515   1.029 -0.7678  1.8505 -0.0148
   85MOL   H31632404   3.835   2.373   0.938  2.0838 -0.2255 -0.6614
   85MOL   H31732405   3.628   2.494   0.907 -0.3677  2.1639  2.7902
   85MOL   H31832406   3.708   2.641   0.959  1.8592 -0.0708  0.9562
   85MOL   H31932407   3.683   2.701   0.734  0.3926  0.2832 -0.8322
   85MOL   H32032408   3.713   2.538   0.675  0.4313  1.1199 -0.0476
   85MOL   H32132409   3.907   2.656   0.635  0.9825  0.3038  0.5938
   85MOL   H32232410   3.916   2.729   0.794  0.9744 -1.8230  1.8122
   85MOL   H32332411   4.286   2.555   0.746  0.9815  0.3561 -2.0895
   85MOL   H32432412   4.143   2.609   0.662  0.3109 -1.3150 -1.7775
   85MOL   C32532413   4.180   2.392   0.657  0.0234 -0.2483  0.7177
   85MOL   C32632414   4.297   2.308   0.705  0.1372  0.3166  0.6995
   85MOL   C32732415   4.441   2.350   0.684  0.3988 -0.5664  0.0992
   85MOL   C32832416   4.532   2.234   0.703  0.1167  0.9696  0.2286
   85MOL   C32932417   4.444   2.110   0.686 -0.7855  1.0106  0.6994
   85MOL   C33032418   4.302   2.159   0.661  0.7524  0.7990  0.6476
   85MOL   C33132419   4.185   2.405   0.502 -0.0052  0.4349 -0.3944
   85MOL   H33232420   4.094   2.332   0.686  0.0514 -0.8633 -0.4427
   85MOL   H33332421   4.282   2.298   0.812  0.4556  0.4757  0.7595
   85MOL   H33432422   4.472   2.432   0.749  0.5351 -0.5781  0.0508
   85MOL   H33532423   4.447   2.378   0.578 -0.2294 -0.6312  0.0450
   85MOL   H33632424   4.580   2.230   0.801  2.0322 -0.6911 -0.7365
   85MOL   H33732425   4.608   2.225   0.626 -2.5635  0.0704 -2.3909
   85MOL   H33832426   4.445   2.050   0.777  1.9619 -0.3478 -0.1772
   85MOL   H33932427   4.479   2.044   0.607  0.0870  1.2167  0.9072
   85MOL   H34032428   4.227   2.109   0.722 -1.9818  1.4944 -1.9833
   85MOL   H34132429   4.278   2.134   0.558 -2.4033 -1.4139  1.8482
   85MOL   H34232430   4.199   2.310   0.450 -0.1182  0.7293 -0.9587
   85MOL   H34332431   4.282   2.451   0.481 -0.1833 -0.4395 -3.4111
   85MOL   C34432432   4.073   2.484   0.426 -0.3428  0.3505  0.3301
   85MOL   C34532433   3.944   2.390   0.393 -0.5187  0.1686  0.0366
   85MOL   C34632434   3.957   2.286   0.298 -0.0189 -0.2019 -0.3918
   85MOL   C34732435   3.821   2.241   0.250  0.4564 -0.3022  0.1402
   85MOL   C34832436   3.755   2.379   0.231 -0.4798  0.1119 -0.0885
   85MOL   C34932437   3.818   2.466   0.354 -0.1217  0.7460 -0.3132
   85MOL   C35032438   4.126   2.560   0.301  0.3056  0.6328 -0.3162
   85MOL   H35132439   4.038   2.563   0.493  1.4444 -0.1195  1.8523
   85MOL   H35232440   3.923   2.333   0.483 -0.4035  0.2467  0.1135
   85MOL   H35332441   4.022   2.201   0.317  1.4067  0.8552 -0.4561
   85MOL   H35432442   3.999   2.328   0.207 -3.0251  0.7158 -1.4296
   85MOL   H35532443   3.832   2.172   0.166  1.1064  0.3888 -0.3536
   85MOL   H35632444   3.782   2.182   0.333 -2.7630 -0.0595 -1.1301
   85MOL   H35732445   3.646   2.376   0.235 -0.4025 -2.8816  1.2858
   85MOL   H35832446   3.775   2.435   0.139  0.2705 -1.3373 -0.8294
   85MOL   H35932447   3.834   2.571   0.331  0.6423  0.5577 -0.6400
   85MOL   H36032448   3.742   2.472   0.433 -0.9117  2.2280 -1.1616
   85MOL   H36132449   4.044   2.558   0.228 -1.1917  0.4349  1.3453
   85MOL   H36232450   4.213   2.502   0.269  0.6199  0.0045  1.6425
   85MOL   C36332451   4.160   2.709   0.327  0.5265  0.4167 -0.2558
   85MOL   C36432452   4.258   2.769   0.222 -0.6313  0.3030 -0.0200
   85MOL   C36532453   4.398   2.703   0.216 -0.2448 -0.3246  0.3956
   85MOL   C36632454   4.484   2.795   0.137  0.1017  0.7448  0.1781
   85MOL   C36732455   4.427   2.937   0.168  0.4192  0.3835  0.5348
   85MOL   C36832456   4.297   2.912   0.245 -0.1523  0.4140 -0.2651
   85MOL   C36932457   4.020   2.788   0.325 -0.3369 -0.0912 -0.2934
   85MOL   H37032458   4.213   2.732   0.419  2.5340 -3.0658 -0.4758
   85MOL   H37132459   4.205   2.758   0.127 -2.2497  0.1804  0.8891
   85MOL   H37232460   4.434   2.691   0.318  1.4975 -0.5755 -0.2345
   85MOL   H37332461   4.388   2.608   0.162 -1.4865 -0.6176  1.1289
   85MOL   H37432462   4.591   2.790   0.158  0.0656  1.7986  0.6219
   85MOL   H37532463   4.469   2.777   0.031 -0.7622  1.7716  0.1171
   85MOL   H37632464   4.491   2.992   0.237  1.4639  1.6019 -1.3484
   85MOL   H37732465   4.404   2.998   0.080 -2.0958 -0.9723  0.1928
   85MOL   H37832466   4.224   2.984   0.207  0.1305  0.6020 -0.4525
   85MOL   H37932467   4.321   2.927   0.350  0.3179 -1.0906 -0.1358
   85MOL   H38032468   3.958   2.778   0.236 -0.9922  1.0871  0.0246
   85MOL   H38132469   4.042   2.894   0.336  0.3750 -0.2473 -0.1737
   85MOL   H38232470   3.961   2.769   0.415  1.6478 -0.1243  1.0262
   86MOL     C132471   0.050   6.692   2.849 -0.0878  0.1201  0.7566
   86MOL     C232472   0.109   6.757   2.722  0.7979 -0.2561  0.2009
   86MOL     C332473   0.094   6.907   2.727 -0.6089 -0.1050 -0.3977
   86MOL     C432474   0.010   6.956   2.609 -0.2017 -0.8404  0.4974
   86MOL     C532475   0.008   6.833   2.515  0.4845  0.0053 -0.5749
   86MOL     C632476   0.032   6.708   2.599 -0.6781  0.4678  0.2507
   86MOL     C732477   0.138   6.724   2.975 -0.2617 -1.0813 -0.1284
   86MOL     H832478   7.635   6.714   2.867 -0.1427  1.1997 -0.7204
   86MOL     H932479   0.212   6.723   2.707  0.9823 -0.0815  1.0742
   86MOL    H1032480   0.054   6.944   2.821  0.4040 -2.8223  1.1233
   86MOL    H1132481   0.191   6.956   2.727  0.0967 -1.4654  0.8228
   86MOL    H1232482   7.598   6.981   2.636 -0.9276 -1.3664 -1.6383
   86MOL    H1332483   0.057   7.040   2.557 -2.0764  0.9857  1.7036
   86MOL    H1432484   7.613   6.823   2.446  0.3515  0.2508 -0.4485
   86MOL    H1532485   0.098   6.850   2.456  0.2480  1.9238 -0.4186
   86MOL    H1632486   0.074   6.623   2.546 -2.6497  0.3562 -1.1875
   86MOL    H1732487   7.617   6.683   2.621 -0.7596 -1.4971 -2.2028
   86MOL    H1832488   0.239   6.702   2.941 -0.3976 -1.1811 -0.4685
   86MOL    H1932489   0.128   6.828   3.008  0.1354 -1.0023 -0.2617
   86MOL    H2032490   0.051   6.586   2.821  0.7298  0.3956 -0.3201
   86MOL    C2132491   0.124   6.636   3.099 -0.2909  0.2564 -0.3785
   86MOL    C2232492   7.668   6.629   3.138 -0.1095  0.3551  0.5540
   86MOL    C2332493   7.593   6.761   3.164  0.7124 -0.0461  0.1587
   86MOL    C2432494   7.471   6.722   3.243  0.6052  0.1941  0.0601
   86MOL    C2532495   7.519   6.600   3.335 -0.1361  0.2694  0.2589
   86MOL    C2632496   7.644   6.542   3.268 -0.0704  0.5501  0.2288
   86MOL    C2732497   0.192   6.494   3.093  0.1325  0.1328  0.0791
   86MOL    H2832498   0.182   6.683   3.178  0.2362  0.9499 -1.1649
   86MOL    H2932499   7.622   6.581   3.052  0.4181 -2.3246  1.7242
   86MOL    H3032500   7.576   6.820   3.075 -3.6692  0.5265  1.2480
   86MOL    H3132501   7.653   6.813   3.239  0.0467  0.4605  0.3462
   86MOL    H3232502   7.441   6.801   3.312  1.3447 -0.6394  1.3653
   86MOL    H3332503   7.395   6.682   3.177 -1.3777 -0.3007  2.5607
   86MOL    H3432504   7.446   6.520   3.347  1.3475 -0.9735  1.2059
   86MOL    H3532505   7.539   6.630   3.438 -0.1042  0.4614  0.1986
   86MOL    H3632506   7.628   6.440   3.234  0.7642  0.6937 -0.6049
   86MOL    H3732507   0.039   6.531   3.336 -1.1039 -1.2226  1.2792
   86MOL    H3832508   0.161   6.430   3.176  1.0128 -2.8663 -1.8471
   86MOL    H3932509   0.157   6.445   3.002 -1.1529  0.1621  0.5391
   86MOL    C4032510   0.346   6.491   3.096  0.2983  0.0552  0.0460
   86MOL    C4132511   0.387   6.496   3.242  0.4466 -0.3938 -0.0936
   86MOL    C4232512   0.524   6.561   3.260 -0.5510 -0.4170  0.6141
   86MOL    C4332513   0.573   6.509   3.398 -0.4965 -1.1939  0.6049
   86MOL    C4432514   0.518   6.366   3.405 -0.1629  0.2840 -0.2628
   86MOL    C4532515   0.380   6.363   3.324  0.2933  0.0084  0.0424
   86MOL    C4632516   0.415   6.379   3.006 -0.7428  0.2366 -0.3824
   86MOL    H4732517   0.375   6.592   3.065 -0.1041 -0.2683 -1.4031
   86MOL    H4832518   0.320   6.565   3.292 -0.0364 -0.0215 -1.2411
   86MOL    H4932519   0.500   6.667   3.253  1.4877  0.2026  2.5610
   86MOL    H5032520   0.600   6.525   3.190  0.4355 -0.9135  1.9387
   86MOL    H5132521   0.528   6.566   3.480 -1.5555 -0.2234 -0.6172
   86MOL    H5232522   0.682   6.510   3.395 -0.5021  0.5738  0.1792
   86MOL    H5332523   0.595   6.309   3.354  1.0540 -0.7466  2.5994
   86MOL    H5432524   0.510   6.327   3.507 -2.1413 -2.3293 -1.3634
   86MOL    H5532525   0.372   6.268   3.271  1.4292 -0.5767  0.9018
   86MOL    H5632526   0.296   6.367   3.392 -0.7023  0.3151 -1.1934
   86MOL    H5732527   0.520   6.407   3.015 -0.3988 -1.3373  0.7736
   86MOL    H5832528   0.423   6.278   3.047  1.0546  0.9259  1.0068
   86MOL    C5932529   0.374   6.367   2.852  0.3974 -0.2085 -0.7223
   86MOL    C6032530   0.427   6.491   2.773 -0.0834 -0.0329 -0.9242
   86MOL    C6132531   0.384   6.498   2.631  0.0292  1.1267 -0.5429
   86MOL    C6232532   0.504   6.466   2.538  1.1276  0.3732  0.1290
   86MOL    C6332533   0.616   6.520   2.625  0.4111 -0.0392 -0.3389
   86MOL    C6432534   0.582   6.494   2.770 -0.7154  0.6612 -0.1101
   86MOL    C6532535   0.417   6.231   2.793  0.4568 -0.1077  1.2694
   86MOL    H6632536   0.266   6.367   2.841  0.2480 -0.6719  0.7290
   86MOL    H6732537   0.397   6.568   2.843 -0.1022 -1.2252  0.3889
   86MOL    H6832538   0.375   6.604   2.610 -1.5036  1.4036  1.4072
   86MOL    H6932539   0.293   6.451   2.591  0.7633 -2.2877  1.5883
   86MOL    H7032540   0.494   6.525   2.447 -0.1546  0.3688  0.2557
   86MOL    H7132541   0.514   6.359   2.520 -0.6859  0.3981 -1.1703
   86MOL    H7232542   0.622   6.628   2.607  2.2386  0.2629  1.7278
   86MOL    H7332543   0.710   6.475   2.593 -0.9170 -1.9809 -1.5938
   86MOL    H7432544   0.629   6.402   2.807 -0.8287  1.1807  1.3397
   86MOL    H7532545   0.617   6.572   2.837 -0.3430 -0.2026  0.7035
   86MOL    H7632546   0.478   6.178   2.866  0.1254  1.3249  2.6132
   86MOL    H7732547   0.495   6.249   2.719  1.6091 -3.0398  1.6684
   86MOL    C7832548   0.301   6.131   2.747  0.5746 -0.0666  0.4947
   86MOL    C7932549   0.350   6.021   2.651  0.0326  0.4583  0.1621
   86MOL    C8032550   0.488   5.953   2.676 -0.3561  0.1008  1.2131
   86MOL    C8132551   0.526   5.910   2.536  0.0581 -0.4453  0.4222
   86MOL    C8232552   0.496   6.031   2.452  0.9129 -0.3862 -0.2273
   86MOL    C8332553   0.365   6.080   2.510 -0.1622  0.3447  0.2729
   86MOL    C8432554   0.227   6.075   2.866 -0.0124  0.4885  1.0370
   86MOL    H8532555   0.231   6.192   2.689  0.4045  0.3445  1.1192
   86MOL    H8632556   0.285   5.934   2.647  0.7755 -0.0132 -1.9983
   86MOL    H8732557   0.482   5.874   2.751 -0.1583 -1.6745 -0.5703
   86MOL    H8832558   0.566   6.021   2.709  0.4433  0.1216 -0.6529
   86MOL    H8932559   0.465   5.829   2.497  0.4765 -2.2432  3.3752
   86MOL    H9032560   0.630   5.875   2.540  0.0951 -0.2439  1.3152
   86MOL    H9132561   0.571   6.108   2.472 -1.6685  1.9825  0.5957
   86MOL    H9232562   0.488   5.998   2.348  3.4336  1.3062 -0.9950
   86MOL    H9332563   0.359   6.188   2.516  1.0735  0.3995  0.6487
   86MOL    H9432564   0.277   6.066   2.448  0.9278  0.5512 -1.3562
   86MOL    H9532565   0.185   6.152   2.930 -2.0211 -0.3933  0.7933
   86MOL    H9632566   0.306   6.030   2.926 -0.2015 -0.3766  0.6357
   86MOL    C9732567   0.110   5.975   2.863 -0.5968  0.1345  0.6662
   86MOL    C9832568   0.016   6.001   2.746 -0.3786  0.5223 -0.1778
   86MOL    C9932569   7.599   5.883   2.723 -0.2049  0.2606 -0.1487
   86MOL   C10032570   7.462   5.948   2.696 -0.0967 -0.0408  0.3788
   86MOL   C10132571   7.492   6.099   2.673  0.5694  0.1073 -0.5127
   86MOL   C10232572   7.616   6.128   2.756 -0.1358  0.7001 -0.8032
   86MOL   C10332573   0.040   5.963   2.996  0.0710  0.2517 -0.3280
   86MOL   H10432574   0.169   5.887   2.836 -2.2710 -0.5536 -0.8654
   86MOL   H10532575   0.072   6.009   2.653 -1.6313 -0.8747 -1.0859
   86MOL   H10632576   7.617   5.811   2.644 -1.2290 -3.6418  3.0213
   86MOL   H10732577   7.594   5.817   2.809 -2.3941  0.1235 -0.3382
   86MOL   H10832578   7.397   5.922   2.779  0.2506  1.1590  1.0339
   86MOL   H10932579   7.427   5.906   2.601  2.1528  1.1222 -1.0164
   86MOL   H11032580   7.404   6.158   2.699 -0.7270 -1.2478 -1.6392
   86MOL   H11132581   7.514   6.118   2.568  1.5865 -1.7596 -0.6739
   86MOL   H11232582   7.662   6.219   2.719  0.4764 -0.0579 -1.9313
   86MOL   H11332583   7.585   6.141   2.860  0.1488  1.3422 -0.7975
   86MOL   H11432584   0.005   6.060   3.030 -0.9605 -0.1918 -0.0936
   86MOL   H11532585   7.642   5.898   2.982 -0.7346  1.1997  0.2682
   86MOL   C11632586   0.127   5.896   3.107 -0.1362 -0.9941 -0.1924
   86MOL   C11732587   0.074   5.914   3.243 -0.0093  0.4761  0.2880
   86MOL   C11832588   0.079   6.062   3.300  0.1533  0.0321  0.6307
   86MOL   C11932589   7.636   6.082   3.368  0.2266 -0.5234 -0.0163
   86MOL   C12032590   7.537   5.993   3.294  0.3928 -0.4269 -0.6704
   86MOL   C12132591   7.623   5.863   3.263 -0.2312  0.9700 -0.5507
   86MOL   C12232592   0.156   5.737   3.073  0.4421 -0.6128  0.0959
   86MOL   H12332593   0.224   5.946   3.102 -0.6070  0.0120  0.6902
   86MOL   H12432594   0.142   5.856   3.305 -0.5943  1.0947  1.5295
   86MOL   H12532595   0.154   6.068   3.379 -1.0315  0.7998  1.7264
   86MOL   H12632596   0.089   6.138   3.223 -3.5011  0.9546  0.9899
   86MOL   H12732597   7.606   6.187   3.363  0.2645 -0.4004  1.9096
   86MOL   H12832598   7.638   6.080   3.477 -1.3848 -0.5292  0.0359
   86MOL   H12932599   7.514   6.045   3.202  0.9205 -1.7925 -1.5848
   86MOL   H13032600   7.441   5.983   3.346  1.6288  1.2804  2.0181
   86MOL   H13132601   7.615   5.800   3.351 -1.2240 -1.0637 -2.0638
   86MOL   H13232602   7.586   5.807   3.177 -2.3188  2.6354 -0.7815
   86MOL   H13332603   0.090   5.705   2.992 -0.0129 -3.6521  1.5991
   86MOL   H13432604   0.134   5.668   3.155  1.4465 -0.0478  0.8464
   86MOL   C13532605   0.302   5.700   3.033 -0.3113 -0.3319 -0.2161
   86MOL   C13632606   0.313   5.563   2.957 -0.4341  0.2731  0.0855
   86MOL   C13732607   0.266   5.581   2.808  0.6176 -0.2165 -0.6857
   86MOL   C13832608   0.122   5.518   2.802  1.1438  0.4965 -0.2625
   86MOL   C13932609   0.095   5.450   2.936  0.2002  0.5643 -0.5385
   86MOL   C14032610   0.225   5.454   3.018  0.0941 -0.0106  0.2821
   86MOL   C14132611   0.392   5.713   3.162 -0.3551 -1.1194  0.6001
   86MOL   H14232612   0.347   5.773   2.965  0.0515  0.6898  1.0946
   86MOL   H14332613   0.417   5.530   2.963 -0.5720 -0.2366 -0.3103
   86MOL   H14432614   0.256   5.687   2.783  1.1979 -0.2352 -1.0108
   86MOL   H14532615   0.339   5.544   2.736 -0.1533 -2.8911 -0.1439
   86MOL   H14632616   0.124   5.447   2.719 -1.3017  0.6883 -0.5016
   86MOL   H14732617   0.047   5.594   2.785  1.1580  0.8842  1.3512
   86MOL   H14832618   0.058   5.348   2.936  0.1670  0.5639  0.9624
   86MOL   H14932619   0.013   5.499   2.988  1.3229  3.5774 -1.5076
   86MOL   H15032620   0.213   5.469   3.125  2.9158 -0.7375  0.7509
   86MOL   H15132621   0.276   5.358   3.008 -0.4510 -0.3101  0.3778
   86MOL   H15232622   0.347   5.642   3.232 -0.3824  1.2927  3.1272
   86MOL   H15332623   0.373   5.812   3.203  0.8934 -0.2413 -0.9082
   86MOL   C15432624   0.543   5.687   3.150 -0.2435 -0.4588  1.1324
   86MOL   C15532625   0.622   5.821   3.165  0.6356 -0.2716  0.4854
   86MOL   C15632626   0.620   5.909   3.292  0.0679  0.4863 -0.8757
   86MOL   C15732627   0.628   6.050   3.239  0.0348 -0.0021 -0.3941
   86MOL   C15832628   0.674   6.044   3.094 -0.5858 -0.3719 -0.7537
   86MOL   C15932629   0.610   5.915   3.044  1.5057  0.0772  0.4216
   86MOL   C16032630   0.585   5.579   3.255 -0.4333 -0.3516 -0.5585
   86MOL   H16132631   0.567   5.651   3.050  2.0875  3.5282  0.1399
   86MOL   H16232632   0.723   5.790   3.140 -0.3416 -2.3029 -1.1571
   86MOL   H16332633   0.535   5.887   3.357  0.7504  0.9614  0.1905
   86MOL   H16432634   0.716   5.900   3.343 -0.4173 -3.4203 -0.5632
   86MOL   H16532635   0.527   6.089   3.253 -0.0607 -0.6456  0.7427
   86MOL   H16632636   0.691   6.102   3.311 -2.2784  0.1537  1.6116
   86MOL   H16732637   0.783   6.046   3.087 -0.7000  1.1971 -2.2201
   86MOL   H16832638   0.642   6.137   3.047  1.3783  0.0744 -1.2524
   86MOL   H16932639   0.658   5.869   2.958  0.1700 -0.8181  0.1386
   86MOL   H17032640   0.504   5.926   3.021  1.5880  0.1345  0.0605
   86MOL   H17132641   0.511   5.499   3.247 -0.6884 -0.2852  1.0183
   86MOL   H17232642   0.573   5.630   3.351  0.1668 -1.3010  0.0286
   86MOL   C17332643   0.727   5.519   3.240  0.3239 -0.2279 -1.3848
   86MOL   C17432644   0.730   5.378   3.171  0.0209  0.2231  0.4947
   86MOL   C17532645   0.870   5.321   3.140 -0.0410 -0.2141 -0.0932
   86MOL   C17632646   0.837   5.204   3.051 -0.5512 -0.1788  0.6033
   86MOL   C17732647   0.703   5.227   2.988  0.3589 -0.5900 -0.8070
   86MOL   C17832648   0.656   5.362   3.038  0.8751  0.2660 -0.2465
   86MOL   C17932649   0.796   5.511   3.381 -0.4711 -0.1195 -0.6418
   86MOL   H18032650   0.786   5.586   3.177  1.5344  2.9713  2.9143
   86MOL   H18132651   0.689   5.307   3.243 -2.3169 -1.0934 -2.0366
   86MOL   H18232652   0.915   5.294   3.236 -1.7299  0.3800  0.8754
   86MOL   H18332653   0.927   5.396   3.086 -0.6370  0.5867  0.3936
   86MOL   H18432654   0.912   5.192   2.972 -0.3941 -0.3853  0.7862
   86MOL   H18532655   0.833   5.107   3.099 -0.7016 -0.3696  0.2101
   86MOL   H18632656   0.639   5.152   3.035  0.7945 -0.9688 -0.8177
   86MOL   H18732657   0.708   5.199   2.883 -2.8362  0.3090 -1.2376
   86MOL   H18832658   0.677   5.442   2.968 -1.0778 -0.0786 -1.2779
   86MOL   H18932659   0.548   5.375   3.034  0.6797 -0.7769  1.3976
   86MOL   H19032660   0.721   5.470   3.449 -0.5484 -0.9374 -1.2201
   86MOL   H19132661   0.880   5.442   3.373  0.6878  1.2081 -0.0226
   86MOL   C19232662   0.855   5.634   3.452  0.0665  0.0678  0.9101
   86MOL   C19332663   0.951   5.717   3.362 -0.4593 -0.1768  0.3380
   86MOL   C19432664   1.074   5.642   3.306 -0.1471  0.0901  0.8649
   86MOL   C19532665   1.180   5.755   3.275 -0.3407  0.5332  1.0213
   86MOL   C19632666   1.117   5.881   3.318 -0.1618 -0.0911 -0.2722
   86MOL   C19732667   0.998   5.844   3.410 -0.2223  0.0217 -0.1063
   86MOL   C19832668   0.915   5.597   3.588  0.2221 -0.2685 -0.6181
   86MOL   H19932669   0.771   5.703   3.465  1.2053  1.8858 -1.0858
   86MOL   H20032670   0.893   5.752   3.276  1.4636 -0.1084 -0.9521
   86MOL   H20132671   1.056   5.585   3.214  1.6379  0.5352  0.2107
   86MOL   H20232672   1.126   5.579   3.379  1.4922  0.3510 -0.0391
   86MOL   H20332673   1.273   5.739   3.329  1.0220  2.1709 -0.7720
   86MOL   H20432674   1.211   5.766   3.171  0.7200  0.0309  1.2796
   86MOL   H20532675   1.070   5.935   3.235  0.0509 -0.5873 -0.7165
   86MOL   H20632676   1.195   5.944   3.360 -1.1968  0.2418  1.1979
   86MOL   H20732677   0.919   5.918   3.423 -0.6864 -0.8705  2.4144
   86MOL   H20832678   1.040   5.850   3.510  0.2804 -1.1169 -0.2339
   86MOL   H20932679   0.997   5.526   3.578 -0.3634 -1.1959  0.9189
   86MOL   H21032680   0.961   5.687   3.627 -0.4243 -0.6294  1.0355
   86MOL   C21132681   0.822   5.540   3.701  0.1037  0.1294 -0.3070
   86MOL   C21232682   0.914   5.442   3.794  0.3459  0.1577 -0.2544
   86MOL   C21332683   0.830   5.378   3.907  0.5110 -0.3268 -0.2008
   86MOL   C21432684   0.906   5.246   3.950 -0.4303  0.6070 -0.6923
   86MOL   C21532685   0.969   5.199   3.818  0.5238 -0.1781 -0.3288
   86MOL   C21632686   0.966   5.319   3.720  0.1307 -0.1516 -0.7328
   86MOL   C21732687   0.753   5.654   3.776 -0.0687  0.1869 -0.2325
   86MOL   H21832688   0.748   5.468   3.666  0.4945 -0.0601 -0.7468
   86MOL   H21932689   1.001   5.497   3.828  0.2748 -0.5786  1.1289
   86MOL   H22032690   0.806   5.451   3.984  1.6264 -0.2594  0.1046
   86MOL   H22132691   0.737   5.350   3.859  0.7783 -3.3991  0.9392
   86MOL   H22232692   0.986   5.266   4.020 -1.0656 -0.8314  0.4801
   86MOL   H22332693   0.833   5.176   3.990  0.1727 -0.1266 -0.8718
   86MOL   H22432694   0.917   5.111   3.780 -0.8210 -1.0700  3.3336
   86MOL   H22532695   1.060   5.147   3.847  1.4994  0.8905 -1.4552
   86MOL   H22632696   1.059   5.347   3.671 -0.1311  1.7633 -0.1632
   86MOL   H22732697   0.890   5.287   3.649 -0.0991  0.4125 -0.7418
   86MOL   H22832698   0.755   5.747   3.719  1.9830 -0.5477 -1.4177
   86MOL   H22932699   0.814   5.666   3.865  1.2148  0.0791 -1.0692
   86MOL   C23032700   0.610   5.626   3.829  0.0583  0.2435  0.0146
   86MOL   C23132701   0.511   5.626   3.708  0.3374  0.0802  0.0453
   86MOL   C23232702   0.374   5.568   3.739  0.3910  0.1169 -0.3255
   86MOL   C23332703   0.283   5.628   3.625  0.3703  0.2601 -0.5227
   86MOL   C23432704   0.341   5.761   3.589 -0.0153 -0.0936  0.1197
   86MOL   C23532705   0.484   5.769   3.652  0.4701  0.2331  0.2019
   86MOL   C23632706   0.581   5.738   3.938  0.7497 -0.7094  0.5336
   86MOL   H23732707   0.607   5.531   3.881  3.2047 -1.0854 -2.0376
   86MOL   H23832708   0.550   5.560   3.631 -0.4665  1.0856 -1.2497
   86MOL   H23932709   0.365   5.460   3.737  0.6252  0.0892  0.0991
   86MOL   H24032710   0.333   5.601   3.834 -0.1260 -1.4038 -0.0063
   86MOL   H24132711   0.288   5.557   3.542  1.3390  0.2573 -0.4693
   86MOL   H24232712   0.180   5.625   3.661  0.8047 -1.5721  0.6688
   86MOL   H24332713   0.276   5.842   3.623 -0.8398 -1.0647  0.8451
   86MOL   H24432714   0.359   5.765   3.481  1.7887  0.5816  0.4226
   86MOL   H24532715   0.499   5.841   3.733  2.2347 -1.2994  1.2837
   86MOL   H24632716   0.559   5.792   3.577 -0.9993 -0.1802 -1.4298
   86MOL   H24732717   0.474   5.754   3.952  0.8395 -0.6415  1.1819
   86MOL   H24832718   0.626   5.828   3.895 -0.3085 -0.1265  0.6381
   86MOL   C24932719   0.642   5.734   4.083  0.4137  0.3251  0.5168
   86MOL   C25032720   0.583   5.608   4.155  0.4848 -0.2075  0.0555
   86MOL   C25132721   0.426   5.604   4.183  0.0395  0.5191 -0.0687
   86MOL   C25232722   0.414   5.558   4.330 -0.3071  0.2875  0.1871
   86MOL   C25332723   0.544   5.484   4.354  0.1233  0.0866  0.4524
   86MOL   C25432724   0.649   5.573   4.287  0.5479  0.3264 -0.3693
   86MOL   C25532725   0.624   5.871   4.157  0.2930  0.1582 -0.9564
   86MOL   H25632726   0.749   5.720   4.066  0.3550  1.8009 -1.1626
   86MOL   H25732727   0.599   5.517   4.098 -1.1149  0.6707 -1.8853
   86MOL   H25832728   0.379   5.532   4.115  1.7217 -0.0166 -0.6849
   86MOL   H25932729   0.368   5.695   4.170  1.5223  1.4021 -0.6593
   86MOL   H26032730   0.327   5.497   4.353 -0.1836  0.4172  1.0478
   86MOL   H26132731   0.412   5.643   4.398 -0.8588 -0.4435  1.1021
   86MOL   H26232732   0.541   5.380   4.321 -2.8051  0.6710 -1.3785
   86MOL   H26332733   0.581   5.465   4.454  1.2766  0.2457  0.0645
   86MOL   H26432734   0.747   5.527   4.272  0.2598 -0.5961  0.5298
   86MOL   H26532735   0.665   5.656   4.357 -2.5830  2.1295 -1.6784
   86MOL   H26632736   0.522   5.883   4.195  0.1507 -1.6886 -0.7053
   86MOL   H26732737   0.666   5.855   4.256 -0.7134 -0.6789 -0.6517
   86MOL   C26832738   0.681   5.995   4.092  0.1711 -0.2391  0.4956
   86MOL   C26932739   0.781   6.073   4.178 -0.4763 -0.4246 -0.1966
   86MOL   C27032740   0.896   5.983   4.233  0.9633 -0.2341  0.9144
   86MOL   C27132741   0.911   6.018   4.380 -0.4239  0.3311 -0.3446
   86MOL   C27232742   0.836   6.149   4.396 -0.0300 -0.4849 -0.4541
   86MOL   C27332743   0.724   6.143   4.298  0.4084  0.1730  0.0724
   86MOL   C27432744   0.577   6.087   4.027  0.1674 -0.4068  0.9208
   86MOL   H27532745   0.758   5.966   4.020  1.1567  1.0564  1.0116
   86MOL   H27632746   0.834   6.149   4.121 -1.1983 -0.0622 -0.3928
   86MOL   H27732747   0.877   5.875   4.228 -0.6794 -0.0321  2.2258
   86MOL   H27832748   0.994   6.004   4.192  1.3744 -0.9437  1.5179
   86MOL   H27932749   0.867   5.933   4.431 -0.4758  0.3975 -0.2787
   86MOL   H28032750   1.014   6.026   4.414 -0.5439  0.7043 -0.0604
   86MOL   H28132751   0.904   6.233   4.385 -0.7353  0.1751  0.2111
   86MOL   H28232752   0.799   6.163   4.497 -0.6397  0.8806 -0.8631
   86MOL   H28332753   0.690   6.240   4.261  2.1928  0.7331 -0.1397
   86MOL   H28432754   0.640   6.093   4.347 -0.0285 -0.3689 -1.1993
   86MOL   H28532755   0.499   6.123   4.094 -0.1745  0.6588 -0.0308
   86MOL   H28632756   0.528   6.023   3.953 -2.6215  0.8957  1.5502
   86MOL   C28732757   0.626   6.216   3.946 -0.7775 -0.3339 -1.5599
   86MOL   C28832758   0.723   6.179   3.825  0.0927  0.2864 -0.1558
   86MOL   C28932759   0.659   6.082   3.722 -0.3565 -0.4353 -0.7359
   86MOL   C29032760   0.717   6.125   3.584  0.2481 -1.1469  0.1350
   86MOL   C29132761   0.819   6.235   3.609  0.0393 -0.5464 -0.1565
   86MOL   C29232762   0.787   6.293   3.750 -0.5384  0.1424 -0.4360
   86MOL   C29332763   0.508   6.301   3.904 -0.3995  0.1588  0.5373
   86MOL   H29432764   0.683   6.281   4.012 -1.7953 -1.6305  0.6596
   86MOL   H29532765   0.806   6.123   3.869 -0.3202 -0.6435 -0.5475
   86MOL   H29632766   0.693   5.982   3.748 -0.4316 -0.5480 -1.0706
   86MOL   H29732767   0.550   6.091   3.724 -0.1332  2.4426  1.3878
   86MOL   H29832768   0.772   6.049   3.529 -2.2219 -1.8879 -1.3755
   86MOL   H29932769   0.642   6.155   3.512  0.1621 -2.0845 -0.1792
   86MOL   H30032770   0.826   6.311   3.532  1.3530 -0.2817  0.2101
   86MOL   H30132771   0.916   6.185   3.602 -0.1540 -1.2979  2.0229
   86MOL   H30232772   0.729   6.384   3.734 -0.6900 -0.2193 -1.9930
   86MOL   H30332773   0.879   6.315   3.806 -0.0717  0.5131 -1.3289
   86MOL   H30432774   0.438   6.232   3.858  1.2996 -0.8767 -0.5501
   86MOL   H30532775   0.535   6.369   3.823  1.9887 -0.7892  0.4964
   86MOL   C30632776   0.431   6.381   4.008 -0.2714  0.6102 -0.1941
   86MOL   C30732777   0.485   6.529   4.011  0.1762  0.4141  0.1911
   86MOL   C30832778   0.410   6.641   4.088  0.0057 -0.0938 -0.4878
   86MOL   C30932779   0.511   6.745   4.118 -0.6085  0.7915  0.3979
   86MOL   C31032780   0.648   6.682   4.089 -0.2729 -0.6918 -0.0201
   86MOL   C31132781   0.628   6.538   4.054 -0.6425  0.6130  0.2513
   86MOL   C31232782   0.273   6.364   3.995  0.7146  0.0686  0.0742
   86MOL   H31332783   0.450   6.346   4.110  1.2174  1.9491  0.0116
   86MOL   H31432784   0.485   6.562   3.907 -1.9967  1.6993  0.5717
   86MOL   H31532785   0.369   6.590   4.176 -1.4484  1.2456 -0.3510
   86MOL   H31632786   0.318   6.671   4.036  0.3191  0.6444 -0.6266
   86MOL   H31732787   0.490   6.840   4.069 -0.5192 -0.8303 -2.8937
   86MOL   H31832788   0.505   6.775   4.223 -0.4321  0.5774  0.4680
   86MOL   H31932789   0.697   6.693   4.186  1.6010 -0.8711 -0.9190
   86MOL   H32032790   0.711   6.730   4.015  0.5423 -1.9435 -0.1513
   86MOL   H32132791   0.697   6.501   3.978 -0.0224  1.0403  0.5966
   86MOL   H32232792   0.643   6.468   4.136  1.0648  1.4577  0.6949
   86MOL   H32332793   0.244   6.392   3.894 -1.4347 -2.0084  0.0662
   86MOL   H32432794   0.234   6.453   4.046  1.8415  0.6185 -0.0170
   86MOL   C32532795   0.207   6.237   4.046 -0.4501  0.4112 -0.5373
   86MOL   C32632796   0.111   6.177   3.944  0.7597  0.6950 -0.1147
   86MOL   C32732797   0.050   6.041   3.985  0.2101 -0.2545 -0.2893
   86MOL   C32832798   7.670   5.990   3.854 -0.5323  0.1080  0.3402
   86MOL   C32932799   0.050   6.067   3.743 -0.3105  0.1750  0.0336
   86MOL   C33032800   0.162   6.154   3.805 -0.1801  0.0268  0.2813
   86MOL   C33132801   0.136   6.265   4.181  0.6890  0.3391  0.0086
   86MOL   H33232802   0.286   6.162   4.055 -0.8210 -0.0010 -0.7019
   86MOL   H33332803   0.031   6.251   3.938 -0.3269 -0.4949 -0.5054
   86MOL   H33432804   7.674   6.047   4.072 -0.7158  0.4734 -1.0337
   86MOL   H33532805   0.134   5.974   4.006 -0.1716 -0.7927 -0.4570
   86MOL   H33632806   7.567   6.027   3.853 -0.7853 -0.5817  0.7665
   86MOL   H33732807   7.682   5.882   3.851 -0.6964  0.1100 -0.4593
   86MOL   H33832808   7.673   6.138   3.694 -0.1574  1.1019  1.1363
   86MOL   H33932809   0.090   6.001   3.666 -1.3555 -0.3439 -0.0708
   86MOL   H34032810   0.179   6.246   3.748 -1.9744  1.3775  1.9044
   86MOL   H34132811   0.259   6.104   3.813 -1.2847 -1.8608  2.3431
   86MOL   H34232812   0.040   6.214   4.188  0.5573  0.8123  1.7539
   86MOL   H34332813   0.108   6.368   4.198  1.3096  0.5268 -0.0781
   86MOL   C34432814   0.221   6.227   4.298  0.6571  0.0124  0.2647
   86MOL   C34532815   0.212   6.077   4.335  0.2984  0.5005 -0.0277
   86MOL   C34632816   0.079   6.037   4.404 -0.5454 -0.1625  0.0040
   86MOL   C34732817   0.114   5.900   4.458  0.0498  0.2270 -0.0236
   86MOL   C34832818   0.253   5.914   4.526  0.2687 -0.0409 -0.3249
   86MOL   C34932819   0.324   6.019   4.430 -0.7234  0.0668 -0.2715
   86MOL   C35032820   0.195   6.316   4.423 -0.1115  0.1508 -0.4793
   86MOL   H35132821   0.326   6.240   4.271  1.3888  0.1626  3.0023
   86MOL   H35232822   0.200   6.020   4.242 -0.4931  0.5179  0.0562
   86MOL   H35332823   7.686   6.034   4.333 -1.1436 -0.1858  0.6972
   86MOL   H35432824   0.047   6.093   4.492 -0.2002 -0.5142  0.3581
   86MOL   H35532825   0.041   5.862   4.530  0.8526 -1.8971 -0.3212
   86MOL   H35632826   0.136   5.837   4.373  0.1766  0.7189 -0.3571
   86MOL   H35732827   0.302   5.820   4.554  0.7090  0.5303  0.8671
   86MOL   H35832828   0.230   5.970   4.617 -2.4947  1.2087 -1.7299
   86MOL   H35932829   0.385   6.087   4.487 -0.4276  0.8993 -1.5623
   86MOL   H36032830   0.399   5.960   4.378 -3.1098 -2.7091 -0.7514
   86MOL   H36132831   0.229   6.261   4.511 -1.6872  0.2790  0.2151
   86MOL   H36232832   0.088   6.330   4.433  0.0102 -1.1766  3.6171
   86MOL   C36332833   0.263   6.449   4.426 -0.4844 -0.4709  0.0800
   86MOL   C36432834   0.196   6.548   4.533 -0.0459  0.2538 -0.1292
   86MOL   C36532835   0.224   6.696   4.521  0.1024  0.0119  0.0979
   86MOL   C36632836   0.265   6.740   4.669  0.5430 -0.3455 -0.0561
   86MOL   C36732837   0.230   6.627   4.766 -0.0844 -0.1647  0.4374
   86MOL   C36832838   0.243   6.507   4.677  0.1308 -0.2851  0.1559
   86MOL   C36932839   0.419   6.453   4.430 -0.3822  0.2231 -0.2204
   86MOL   H37032840   0.243   6.499   4.331  3.1936 -1.0491 -1.0836
   86MOL   H37132841   0.090   6.524   4.526  0.1051  0.0264 -2.1675
   86MOL   H37232842   0.302   6.719   4.448  1.2016 -1.0136  0.9328
   86MOL   H37332843   0.134   6.752   4.493 -0.2274 -0.6669 -0.2060
   86MOL   H37432844   0.366   6.780   4.682  0.7478 -1.5954  2.6569
   86MOL   H37532845   0.209   6.829   4.697 -0.0119 -0.9349  0.7271
   86MOL   H37632846   0.305   6.636   4.845 -0.2984  0.6982  0.5473
   86MOL   H37732847   0.131   6.643   4.809 -1.5435 -2.0679 -2.0650
   86MOL   H37832848   0.197   6.414   4.712  0.2444 -0.5986 -0.5231
   86MOL   H37932849   0.351   6.494   4.681  0.5187  2.4818 -0.8320
   86MOL   H38032850   0.455   6.396   4.344 -2.7671 -0.3927 -0.8408
   86MOL   H38132851   0.458   6.412   4.523 -1.6294  2.1879  1.2030
   86MOL   H38232852   0.451   6.557   4.425 -2.4052  0.9470  1.0035
   87MOL     C132853   4.785   4.640   5.791  0.0153  0.8887 -0.0767
   87MOL     C232854   4.937   4.650   5.776  0.0368 -0.1682 -0.2080
   87MOL     C332855   5.007   4.638   5.913  0.1894  0.7205 -0.5141
   87MOL     C432856   5.080   4.770   5.934 -0.5901 -0.9773 -0.3092
   87MOL     C532857   5.023   4.863   5.829  0.4503 -1.0045  0.1051
   87MOL     C632858   4.985   4.781   5.709 -0.5528 -0.1849  0.0842
   87MOL     C732859   4.731   4.508   5.849  0.5128 -0.5045 -0.1964
   87MOL     H832860   4.748   4.720   5.855  0.6514 -0.2136  1.7347
   87MOL     H932861   4.964   4.564   5.715 -1.4819 -0.2396 -0.7889
   87MOL    H1032862   4.945   4.607   5.998  2.8128 -0.4285  1.0500
   87MOL    H1132863   5.084   4.561   5.904  0.7097  1.2413 -0.5647
   87MOL    H1232864   5.070   4.803   6.037 -2.0834 -0.3484 -0.6364
   87MOL    H1332865   5.186   4.757   5.915 -0.9448 -0.6130 -2.7758
   87MOL    H1432866   4.929   4.903   5.867  0.6076 -1.0753  0.5730
   87MOL    H1532867   5.094   4.941   5.805 -0.4166 -0.1843  0.1714
   87MOL    H1632868   5.069   4.766   5.640  0.6970  0.5463  1.4103
   87MOL    H1732869   4.902   4.815   5.647 -0.6142 -1.4340 -0.5486
   87MOL    H1832870   4.744   4.432   5.772  1.0687 -1.1709  0.5465
   87MOL    H1932871   4.783   4.472   5.938 -1.9404 -3.1091  0.2852
   87MOL    H2032872   4.744   4.653   5.691 -1.0321 -2.5818 -0.1680
   87MOL    C2132873   4.583   4.512   5.887 -0.0142  0.0236 -0.2362
   87MOL    C2232874   4.486   4.473   5.768 -0.0867  0.3202 -0.2199
   87MOL    C2332875   4.496   4.554   5.638 -0.2560  0.3718  0.7563
   87MOL    C2432876   4.372   4.526   5.556  0.6215  0.5594  0.3202
   87MOL    C2532877   4.262   4.504   5.659 -0.2356 -0.3172 -0.2014
   87MOL    C2632878   4.334   4.501   5.800 -0.3269 -0.3550  0.7737
   87MOL    C2732879   4.566   4.414   6.008 -0.2054 -0.0579  0.1976
   87MOL    H2832880   4.550   4.607   5.929 -1.2854 -0.8463  0.7922
   87MOL    H2932881   4.506   4.371   5.737 -0.4154  0.4288 -0.7977
   87MOL    H3032882   4.585   4.519   5.587  1.3438  3.3271  1.4458
   87MOL    H3132883   4.512   4.661   5.649 -0.2483  0.3556  0.9103
   87MOL    H3232884   4.351   4.611   5.491 -1.6543 -0.3568 -0.1705
   87MOL    H3332885   4.389   4.454   5.476  1.1465 -0.9419  1.7637
   87MOL    H3432886   4.237   4.401   5.634 -0.4989 -0.0626 -1.0121
   87MOL    H3532887   4.177   4.569   5.640 -1.0572 -1.1606  0.5517
   87MOL    H3632888   4.297   4.425   5.869  2.9153 -3.3423 -0.6174
   87MOL    H3732889   4.315   4.600   5.840 -1.2287 -0.1967 -0.0329
   87MOL    H3832890   4.467   4.372   5.993 -0.3944  1.2695 -2.6819
   87MOL    H3932891   4.628   4.325   5.996  0.9503  0.4427  2.3320
   87MOL    C4032892   4.600   4.471   6.150  0.3747 -0.1245 -0.7437
   87MOL    C4132893   4.476   4.538   6.218 -0.5636  0.1680  0.0227
   87MOL    C4232894   4.508   4.602   6.357 -0.1237  0.0470 -0.2035
   87MOL    C4332895   4.410   4.541   6.464  0.3402 -0.0920  0.6511
   87MOL    C4432896   4.289   4.494   6.380 -0.6559  0.8943 -0.5126
   87MOL    C4532897   4.357   4.439   6.252  0.2666  0.0467  0.9768
   87MOL    C4632898   4.667   4.363   6.242  0.1250 -1.2379  0.8150
   87MOL    H4732899   4.665   4.559   6.144 -0.7082  0.7702  0.5270
   87MOL    H4832900   4.422   4.618   6.168 -0.8324  0.0001  0.0370
   87MOL    H4932901   4.478   4.706   6.363 -2.2593 -0.5721  0.4862
   87MOL    H5032902   4.613   4.583   6.381  0.0235 -0.2533 -1.0740
   87MOL    H5132903   4.389   4.620   6.536  3.4154  2.1130 -0.7398
   87MOL    H5232904   4.459   4.461   6.519  0.6204 -0.8809 -0.7367
   87MOL    H5332905   4.229   4.426   6.440  2.5759 -2.0294 -0.4001
   87MOL    H5432906   4.234   4.584   6.352 -0.6643  0.1862 -2.9609
   87MOL    H5532907   4.404   4.344   6.276  0.8480  0.3534  1.0431
   87MOL    H5632908   4.289   4.424   6.169  1.1327  0.8214  0.1199
   87MOL    H5732909   4.649   4.368   6.349  1.1385  1.8914  0.8821
   87MOL    H5832910   4.609   4.277   6.207  0.3932 -0.8077 -0.7419
   87MOL    C5932911   4.814   4.329   6.219 -0.1558  0.5749  0.2921
   87MOL    C6032912   4.912   4.413   6.305  0.8203  0.5071  0.8103
   87MOL    C6132913   4.891   4.567   6.313 -0.0531  0.3541  0.3593
   87MOL    C6232914   5.023   4.623   6.372 -0.7648  0.5927 -0.8719
   87MOL    C6332915   5.134   4.534   6.316  0.0344 -0.1024 -0.5939
   87MOL    C6432916   5.071   4.397   6.291 -0.3225 -0.4423  0.2091
   87MOL    C6532917   4.841   4.180   6.253  0.2995 -0.5523 -0.2050
   87MOL    H6632918   4.836   4.349   6.114  3.2220 -0.7286  0.6777
   87MOL    H6732919   4.893   4.370   6.404 -0.0739  0.0318  0.4385
   87MOL    H6832920   4.812   4.576   6.387 -0.9634  0.9121 -0.6599
   87MOL    H6932921   4.868   4.615   6.218 -1.3862  0.9380  0.9617
   87MOL    H7032922   5.023   4.599   6.478  4.8821 -0.7929 -1.0407
   87MOL    H7132923   5.033   4.731   6.385  2.5172  0.1400  0.8295
   87MOL    H7232924   5.218   4.534   6.385  1.0550  3.7147 -1.6730
   87MOL    H7332925   5.173   4.576   6.223  1.3779  1.0317  0.4569
   87MOL    H7432926   5.096   4.356   6.193  1.7145 -2.2320  1.4422
   87MOL    H7532927   5.109   4.337   6.374  0.7762  0.0352  0.0525
   87MOL    H7632928   4.792   4.154   6.347 -1.0299 -1.2672 -1.0688
   87MOL    H7732929   4.947   4.162   6.271  0.6447 -0.1898 -1.8339
   87MOL    C7832930   4.800   4.079   6.145 -0.1000  0.2311 -0.1692
   87MOL    C7932931   4.909   4.051   6.031  1.1491  1.2651  0.0632
   87MOL    C8032932   4.939   4.170   5.944 -0.1830 -0.0233  0.3642
   87MOL    C8132933   4.989   4.124   5.809 -0.0195 -0.3337 -0.5410
   87MOL    C8232934   4.908   4.000   5.781  0.0287  0.2275 -0.4668
   87MOL    C8332935   4.856   3.954   5.924  0.1541  0.5172  0.3069
   87MOL    C8432936   4.781   3.946   6.222  0.2598  0.6151  0.4434
   87MOL    H8532937   4.706   4.107   6.097  0.3854  1.4580 -0.4273
   87MOL    H8632938   5.001   4.017   6.078  1.2347  0.3154 -0.7849
   87MOL    H8732939   5.019   4.230   5.985 -0.1611 -0.4624  0.9675
   87MOL    H8832940   4.847   4.227   5.931  0.8135  1.1160 -2.0792
   87MOL    H8932941   5.087   4.083   5.832 -0.3403 -0.8466 -0.0698
   87MOL    H9032942   4.994   4.197   5.728  1.4107 -0.2746 -0.3969
   87MOL    H9132943   4.823   4.026   5.719 -0.1662  0.7345  0.0054
   87MOL    H9232944   4.971   3.922   5.741  0.9794 -0.1989  1.7667
   87MOL    H9332945   4.747   3.956   5.920  0.1919  0.9893 -0.5778
   87MOL    H9432946   4.873   3.848   5.941 -0.3106  0.6248  1.4989
   87MOL    H9532947   4.847   3.938   6.309  0.1168 -0.7359  0.4422
   87MOL    H9632948   4.814   3.863   6.159  1.1181 -1.0345  2.9638
   87MOL    C9732949   4.635   3.916   6.263  0.0452  0.1864  0.6976
   87MOL    C9832950   4.628   3.833   6.399 -0.8992 -0.4260  0.4123
   87MOL    C9932951   4.693   3.698   6.391  0.0929  0.2161  0.1365
   87MOL   C10032952   4.733   3.658   6.536 -0.1215 -0.1469  0.2776
   87MOL   C10132953   4.735   3.792   6.622 -0.0904 -0.1485  0.2672
   87MOL   C10232954   4.676   3.901   6.531 -0.2561 -0.2314  0.0924
   87MOL   C10332955   4.550   3.860   6.142 -0.7541  0.7202  0.1143
   87MOL   H10432956   4.588   4.011   6.288 -1.8572 -0.6650  0.3830
   87MOL   H10532957   4.526   3.801   6.417 -0.9206 -1.0588 -0.8088
   87MOL   H10632958   4.628   3.627   6.340 -1.0516  1.6492 -0.4299
   87MOL   H10732959   4.786   3.704   6.334 -1.3184 -1.4367 -2.4336
   87MOL   H10832960   4.835   3.619   6.535  0.2918  0.9382 -0.4965
   87MOL   H10932961   4.669   3.577   6.573  0.6082 -0.7597  0.2083
   87MOL   H11032962   4.834   3.819   6.659 -1.3762  1.2706  2.7358
   87MOL   H11132963   4.672   3.774   6.709 -0.1347 -0.0340  0.2585
   87MOL   H11232964   4.590   3.947   6.580  0.5834  0.6785  0.7231
   87MOL   H11332965   4.749   3.979   6.515 -1.7966  1.0301 -0.9659
   87MOL   H11432966   4.581   3.919   6.055  0.8602 -1.3903 -0.7662
   87MOL   H11532967   4.579   3.758   6.120  0.2031  0.9715  0.2158
   87MOL   C11632968   4.398   3.866   6.162  0.1745 -0.3329  0.1002
   87MOL   C11732969   4.337   3.994   6.096  0.5217 -0.2388  0.5224
   87MOL   C11832970   4.304   3.994   5.949 -1.0769 -0.1557  0.7472
   87MOL   C11932971   4.207   4.116   5.929  0.0140  0.0440  0.7434
   87MOL   C12032972   4.146   4.138   6.072 -0.3615  0.5299 -0.3711
   87MOL   C12132973   4.200   4.033   6.162  0.0692 -0.4605  0.6285
   87MOL   C12232974   4.334   3.739   6.108 -0.0462  0.3657  0.1091
   87MOL   H12332975   4.370   3.871   6.268  1.3518 -0.1144  0.4080
   87MOL   H12432976   4.408   4.074   6.117  1.4315 -1.3055  1.6209
   87MOL   H12532977   4.390   4.010   5.884 -1.8458 -0.2208 -0.3066
   87MOL   H12632978   4.254   3.902   5.920  2.4974 -2.3109  1.1092
   87MOL   H12732979   4.136   4.092   5.851  0.7400 -0.0612  0.1108
   87MOL   H12832980   4.248   4.212   5.899 -0.0174 -0.2747 -0.3373
   87MOL   H12932981   4.038   4.138   6.054 -0.1364 -2.9276 -2.1599
   87MOL   H13032982   4.181   4.233   6.111  4.0387 -1.4270  0.8226
   87MOL   H13132983   4.208   4.055   6.268  0.5248 -2.3352  1.0065
   87MOL   H13232984   4.137   3.945   6.153 -0.4580 -0.1546  1.3132
   87MOL   H13332985   4.390   3.700   6.023  0.6067 -2.6769  1.8568
   87MOL   H13432986   4.231   3.750   6.074 -0.1281  0.5381  0.4073
   87MOL   C13532987   4.336   3.611   6.199 -0.2046 -0.6109 -0.1362
   87MOL   C13632988   4.352   3.479   6.115  0.0432 -0.1607 -0.0548
   87MOL   C13732989   4.495   3.447   6.065  0.4438  0.4425  0.4986
   87MOL   C13832990   4.484   3.342   5.958  0.1214 -0.6379 -0.2782
   87MOL   C13932991   4.344   3.367   5.903 -0.6825 -0.6733 -0.4027
   87MOL   C14032992   4.268   3.461   5.995  0.1110 -0.1409 -0.6229
   87MOL   C14132993   4.211   3.604   6.298 -0.1915  0.3776 -0.1409
   87MOL   H14232994   4.426   3.612   6.260 -0.9207  0.9301  0.9011
   87MOL   H14332995   4.323   3.401   6.186  0.0418 -0.0120  0.1084
   87MOL   H14432996   4.543   3.532   6.016  1.2381 -0.5577 -0.4778
   87MOL   H14532997   4.567   3.412   6.138  1.7843  0.4608 -0.7957
   87MOL   H14632998   4.487   3.236   5.982 -0.9867 -0.1464  2.2852
   87MOL   H14732999   4.562   3.356   5.883  2.5552 -0.7949  2.1129
   87MOL   H14833000   4.293   3.270   5.904  0.1862 -1.1466 -1.2771
   87MOL   H14933001   4.344   3.415   5.805 -0.7766 -1.3719 -0.7470
   87MOL   H15033002   4.245   3.548   5.933  1.3953 -0.9452 -2.2713
   87MOL   H15133003   4.179   3.401   6.015  0.3349  0.3086  1.8040
   87MOL   H15233004   4.122   3.597   6.237 -1.9701  1.6366  2.2400
   87MOL   H15333005   4.204   3.702   6.344  1.6921  0.3047  0.3751
   87MOL   C15433006   4.209   3.484   6.398  0.2579 -0.7720  0.2833
   87MOL   C15533007   4.211   3.527   6.546 -0.6018 -0.1350  0.1489
   87MOL   C15633008   4.075   3.593   6.591  0.0018  0.4201 -0.3379
   87MOL   C15733009   4.110   3.719   6.662 -0.3961  0.1551  0.3103
   87MOL   C15833010   4.241   3.776   6.594  0.3570  0.2767  0.5619
   87MOL   C15933011   4.320   3.642   6.570 -0.4235  0.5710  0.4543
   87MOL   C16033012   4.096   3.380   6.368  0.5617  0.0874 -0.3387
   87MOL   H16133013   4.303   3.430   6.391 -0.3666 -1.7291 -0.9321
   87MOL   H16233014   4.229   3.448   6.619 -1.5442  0.4745  1.0626
   87MOL   H16333015   4.015   3.617   6.503 -1.1536  0.0374  0.3366
   87MOL   H16433016   4.016   3.524   6.652  0.8778 -0.2408 -0.2394
   87MOL   H16533017   4.029   3.790   6.650  0.5635  1.2465  0.2256
   87MOL   H16633018   4.125   3.691   6.767 -1.3310 -1.9756 -0.0809
   87MOL   H16733019   4.298   3.830   6.669  1.5620  0.7483 -0.6672
   87MOL   H16833020   4.220   3.820   6.497 -1.1331  0.0480  0.7706
   87MOL   H16933021   4.376   3.619   6.660  0.2371 -2.5311 -0.6996
   87MOL   H17033022   4.390   3.654   6.488  1.9181  0.3445  2.3924
   87MOL   H17133023   4.116   3.336   6.271  0.2307  0.3702 -0.5379
   87MOL   H17233024   4.006   3.441   6.355 -0.0819 -1.1859 -1.9529
   87MOL   C17333025   4.087   3.264   6.470 -0.1267 -0.1980 -0.4591
   87MOL   C17433026   4.205   3.170   6.455  0.1046 -0.0804  0.2383
   87MOL   C17533027   4.215   3.091   6.318  0.3433  0.7784  0.0964
   87MOL   C17633028   4.302   2.963   6.354 -0.4041  0.3185 -0.7184
   87MOL   C17733029   4.327   2.963   6.506  0.1887  0.2183 -0.2849
   87MOL   C17833030   4.226   3.063   6.566  0.7062 -0.5367  0.8383
   87MOL   C17933031   3.952   3.192   6.459 -0.3535  0.6168 -0.1785
   87MOL   H18033032   4.079   3.308   6.570  0.1071 -0.9108 -0.1250
   87MOL   H18133033   4.294   3.233   6.464  0.0618  0.4952 -2.7906
   87MOL   H18233034   4.265   3.155   6.246 -0.3933  2.9827  1.4891
   87MOL   H18333035   4.121   3.074   6.266  0.7167 -1.1564  0.0185
   87MOL   H18433036   4.249   2.873   6.324 -0.4160  0.1342 -0.1580
   87MOL   H18533037   4.401   2.958   6.309 -0.8042 -3.2748 -1.3407
   87MOL   H18633038   4.432   2.985   6.528  0.7780 -1.1241 -1.6675
   87MOL   H18733039   4.309   2.862   6.544 -0.1765  0.9977  1.6531
   87MOL   H18833040   4.134   3.018   6.602  0.1170  1.6626  2.1086
   87MOL   H18933041   4.281   3.103   6.651 -0.5123 -1.2744  1.9959
   87MOL   H19033042   3.931   3.173   6.354  3.0834  0.6893 -0.9404
   87MOL   H19133043   3.952   3.086   6.485  1.5312  0.2869 -1.4790
   87MOL   C19233044   3.829   3.246   6.534  0.2900 -0.1674 -0.7185
   87MOL   C19333045   3.816   3.181   6.678  0.5860  0.3668  0.3810
   87MOL   C19433046   3.775   3.028   6.686  0.0341 -0.9355  0.1551
   87MOL   C19533047   3.700   3.014   6.816  0.3472  0.0882 -0.1013
   87MOL   C19633048   3.689   3.157   6.877 -0.4380  0.1744  0.2032
   87MOL   C19733049   3.731   3.261   6.773 -0.6943  0.2502  0.9045
   87MOL   C19833050   3.700   3.231   6.449  0.0423  0.0793  0.1751
   87MOL   H19933051   3.863   3.348   6.552  0.6685 -0.2923 -0.7184
   87MOL   H20033052   3.917   3.195   6.717  1.1217 -1.4605 -0.2716
   87MOL   H20133053   3.858   2.960   6.666  1.6779  0.9521  0.3858
   87MOL   H20233054   3.704   3.006   6.606  0.2033 -0.3692 -0.1550
   87MOL   H20333055   3.596   2.983   6.806  0.0994 -0.0456  2.5352
   87MOL   H20433056   3.744   2.929   6.867 -0.3991 -0.0629  0.2945
   87MOL   H20533057   3.753   3.163   6.965 -0.4788  0.3513  0.2207
   87MOL   H20633058   3.587   3.163   6.915 -0.4153 -2.1508  0.7226
   87MOL   H20733059   3.786   3.347   6.811 -1.2620  0.2277  1.7872
   87MOL   H20833060   3.643   3.286   6.715 -0.8900 -1.3264  0.4929
   87MOL   H20933061   3.717   3.144   6.386  0.7331  0.2156  0.1620
   87MOL   H21033062   3.618   3.211   6.517  1.1638  1.2968  1.9285
   87MOL   C21133063   3.671   3.354   6.364  0.7328 -0.0810 -0.3562
   87MOL   C21233064   3.646   3.314   6.217  0.3424 -0.3929  0.1368
   87MOL   C21333065   3.551   3.195   6.186  0.1504 -0.4419 -0.4322
   87MOL   C21433066   3.503   3.219   6.038  0.6514  0.0392  0.0830
   87MOL   C21533067   3.565   3.350   5.988  0.0042 -0.5041  1.8376
   87MOL   C21633068   3.608   3.423   6.119  0.0638 -0.3792  1.4368
   87MOL   C21733069   3.557   3.436   6.429 -0.0546  0.1966  0.1094
   87MOL   H21833070   3.752   3.426   6.355  0.3483  0.3756 -0.1917
   87MOL   H21933071   3.739   3.263   6.193  1.0040  1.5346 -1.5684
   87MOL   H22033072   3.598   3.097   6.192  0.6445 -0.2073 -0.4705
   87MOL   H22133073   3.466   3.200   6.254  0.1789 -1.1892 -0.3357
   87MOL   H22233074   3.532   3.128   5.984 -0.5968 -0.5382  0.3636
   87MOL   H22333075   3.395   3.230   6.034  0.7689  1.2426  0.2350
   87MOL   H22433076   3.507   3.412   5.920  0.1300  0.5246  2.6653
   87MOL   H22533077   3.654   3.324   5.932 -1.4128  0.6959 -1.0952
   87MOL   H22633078   3.691   3.493   6.125  0.6465 -1.1002  1.9199
   87MOL   H22733079   3.523   3.479   6.157 -1.0462 -0.4863 -0.8396
   87MOL   H22833080   3.545   3.420   6.537  2.5759  0.8175  0.5124
   87MOL   H22933081   3.461   3.398   6.395  0.2333  0.0088 -0.4929
   87MOL   C23033082   3.563   3.589   6.427  0.0726 -0.0005  0.2824
   87MOL   C23133083   3.675   3.631   6.520 -0.3060 -0.3593  0.7559
   87MOL   C23233084   3.718   3.778   6.500  0.1952  0.3324 -0.5610
   87MOL   C23333085   3.705   3.849   6.641  0.1496 -0.7669  0.5762
   87MOL   C23433086   3.702   3.739   6.743  0.1229  0.5460  0.0027
   87MOL   C23533087   3.637   3.616   6.669 -0.7273  0.0595 -0.1468
   87MOL   C23633088   3.428   3.662   6.450  0.6333  0.3247  0.4494
   87MOL   H23733089   3.596   3.622   6.329 -0.6879  0.1131  0.0628
   87MOL   H23833090   3.767   3.576   6.502 -1.0577 -1.0740 -0.9422
   87MOL   H23933091   3.822   3.775   6.467 -0.1241  0.2131 -1.5812
   87MOL   H24033092   3.671   3.833   6.419 -2.8997 -0.2155  0.7882
   87MOL   H24133093   3.784   3.920   6.666  0.1438 -0.2319 -0.8554
   87MOL   H24233094   3.612   3.906   6.652  0.3678 -0.4140  0.5814
   87MOL   H24333095   3.642   3.768   6.829 -1.4360 -0.5439 -0.6913
   87MOL   H24433096   3.803   3.727   6.783 -0.8337  0.2386  2.4377
   87MOL   H24533097   3.532   3.624   6.697 -0.3787  0.9107  0.9606
   87MOL   H24633098   3.681   3.525   6.710  0.2862  0.2539 -0.7834
   87MOL   H24733099   3.444   3.744   6.521  3.9104 -1.5040  1.9531
   87MOL   H24833100   3.368   3.583   6.497  1.0486 -0.3130 -0.0828
   87MOL   C24933101   3.350   3.711   6.328  0.0749 -1.0972  0.2212
   87MOL   C25033102   3.393   3.857   6.278  0.2067 -0.8191 -0.8079
   87MOL   C25133103   3.360   3.973   6.367 -0.1970 -0.6648 -0.0525
   87MOL   C25233104   3.343   4.096   6.269  0.2315  0.5099  0.6187
   87MOL   C25333105   3.355   4.038   6.126  0.0176 -0.4271 -0.6470
   87MOL   C25433106   3.322   3.889   6.146 -0.0492  0.0828 -1.0843
   87MOL   C25533107   3.201   3.699   6.353 -0.0834 -0.5564  0.3846
   87MOL   H25633108   3.376   3.651   6.241  0.3401  1.4748 -1.5358
   87MOL   H25733109   3.499   3.865   6.253  0.8024  0.1704  1.9159
   87MOL   H25833110   3.430   3.997   6.448 -0.0348 -0.8511 -0.1364
   87MOL   H25933111   3.270   3.955   6.426  0.7200 -0.0901  1.5717
   87MOL   H26033112   3.408   4.182   6.287  1.1418  0.1318 -0.7163
   87MOL   H26133113   3.246   4.144   6.280 -1.8051 -2.9825 -1.2452
   87MOL   H26233114   3.458   4.047   6.090 -0.9295 -0.1975 -3.3918
   87MOL   H26333115   3.297   4.089   6.050  0.2960  0.4503 -0.2812
   87MOL   H26433116   3.369   3.826   6.070  0.1498  1.5434 -2.1979
   87MOL   H26533117   3.214   3.874   6.147 -0.2771  1.5255 -2.3508
   87MOL   H26633118   3.183   3.698   6.460 -0.4196  3.5783  0.4158
   87MOL   H26733119   3.139   3.777   6.309  0.5026 -0.4497 -0.2511
   87MOL   C26833120   3.141   3.560   6.309  0.3447  0.7095 -0.7092
   87MOL   C26933121   3.140   3.538   6.157 -0.1779 -0.3250  0.4804
   87MOL   C27033122   3.024   3.605   6.076  0.6852  0.6190  0.2242
   87MOL   C27133123   3.027   3.527   5.937 -0.1655 -0.2550  0.0277
   87MOL   C27233124   3.133   3.418   5.959  0.7085  0.5263  0.2949
   87MOL   C27333125   3.148   3.392   6.107  0.5639 -0.0653 -0.1531
   87MOL   C27433126   3.014   3.516   6.392  0.1691  0.0354 -0.0981
   87MOL   H27533127   3.219   3.490   6.341  0.3801  0.9355 -0.2967
   87MOL   H27633128   3.237   3.576   6.125 -0.0958  0.6956  1.8579
   87MOL   H27733129   2.932   3.587   6.132 -0.3365 -0.6645 -1.8166
   87MOL   H27833130   3.039   3.713   6.073  1.4839  0.5167  0.3990
   87MOL   H27933131   2.927   3.484   5.927  0.2302 -1.4220  0.8941
   87MOL   H28033132   3.048   3.596   5.856 -0.7787 -1.0829 -0.8341
   87MOL   H28133133   3.225   3.432   5.903 -0.2444  2.5172 -0.8329
   87MOL   H28233134   3.090   3.330   5.912  3.2085 -0.1740 -0.7615
   87MOL   H28333135   3.248   3.353   6.121  0.2302 -1.0277 -0.4398
   87MOL   H28433136   3.076   3.331   6.161  2.1673  0.3797  2.5448
   87MOL   H28533137   2.961   3.440   6.335 -0.9884  0.2615  0.6540
   87MOL   H28633138   2.944   3.599   6.405  0.9795  0.4248  1.8127
   87MOL   C28733139   3.035   3.472   6.540  0.1893 -0.5445  0.1361
   87MOL   C28833140   2.991   3.587   6.639  0.2801  0.1851 -0.5638
   87MOL   C28933141   2.844   3.621   6.651 -0.4108  1.2035  0.1410
   87MOL   C29033142   2.826   3.687   6.785  0.3734 -0.1001  0.6299
   87MOL   C29133143   2.950   3.650   6.865  0.0263  0.0261 -0.4607
   87MOL   C29233144   3.029   3.563   6.778  0.5365  0.4035  0.2735
   87MOL   C29333145   2.970   3.335   6.570 -0.5132 -0.4282 -0.3333
   87MOL   H29433146   3.142   3.472   6.564  0.3355  0.0886 -0.5133
   87MOL   H29533147   3.045   3.679   6.616  0.5260  0.2404  0.2334
   87MOL   H29633148   2.813   3.673   6.560 -2.4734  0.4294  0.3738
   87MOL   H29733149   2.781   3.532   6.648  0.0237  0.9202 -0.5149
   87MOL   H29833150   2.822   3.795   6.774  0.7051 -0.3227 -2.2234
   87MOL   H29933151   2.734   3.646   6.828 -0.0183 -0.8592 -0.8922
   87MOL   H30033152   2.930   3.612   6.965  1.1379  0.8789  0.1052
   87MOL   H30133153   3.002   3.744   6.885 -0.3478  0.0891  0.2000
   87MOL   H30233154   3.006   3.463   6.814  0.7696 -0.0274 -0.7475
   87MOL   H30333155   3.136   3.574   6.800  0.6748 -2.2487  1.0891
   87MOL   H30433156   2.865   3.340   6.542 -0.7896  1.9878  0.9676
   87MOL   H30533157   2.974   3.315   6.677  0.8155 -2.2671 -0.6966
   87MOL   C30633158   3.030   3.217   6.490  0.3395  0.2312  0.0217
   87MOL   C30733159   3.178   3.183   6.522  0.0610 -0.9775  0.0134
   87MOL   C30833160   3.204   3.162   6.669 -0.4041 -0.1029 -0.8031
   87MOL   C30933161   3.345   3.101   6.673 -0.2369 -0.1967 -0.1528
   87MOL   C31033162   3.372   3.031   6.541 -0.3865  0.1226  0.5725
   87MOL   C31133163   3.251   3.071   6.449  0.1131  0.0379  0.2115
   87MOL   C31233164   2.926   3.096   6.509  0.2389  0.3240 -0.0919
   87MOL   H31333165   3.042   3.234   6.383  2.9148 -1.1020  0.0649
   87MOL   H31433166   3.238   3.271   6.501 -2.8224  1.4233  1.4921
   87MOL   H31533167   3.135   3.088   6.710  1.6746  0.3082  3.8021
   87MOL   H31633168   3.194   3.253   6.730 -0.0827  1.1739 -2.6272
   87MOL   H31733169   3.418   3.182   6.683 -0.8378  0.1909  1.2503
   87MOL   H31833170   3.365   3.036   6.758  1.9804  1.4523  0.6376
   87MOL   H31933171   3.349   2.925   6.557  0.1928 -0.0148  0.5237
   87MOL   H32033172   3.472   3.038   6.498 -0.5717 -0.9822 -0.0756
   87MOL   H32133173   3.281   3.107   6.350 -0.7333  3.1126  1.0417
   87MOL   H32233174   3.182   2.990   6.428 -1.5180  0.9254  2.0374
   87MOL   H32333175   2.882   3.100   6.609 -0.9352  2.1250 -0.6560
   87MOL   H32433176   2.978   3.001   6.510  1.0608  0.7319 -1.8737
   87MOL   C32533177   2.811   3.094   6.410  0.2816  0.1622 -0.4864
   87MOL   C32633178   2.715   2.977   6.440  0.4534 -0.4248  0.4200
   87MOL   C32733179   2.641   2.963   6.575 -1.2154  0.1585 -1.0392
   87MOL   C32833180   2.575   2.823   6.564 -0.7838  0.3029 -0.4732
   87MOL   C32933181   2.667   2.735   6.480 -0.0333 -0.3081  0.0479
   87MOL   C33033182   2.773   2.834   6.425 -0.3742 -0.2315  0.3196
   87MOL   C33133183   2.859   3.079   6.256  0.3304 -0.1682 -0.4468
   87MOL   H33233184   2.759   3.188   6.426  3.7541  2.2483 -1.2203
   87MOL   H33333185   2.638   2.973   6.363  3.0831  1.4470 -2.4109
   87MOL   H33433186   2.563   3.036   6.595 -1.3253 -0.8722  2.5472
   87MOL   H33533187   2.711   2.947   6.657  0.2784 -2.0104 -2.6656
   87MOL   H33633188   2.471   2.816   6.532  0.2543  1.3793 -4.4575
   87MOL   H33733189   2.580   2.783   6.665 -0.7507  0.3603 -0.4526
   87MOL   H33833190   2.597   2.712   6.401  0.2053  0.8820 -0.5334
   87MOL   H33933191   2.711   2.645   6.522 -0.5693 -0.0712  1.1501
   87MOL   H34033192   2.793   2.804   6.322 -2.2994  2.1550 -0.8300
   87MOL   H34133193   2.864   2.832   6.484  0.2920  1.1141 -0.6407
   87MOL   H34233194   2.879   2.973   6.240 -1.3454 -0.1781 -2.8133
   87MOL   H34333195   2.952   3.135   6.244  1.0058 -1.1935 -0.0454
   87MOL   C34433196   2.764   3.148   6.149 -0.8478 -0.5682  0.2683
   87MOL   C34533197   2.815   3.123   6.004  0.1162  0.1489  0.1246
   87MOL   C34633198   2.728   3.170   5.892 -0.1685 -0.4199  0.1711
   87MOL   C34733199   2.797   3.111   5.768 -0.7896  0.3505  0.1730
   87MOL   C34833200   2.885   2.989   5.816  0.1524 -0.4609 -0.1102
   87MOL   C34933201   2.851   2.980   5.965 -0.8377 -0.1712 -0.0824
   87MOL   C35033202   2.747   3.305   6.174 -0.5421 -0.3416  0.0760
   87MOL   H35133203   2.670   3.095   6.165 -1.1358 -1.0413 -2.8251
   87MOL   H35233204   2.914   3.167   5.991 -0.0417  0.1935 -0.9667
   87MOL   H35333205   2.727   3.279   5.892 -0.9675 -0.4209 -0.1047
   87MOL   H35433206   2.626   3.131   5.897 -0.9631  1.3140 -1.9194
   87MOL   H35533207   2.721   3.079   5.697  0.4216  0.6319 -1.2683
   87MOL   H35633208   2.860   3.185   5.719 -0.4935  0.5587  0.8496
   87MOL   H35733209   2.990   3.012   5.804  0.0673 -0.2627 -0.4642
   87MOL   H35833210   2.854   2.892   5.777 -0.1433  0.1628 -1.4505
   87MOL   H35933211   2.765   2.917   5.988 -1.8883  1.7346  1.4497
   87MOL   H36033212   2.933   2.923   6.008 -0.3908 -1.4538 -2.5150
   87MOL   H36133213   2.826   3.351   6.115  0.9040 -1.7051  0.9090
   87MOL   H36233214   2.760   3.331   6.279 -1.0061  0.1097  0.0246
   87MOL   C36333215   2.617   3.380   6.139 -0.2612 -0.5062 -0.5205
   87MOL   C36433216   2.520   3.401   6.256 -0.6273  0.4189 -0.5501
   87MOL   C36533217   2.574   3.507   6.354 -0.2848  0.7211 -0.4872
   87MOL   C36633218   2.561   3.434   6.485 -0.0354 -0.7830  0.2252
   87MOL   C36733219   2.446   3.331   6.477 -0.3054  0.3548 -0.5436
   87MOL   C36833220   2.464   3.282   6.334  0.1283  0.2495  0.1127
   87MOL   C36933221   2.649   3.515   6.071 -0.4367  0.4185  0.5419
   87MOL   H37033222   2.573   3.324   6.056 -0.8188 -0.5299 -0.2058
   87MOL   H37133223   2.442   3.459   6.206 -1.0109  0.9287  0.6290
   87MOL   H37233224   2.676   3.532   6.326 -0.0331  2.8367  2.1243
   87MOL   H37333225   2.523   3.604   6.350 -0.7435  0.4561 -1.2849
   87MOL   H37433226   2.651   3.377   6.506  0.0193 -0.3422  1.2428
   87MOL   H37533227   2.553   3.505   6.568  0.6868 -1.0005  0.4828
   87MOL   H37633228   2.454   3.242   6.540  1.3950 -0.7206 -2.2013
   87MOL   H37733229   2.348   3.373   6.499  0.0208 -0.5361  2.8445
   87MOL   H37833230   2.371   3.246   6.290  1.3501 -3.6405  0.5236
   87MOL   H37933231   2.543   3.207   6.334 -0.5083 -0.4361 -0.8893
   87MOL   H38033232   2.699   3.500   5.975  0.6677  0.3112  1.1226
   87MOL   H38133233   2.724   3.575   6.123 -0.5621  1.1721 -0.1401
   87MOL   H38233234   2.567   3.587   6.074  0.9523  2.0602  0.3713
   88MOL     C133235   4.703   5.169   5.486  0.4251  0.1367 -0.6914
   88MOL     C233236   4.692   5.056   5.381 -0.2221 -0.3677  0.4158
   88MOL     C333237   4.672   4.918   5.434 -0.1766  0.8383 -0.2119
   88MOL     C433238   4.729   4.824   5.327  0.3660  0.0368  0.4197
   88MOL     C533239   4.815   4.912   5.233  0.0621  0.4946  0.1625
   88MOL     C633240   4.813   5.051   5.285  0.0006  0.4428 -0.3076
   88MOL     C733241   4.590   5.166   5.594  0.3518  0.5924 -0.4827
   88MOL     H833242   4.801   5.159   5.532  0.6128 -0.5554 -1.2334
   88MOL     H933243   4.606   5.072   5.317  0.0781 -0.1391  0.0705
   88MOL    H1033244   4.716   4.891   5.530 -1.4694 -1.7963 -0.3341
   88MOL    H1133245   4.566   4.898   5.452  0.0953  1.1461  1.8321
   88MOL    H1233246   4.798   4.751   5.370 -0.4292 -0.8924  0.1303
   88MOL    H1333247   4.637   4.801   5.274  0.9448  1.8650 -1.4271
   88MOL    H1433248   4.918   4.877   5.218  0.5083  2.2087 -0.8550
   88MOL    H1533249   4.767   4.912   5.136  1.7182  0.7459 -0.6853
   88MOL    H1633250   4.802   5.120   5.201 -1.8176  0.3010 -0.2094
   88MOL    H1733251   4.904   5.068   5.342 -1.3620  0.9879  1.8032
   88MOL    H1833252   4.494   5.154   5.543  1.0909  1.6762 -2.1735
   88MOL    H1933253   4.599   5.071   5.647 -1.2305  0.9018  0.3783
   88MOL    H2033254   4.700   5.265   5.434  0.8010 -0.3296 -1.5940
   88MOL    C2133255   4.581   5.284   5.695 -0.4421  0.3254  0.1925
   88MOL    C2233256   4.723   5.331   5.737  0.0465 -0.1545  0.1054
   88MOL    C2333257   4.820   5.233   5.813 -0.1545  0.2947  0.9304
   88MOL    C2433258   4.925   5.318   5.888  0.5173  0.9308  0.0123
   88MOL    C2533259   4.856   5.454   5.894 -0.6537 -0.5738 -0.1733
   88MOL    C2633260   4.718   5.442   5.845  0.0517 -0.4283 -0.2300
   88MOL    C2733261   4.507   5.400   5.629  0.2322 -0.1280  0.7786
   88MOL    H2833262   4.539   5.244   5.788  1.3770 -0.9574  0.4952
   88MOL    H2933263   4.773   5.374   5.650  0.1356  1.6379  1.0402
   88MOL    H3033264   4.876   5.168   5.746 -1.0075 -0.5810  1.0613
   88MOL    H3133265   4.759   5.166   5.873 -3.5514 -0.7147 -3.3770
   88MOL    H3233266   4.932   5.275   5.988 -2.0405  0.2708 -0.0518
   88MOL    H3333267   5.017   5.319   5.831 -0.8055 -0.6436 -2.2160
   88MOL    H3433268   4.900   5.531   5.831  2.4185 -1.8737  0.2834
   88MOL    H3533269   4.849   5.485   5.998 -0.6587 -0.2652 -0.2641
   88MOL    H3633270   4.675   5.538   5.816  2.1015  0.9013  0.9901
   88MOL    H3733271   4.667   5.411   5.936 -1.4514 -0.7247 -1.1690
   88MOL    H3833272   4.546   5.496   5.661 -1.2447  1.1326 -1.1191
   88MOL    H3933273   4.531   5.400   5.523 -1.3199  1.5136  0.3956
   88MOL    C4033274   4.355   5.387   5.644  0.5884  0.3360 -0.2219
   88MOL    C4133275   4.305   5.456   5.770  0.3992  0.1211 -0.0973
   88MOL    C4233276   4.373   5.415   5.898  0.3148  0.1483 -0.8181
   88MOL    C4333277   4.269   5.436   6.015 -0.0843  0.4299 -0.6033
   88MOL    C4433278   4.129   5.427   5.945 -0.7287 -0.0298 -0.1060
   88MOL    C4533279   4.160   5.424   5.796  0.3706 -0.0104  0.4321
   88MOL    C4633280   4.291   5.446   5.514 -0.1586 -0.6901 -0.2080
   88MOL    H4733281   4.338   5.280   5.653  0.0139  0.4680  0.3308
   88MOL    H4833282   4.311   5.565   5.767  0.2331  0.2109  2.1486
   88MOL    H4933283   4.459   5.480   5.913 -0.9640  2.1926 -2.0644
   88MOL    H5033284   4.381   5.306   5.897  1.9213  0.2608 -1.1081
   88MOL    H5133285   4.278   5.534   6.061 -2.2570 -0.1592  1.1776
   88MOL    H5233286   4.284   5.377   6.105 -2.7444  0.2898 -0.2145
   88MOL    H5333287   4.082   5.333   5.976 -1.0622 -0.0866 -0.7751
   88MOL    H5433288   4.078   5.514   5.988 -0.2352  1.1890 -1.9252
   88MOL    H5533289   4.134   5.329   5.750 -0.4520  0.5247 -0.2294
   88MOL    H5633290   4.102   5.497   5.739 -2.5941 -0.7415  2.4370
   88MOL    H5733291   4.189   5.476   5.540  0.5853  0.4433  1.5105
   88MOL    H5833292   4.343   5.539   5.493 -1.4910 -0.0721 -0.9146
   88MOL    C5933293   4.290   5.345   5.392 -0.3389 -0.4420 -0.6744
   88MOL    C6033294   4.168   5.250   5.418  0.1356 -0.1310  0.4555
   88MOL    C6133295   4.191   5.119   5.350 -0.1919  0.0466  0.9365
   88MOL    C6233296   4.047   5.056   5.345  0.6093  0.0321 -0.1705
   88MOL    C6333297   3.949   5.176   5.369  0.5658 -0.2446 -0.2915
   88MOL    C6433298   4.039   5.298   5.358  0.6121  0.2006  0.1181
   88MOL    C6533299   4.293   5.415   5.259  1.0736  0.4407  0.5541
   88MOL    H6633300   4.379   5.284   5.408 -0.6685 -0.6681  0.3746
   88MOL    H6733301   4.158   5.237   5.526 -0.7858 -0.3317  0.3488
   88MOL    H6833302   4.254   5.050   5.407  0.9939  0.7079  0.4367
   88MOL    H6933303   4.213   5.126   5.244 -2.5349 -0.8622  0.3522
   88MOL    H7033304   4.022   4.984   5.423 -0.5581  0.6371  0.0330
   88MOL    H7133305   4.049   5.022   5.242  1.1935 -1.3202  0.2818
   88MOL    H7233306   3.897   5.155   5.463  0.0442  0.1928 -0.4834
   88MOL    H7333307   3.879   5.169   5.287 -1.4066  1.3518  1.2143
   88MOL    H7433308   4.043   5.330   5.254 -3.1026 -0.0402 -0.1731
   88MOL    H7533309   3.988   5.373   5.419  1.4070  0.2740  0.7056
   88MOL    H7633310   4.221   5.497   5.254  0.8052  0.0932 -1.8800
   88MOL    H7733311   4.258   5.345   5.183  0.2835  0.7437  0.6394
   88MOL    C7833312   4.431   5.464   5.221 -0.4521 -0.1066  0.1047
   88MOL    C7933313   4.488   5.410   5.086 -0.1683  0.2780  0.3929
   88MOL    C8033314   4.409   5.445   4.965 -0.1030 -0.2971  0.6033
   88MOL    C8133315   4.455   5.347   4.852  0.0636  0.0321  0.4333
   88MOL    C8233316   4.529   5.230   4.936  0.1948 -0.2082  0.2802
   88MOL    C8333317   4.519   5.265   5.083  0.1112 -0.0663  0.4655
   88MOL    C8433318   4.434   5.618   5.218  0.2009  0.0717 -0.0910
   88MOL    H8533319   4.499   5.438   5.302  0.4705  1.6098 -0.0983
   88MOL    H8633320   4.585   5.459   5.079 -1.0577  2.2933  1.5790
   88MOL    H8733321   4.429   5.545   4.927 -0.2536 -0.0917  1.0582
   88MOL    H8833322   4.301   5.446   4.978  0.0540 -1.1841  2.0573
   88MOL    H8933323   4.515   5.400   4.778  0.0461 -1.1249 -0.4175
   88MOL    H9033324   4.376   5.297   4.796  0.0039  0.5621  0.0482
   88MOL    H9133325   4.491   5.129   4.917  0.5269 -0.4781  1.0296
   88MOL    H9233326   4.636   5.241   4.917 -0.2601  0.7084 -1.9756
   88MOL    H9333327   4.434   5.210   5.125  1.5089 -0.4112  2.9467
   88MOL    H9433328   4.615   5.239   5.129  1.0326  1.5743 -0.5159
   88MOL    H9533329   4.376   5.650   5.304  1.1632 -0.1589  0.6523
   88MOL    H9633330   4.381   5.654   5.130  0.9132 -0.0343 -0.5698
   88MOL    C9733331   4.571   5.691   5.233 -0.2029  0.4869  1.0066
   88MOL    C9833332   4.617   5.681   5.378 -0.0162 -0.2275 -0.0542
   88MOL    C9933333   4.762   5.702   5.400  0.7921 -1.0445 -0.2351
   88MOL   C10033334   4.784   5.720   5.549  0.1432  0.0888  0.6983
   88MOL   C10133335   4.656   5.792   5.593 -0.6108 -0.7596  0.2573
   88MOL   C10233336   4.550   5.771   5.479 -0.2184 -0.2396 -0.0415
   88MOL   C10333337   4.576   5.839   5.184 -0.4298 -0.0044  0.1306
   88MOL   H10433338   4.645   5.647   5.166 -1.4610  0.9571 -0.7193
   88MOL   H10533339   4.598   5.577   5.405 -0.4079 -0.4899 -1.3305
   88MOL   H10633340   4.815   5.612   5.369  3.3274  0.8336 -1.4936
   88MOL   H10733341   4.805   5.785   5.344 -2.3527  1.2642  0.6450
   88MOL   H10833342   4.878   5.764   5.582  0.0883  0.5383  0.2786
   88MOL   H10933343   4.774   5.621   5.592 -0.0680  0.0855  0.6452
   88MOL   H11033344   4.674   5.899   5.606 -2.0059 -0.5418  0.5442
   88MOL   H11133345   4.619   5.742   5.683 -0.4297 -2.7632 -0.7595
   88MOL   H11233346   4.469   5.714   5.525 -0.0136 -1.8695 -1.6193
   88MOL   H11333347   4.521   5.870   5.445  1.2268  0.5561  0.9970
   88MOL   H11433348   4.477   5.880   5.203 -0.2384 -0.3073  1.9157
   88MOL   H11533349   4.647   5.902   5.239  0.5327 -1.1216  0.1978
   88MOL   C11633350   4.609   5.845   5.030 -0.2325 -0.8034  0.0713
   88MOL   C11733351   4.526   5.963   4.962 -1.0173  0.3190  0.3832
   88MOL   C11833352   4.548   5.970   4.815  0.9842  0.6417  0.7603
   88MOL   C11933353   4.423   6.034   4.749  0.3021  0.5059 -0.2151
   88MOL   C12033354   4.316   5.967   4.837 -0.2557 -0.0991 -0.6274
   88MOL   C12133355   4.378   5.958   4.973 -0.0220 -0.4891 -0.6796
   88MOL   C12233356   4.766   5.880   5.015  0.1580  0.0391 -0.1665
   88MOL   H12333357   4.602   5.745   4.986  0.0065  0.4627 -3.0226
   88MOL   H12433358   4.564   6.053   5.009  4.5058 -1.0227 -1.0059
   88MOL   H12533359   4.635   6.025   4.780 -0.2026  1.2475 -1.3789
   88MOL   H12633360   4.544   5.867   4.780  2.2259  1.6381 -2.4618
   88MOL   H12733361   4.429   6.021   4.641  0.1465 -0.4802 -0.1036
   88MOL   H12833362   4.418   6.143   4.759  2.7672  0.7489 -1.2389
   88MOL   H12933363   4.307   5.863   4.806  2.4967 -0.7848  0.6253
   88MOL   H13033364   4.215   6.007   4.831 -0.8031 -1.2519  0.7092
   88MOL   H13133365   4.351   6.041   5.039  0.7752 -2.0497  1.6854
   88MOL   H13233366   4.336   5.872   5.027  0.3306 -1.0525 -1.3019
   88MOL   H13333367   4.808   5.856   5.112 -0.1191 -1.3069 -0.3555
   88MOL   H13433368   4.772   5.987   4.997 -3.2756  0.0009 -1.9955
   88MOL   C13533369   4.835   5.787   4.913 -0.3173  0.3561 -0.1302
   88MOL   C13633370   4.853   5.639   4.944  0.1887  0.0545 -1.1142
   88MOL   C13733371   4.957   5.583   5.045 -0.5894 -0.1348  0.1204
   88MOL   C13833372   4.986   5.439   5.002  0.5620  0.0245 -0.5335
   88MOL   C13933373   4.901   5.405   4.885  0.2140  0.6700  0.2446
   88MOL   C14033374   4.865   5.545   4.821  0.5104  0.3368 -0.2769
   88MOL   C14133375   4.972   5.847   4.881  0.0410 -0.4564 -0.4997
   88MOL   H14233376   4.780   5.796   4.819 -1.8838 -0.2065  0.7209
   88MOL   H14333377   4.754   5.606   4.977 -0.5885  2.2045 -1.2284
   88MOL   H14433378   5.045   5.646   5.032 -1.5878  1.5032  1.1613
   88MOL   H14533379   4.917   5.608   5.143 -3.5682  0.3086 -1.1363
   88MOL   H14633380   4.982   5.365   5.083 -0.4062  1.0215  0.3442
   88MOL   H14733381   5.094   5.439   4.987  0.7617  0.8147  0.8311
   88MOL   H14833382   4.815   5.359   4.932 -0.1817  1.0513 -0.0951
   88MOL   H14933383   4.939   5.335   4.811  1.7395  1.5923  0.1361
   88MOL   H15033384   4.945   5.568   4.750  1.0245 -0.2160  0.1141
   88MOL   H15133385   4.774   5.551   4.762 -0.1030 -1.1000  0.5076
   88MOL   H15233386   5.050   5.776   4.853  1.1813  1.0663 -1.2381
   88MOL   H15333387   5.005   5.882   4.979 -0.1202  0.4598 -0.7771
   88MOL   C15433388   4.981   5.959   4.779  0.2868 -0.0298 -0.2507
   88MOL   C15533389   5.117   6.030   4.792 -0.8172  0.0183 -0.0745
   88MOL   C15633390   5.127   6.174   4.741  0.1744  0.4132 -0.5244
   88MOL   C15733391   5.280   6.186   4.691 -0.1945 -0.5183 -0.0055
   88MOL   C15833392   5.349   6.069   4.756  0.0886  0.7767 -0.5063
   88MOL   C15933393   5.239   5.961   4.746  0.1986  0.4095  0.1568
   88MOL   C16033394   4.953   5.890   4.642  0.5310 -0.1334 -0.1101
   88MOL   H16133395   4.894   6.019   4.806  1.3149  0.6874  1.5010
   88MOL   H16233396   5.136   6.031   4.899  0.8997 -3.3839 -0.2790
   88MOL   H16333397   5.047   6.206   4.673  0.0787  0.5232 -0.3631
   88MOL   H16433398   5.099   6.245   4.819 -0.3615  1.3978 -1.5955
   88MOL   H16533399   5.295   6.174   4.584  1.7929  0.8738  0.0779
   88MOL   H16633400   5.326   6.284   4.706 -1.6411  0.3724 -1.3343
   88MOL   H16733401   5.380   6.096   4.857 -1.1099 -0.1439  0.1256
   88MOL   H16833402   5.440   6.039   4.703  0.8356  1.2939  0.4663
   88MOL   H16933403   5.257   5.863   4.789 -3.1737  0.3988  1.7064
   88MOL   H17033404   5.219   5.936   4.641  1.3038 -1.4549  0.3841
   88MOL   H17133405   4.858   5.838   4.636  0.3978 -0.1756  2.0803
   88MOL   H17233406   5.032   5.814   4.637  0.5963 -0.0435 -0.4976
   88MOL   C17333407   4.967   5.969   4.506  0.4348  0.5562 -0.1340
   88MOL   C17433408   4.843   6.065   4.491  0.1553 -0.3469  0.0930
   88MOL   C17533409   4.707   5.996   4.466  0.5113 -0.1299  0.3599
   88MOL   C17633410   4.639   6.076   4.352  0.4313  0.2985  0.4377
   88MOL   C17733411   4.719   6.208   4.341  0.4442  0.4031  0.1483
   88MOL   C17833412   4.856   6.176   4.395 -0.6702 -0.7556  0.0157
   88MOL   C17933413   4.994   5.866   4.392 -0.0504 -0.0264  0.9113
   88MOL   H18033414   5.053   6.033   4.523  0.6472  0.6759 -1.6198
   88MOL   H18133415   4.824   6.106   4.590  0.0527 -0.5414  0.1540
   88MOL   H18233416   4.650   5.994   4.559 -0.5508  0.0919 -0.2779
   88MOL   H18333417   4.713   5.898   4.418  0.3576  0.9760 -1.9855
   88MOL   H18433418   4.653   6.022   4.259 -2.7362 -2.2823  1.3537
   88MOL   H18533419   4.535   6.092   4.380 -0.0427 -1.1223 -0.4579
   88MOL   H18633420   4.665   6.279   4.404  0.1584  1.1931 -0.9732
   88MOL   H18733421   4.722   6.252   4.242 -0.4606  0.2400  0.0400
   88MOL   H18833422   4.935   6.162   4.321  0.2063  0.6623  0.6453
   88MOL   H18933423   4.883   6.265   4.453 -3.2611 -1.1141  1.8453
   88MOL   H19033424   4.910   5.796   4.388 -0.7898  0.8281  1.2405
   88MOL   H19133425   4.973   5.923   4.301  1.1704 -1.2739 -0.1960
   88MOL   C19233426   5.135   5.813   4.373  0.6852  0.0643  0.3046
   88MOL   C19333427   5.230   5.919   4.318 -0.5573  0.0573  0.0317
   88MOL   C19433428   5.214   5.945   4.165 -0.4293  0.4770 -0.1642
   88MOL   C19533429   5.355   5.989   4.109 -0.1962 -0.5998 -0.0054
   88MOL   C19633430   5.447   5.996   4.238  0.7111 -0.1503  0.1955
   88MOL   C19733431   5.379   5.905   4.340 -0.1295 -0.1299 -0.5247
   88MOL   C19833432   5.112   5.680   4.286  0.3050 -0.1906 -0.0783
   88MOL   H19933433   5.182   5.787   4.468  0.4079  0.4252  0.5405
   88MOL   H20033434   5.215   6.013   4.371 -0.7749  0.2342 -0.3452
   88MOL   H20133435   5.134   6.014   4.142 -0.9129  0.9142  2.6495
   88MOL   H20233436   5.191   5.856   4.105 -1.2058 -0.3128  1.2849
   88MOL   H20333437   5.394   5.928   4.028  0.4551 -0.3537  0.1207
   88MOL   H20433438   5.345   6.086   4.061  1.7887  0.3888  1.5084
   88MOL   H20533439   5.457   6.102   4.264 -0.4274 -0.2182  0.9464
   88MOL   H20633440   5.546   5.954   4.224  1.2530  1.1975 -0.1133
   88MOL   H20733441   5.411   5.945   4.436  1.1392  0.0028 -0.9935
   88MOL   H20833442   5.403   5.799   4.329 -2.2873 -0.6224 -0.6258
   88MOL   H20933443   5.030   5.688   4.215  0.5878  0.0685 -0.3771
   88MOL   H21033444   5.206   5.675   4.232  0.6523 -2.6239  0.7190
   88MOL   C21133445   5.110   5.556   4.381  0.6417 -0.6769 -0.7956
   88MOL   C21233446   5.017   5.441   4.341 -0.0715 -0.0530  0.6193
   88MOL   C21333447   4.863   5.466   4.328 -0.3118  0.2299 -0.2074
   88MOL   C21433448   4.811   5.343   4.253  0.3621 -0.3988 -0.4100
   88MOL   C21533449   4.919   5.325   4.151 -0.0111 -0.3757 -0.3953
   88MOL   C21633450   5.058   5.366   4.209  0.2433  0.2020 -0.2661
   88MOL   C21733451   5.253   5.509   4.410 -0.1237  0.8903  0.0858
   88MOL   H21833452   5.058   5.592   4.470  0.2430  1.2176 -1.7529
   88MOL   H21933453   5.022   5.365   4.419  0.3358  0.4432  1.0775
   88MOL   H22033454   4.823   5.467   4.430 -0.7848 -2.3695 -0.3509
   88MOL   H22133455   4.847   5.568   4.292  0.1304 -0.5539 -2.6676
   88MOL   H22233456   4.806   5.267   4.331 -0.3507 -1.1025 -1.1305
   88MOL   H22333457   4.711   5.358   4.211  0.2653 -0.0359 -0.0434
   88MOL   H22433458   4.911   5.396   4.069  2.6567 -1.5993 -1.7574
   88MOL   H22533459   4.916   5.223   4.114 -0.6605 -1.4149  2.3800
   88MOL   H22633460   5.120   5.279   4.229 -0.5754 -0.5882 -1.1482
   88MOL   H22733461   5.112   5.434   4.143 -0.1679  2.6197  1.8090
   88MOL   H22833462   5.320   5.595   4.422 -0.4617  0.9193  1.8379
   88MOL   H22933463   5.284   5.450   4.325  1.2024 -0.5169  1.5240
   88MOL   C23033464   5.275   5.425   4.534  0.4600 -0.6933 -0.9556
   88MOL   C23133465   5.384   5.489   4.632  0.1983  0.0364  0.9646
   88MOL   C23233466   5.530   5.501   4.572 -0.0571 -0.1773 -0.4913
   88MOL   C23333467   5.575   5.640   4.606  0.2042 -0.3034  0.2265
   88MOL   C23433468   5.478   5.698   4.713  0.0513 -0.9861 -0.2546
   88MOL   C23533469   5.347   5.624   4.686  0.5695 -0.5868 -0.1862
   88MOL   C23633470   5.322   5.276   4.494  0.5389  0.6605  0.1391
   88MOL   H23733471   5.183   5.413   4.591  0.7307 -2.6208 -0.8844
   88MOL   H23833472   5.385   5.433   4.726 -0.5174 -1.9384 -0.1665
   88MOL   H23933473   5.598   5.420   4.597  0.0024  0.5980  1.9686
   88MOL   H24033474   5.531   5.508   4.463 -0.2964  0.7039 -0.4438
   88MOL   H24133475   5.678   5.638   4.644  0.2272 -0.2330  0.1687
   88MOL   H24233476   5.574   5.694   4.512 -0.2773 -1.0362 -0.1884
   88MOL   H24333477   5.484   5.806   4.703  1.0449 -1.1293 -1.3101
   88MOL   H24433478   5.514   5.681   4.814  0.1354 -0.2840 -0.1643
   88MOL   H24533479   5.290   5.685   4.616 -3.2209  1.0682  4.1500
   88MOL   H24633480   5.271   5.616   4.763 -0.3447 -0.7627 -1.0894
   88MOL   H24733481   5.409   5.289   4.429 -0.0941 -0.8013 -1.0296
   88MOL   H24833482   5.245   5.236   4.429 -2.1529  0.6889  3.1939
   88MOL   C24933483   5.361   5.171   4.602 -0.7290  0.2839  0.5938
   88MOL   C25033484   5.440   5.044   4.555 -0.3331 -0.1965  0.0050
   88MOL   C25133485   5.585   5.074   4.523 -0.2492  0.2806 -0.0882
   88MOL   C25233486   5.622   4.993   4.400  0.2529 -0.3973  0.8404
   88MOL   C25333487   5.492   4.989   4.323 -0.4481 -0.4924 -0.5119
   88MOL   C25433488   5.388   4.965   4.432  0.3063  0.2919  0.1220
   88MOL   C25533489   5.233   5.129   4.683  0.2272 -0.1427 -0.7307
   88MOL   H25633490   5.419   5.214   4.683 -2.0850 -0.4698  1.9993
   88MOL   H25733491   5.432   4.964   4.630 -3.1611 -0.0090 -0.0192
   88MOL   H25833492   5.652   5.069   4.609 -2.4848  1.1864  1.7535
   88MOL   H25933493   5.587   5.180   4.499  1.0741  0.3245  0.1845
   88MOL   H26033494   5.646   4.892   4.435 -1.5093 -1.3820 -0.6564
   88MOL   H26133495   5.689   5.039   4.328 -1.8799 -2.2404 -2.4392
   88MOL   H26233496   5.485   4.913   4.246 -2.4430  0.2500 -1.0835
   88MOL   H26333497   5.480   5.086   4.275 -2.0928  0.5047  1.8309
   88MOL   H26433498   5.380   4.857   4.449 -4.1691  0.6479  0.7969
   88MOL   H26533499   5.291   5.009   4.410  0.2607 -0.5656 -1.4489
   88MOL   H26633500   5.164   5.213   4.686  0.4025 -0.0212 -0.0344
   88MOL   H26733501   5.180   5.051   4.628 -0.4568  2.0246 -3.2351
   88MOL   C26833502   5.269   5.086   4.834 -0.0579  0.7683  0.0144
   88MOL   C26933503   5.164   4.985   4.891  0.0173  0.2060 -0.1020
   88MOL   C27033504   5.160   4.851   4.819  0.0378 -0.3405  0.5072
   88MOL   C27133505   5.015   4.812   4.801 -0.1881 -0.6396  0.0992
   88MOL   C27233506   4.940   4.901   4.902  0.1331 -0.3225  0.7051
   88MOL   C27333507   5.024   5.034   4.905  0.3052  0.1392  0.2556
   88MOL   C27433508   5.292   5.199   4.934  0.0539 -0.5391  0.1981
   88MOL   H27533509   5.364   5.033   4.836 -1.5056 -1.9069  1.9511
   88MOL   H27633510   5.193   4.970   4.994 -1.4761  1.7593  0.5727
   88MOL   H27733511   5.227   4.855   4.733  0.6330 -2.2394  0.8379
   88MOL   H27833512   5.213   4.780   4.884 -1.8008  0.2066  2.6834
   88MOL   H27933513   4.985   4.832   4.698 -1.3267 -2.4856  0.0404
   88MOL   H28033514   5.002   4.705   4.813 -0.0612 -0.7938 -1.0059
   88MOL   H28133515   4.938   4.857   5.001  0.5028  0.6596  1.1529
   88MOL   H28233516   4.837   4.923   4.872  0.8255  1.0362 -0.7622
   88MOL   H28333517   5.010   5.091   4.997 -1.6549 -0.8709  0.6012
   88MOL   H28433518   4.980   5.090   4.822 -1.0952 -0.0796  0.8342
   88MOL   H28533519   5.200   5.253   4.956 -1.8947 -2.4442 -2.9584
   88MOL   H28633520   5.353   5.272   4.880  2.3192 -2.0133  0.6713
   88MOL   C28733521   5.370   5.175   5.066 -0.4351  0.1305 -0.2209
   88MOL   C28833522   5.518   5.227   5.060 -0.9637 -0.0058  0.4092
   88MOL   C28933523   5.599   5.189   4.936  0.8187  0.1788 -0.5829
   88MOL   C29033524   5.713   5.296   4.920  0.5165 -0.4098 -0.2426
   88MOL   C29133525   5.650   5.425   4.982 -0.0269 -0.1142 -0.9534
   88MOL   C29233526   5.534   5.380   5.079  0.4224  0.4702 -0.3447
   88MOL   C29333527   5.285   5.226   5.185  0.7592  0.5166 -0.0053
   88MOL   H29433528   5.376   5.067   5.079 -0.1222  0.5009  3.3659
   88MOL   H29533529   5.569   5.177   5.143 -2.1740 -0.9909  0.5867
   88MOL   H29633530   5.648   5.092   4.935 -0.1567 -0.3203 -1.7482
   88MOL   H29733531   5.539   5.168   4.847  1.5236  1.6461 -1.4283
   88MOL   H29833532   5.803   5.269   4.975  0.6019 -1.4962 -0.9112
   88MOL   H29933533   5.729   5.320   4.815 -0.0567 -0.7813 -0.4141
   88MOL   H30033534   5.604   5.487   4.905  0.5245  0.7853 -0.5622
   88MOL   H30133535   5.731   5.482   5.027 -0.2769 -1.7642  1.6532
   88MOL   H30233536   5.438   5.419   5.045 -0.1117 -1.1056 -0.7191
   88MOL   H30333537   5.565   5.394   5.182 -0.8081  1.0019 -0.0408
   88MOL   H30433538   5.181   5.195   5.178 -0.4170  3.4928  2.7833
   88MOL   H30533539   5.275   5.334   5.174  0.3589  0.4096 -0.7492
   88MOL   C30633540   5.333   5.206   5.334  0.3092  0.2057  0.1381
   88MOL   C30733541   5.273   5.318   5.420  0.4412  0.3337  0.6407
   88MOL   C30833542   5.113   5.330   5.421 -0.7044  0.3949  0.5709
   88MOL   C30933543   5.092   5.434   5.535  0.5618  0.6560  0.0031
   88MOL   C31033544   5.220   5.445   5.617 -0.1703  0.8461  0.1241
   88MOL   C31133545   5.313   5.343   5.561  0.4742 -0.5965 -0.0872
   88MOL   C31233546   5.293   5.062   5.387  0.1914 -0.2472  0.1541
   88MOL   H31333547   5.441   5.224   5.338  0.2653  0.4740  0.1220
   88MOL   H31433548   5.313   5.407   5.373  0.3349  1.0048  1.7970
   88MOL   H31533549   5.075   5.231   5.444  1.1519 -0.2324  1.0624
   88MOL   H31633550   5.068   5.372   5.331  2.1680  1.5685 -0.3918
   88MOL   H31733551   5.067   5.531   5.491 -3.1850 -0.0013  0.4975
   88MOL   H31833552   5.014   5.411   5.607 -0.0149  2.8765  0.1214
   88MOL   H31933553   5.205   5.436   5.725  0.0638  0.2967  0.1115
   88MOL   H32033554   5.265   5.543   5.601  0.7128  0.8048  2.1715
   88MOL   H32133555   5.418   5.372   5.571  0.0683  0.3686  1.6396
   88MOL   H32233556   5.297   5.258   5.628  0.3221 -0.4649  0.0409
   88MOL   H32333557   5.186   5.049   5.373 -0.5145  4.3384  0.5313
   88MOL   H32433558   5.306   5.059   5.496  0.5278 -0.9949  0.0997
   88MOL   C32533559   5.378   4.950   5.323 -0.0827 -0.4566 -0.2630
   88MOL   C32633560   5.285   4.847   5.257 -0.7269  0.0189  0.6163
   88MOL   C32733561   5.191   4.763   5.346  0.4044 -0.6234 -0.2790
   88MOL   C32833562   5.228   4.619   5.315 -0.2271 -0.1429 -0.7944
   88MOL   C32933563   5.289   4.622   5.171 -0.4040 -0.3444  0.0313
   88MOL   C33033564   5.360   4.751   5.163  0.6125 -0.0965  0.0390
   88MOL   C33133565   5.464   4.879   5.427 -0.1682 -0.4200 -0.3031
   88MOL   H33233566   5.442   5.003   5.254  1.6637 -2.5811 -0.3200
   88MOL   H33333567   5.230   4.914   5.190  2.7081  0.0408 -2.3380
   88MOL   H33433568   5.088   4.790   5.325  0.8339 -0.4325 -2.2717
   88MOL   H33533569   5.207   4.768   5.454  0.6779  0.7398 -0.3756
   88MOL   H33633570   5.145   4.549   5.314  0.7702 -1.3796  0.9229
   88MOL   H33733571   5.298   4.586   5.391 -0.3003 -0.7872 -1.0034
   88MOL   H33833572   5.211   4.628   5.095  0.1629 -0.1656 -0.5369
   88MOL   H33933573   5.368   4.552   5.146  2.1728  2.3760  0.3063
   88MOL   H34033574   5.359   4.800   5.065 -1.7957 -0.8634 -0.3534
   88MOL   H34133575   5.465   4.742   5.188  0.7803  0.7787 -0.3025
   88MOL   H34233576   5.504   4.789   5.381  1.3302 -1.3568  2.7107
   88MOL   H34333577   5.402   4.837   5.506  1.5918 -3.0347 -0.2603
   88MOL   C34433578   5.587   4.953   5.488  0.1581 -0.4774 -0.5321
   88MOL   C34533579   5.698   4.974   5.389 -0.1854  0.4058 -0.0812
   88MOL   C34633580   5.759   4.850   5.329 -0.2700  0.3797  0.3257
   88MOL   C34733581   5.895   4.905   5.267 -0.7938 -0.1312  0.4340
   88MOL   C34833582   5.916   5.048   5.308  0.0855 -1.1464  0.6770
   88MOL   C34933583   5.822   5.063   5.426 -0.6987 -0.4022  0.2408
   88MOL   C35033584   5.636   4.880   5.619 -0.3251  0.3400 -1.0014
   88MOL   H35133585   5.566   5.054   5.524  1.0220  0.2327 -1.9862
   88MOL   H35233586   5.645   5.030   5.312 -0.1801 -1.8152 -1.7364
   88MOL   H35333587   5.704   4.796   5.252  1.8125 -1.1754 -0.1229
   88MOL   H35433588   5.771   4.770   5.403  0.1099  1.2764  1.2540
   88MOL   H35533589   5.973   4.839   5.308 -0.9140 -2.1263 -2.3993
   88MOL   H35633590   5.898   4.901   5.158 -0.1506 -0.9246  0.4751
   88MOL   H35733591   5.888   5.118   5.229 -1.8785 -1.8128  0.7354
   88MOL   H35833592   6.020   5.072   5.329 -0.0017  0.9379 -1.1861
   88MOL   H35933593   5.871   5.025   5.516  2.0800 -0.7527 -1.3640
   88MOL   H36033594   5.800   5.169   5.441  2.3220  0.4831 -1.2504
   88MOL   H36133595   5.740   4.905   5.638 -0.6326  1.1072 -0.2715
   88MOL   H36233596   5.629   4.773   5.600 -1.4475  0.4693 -1.3918
   88MOL   C36333597   5.557   4.915   5.746  0.3938 -0.1356  0.4745
   88MOL   C36433598   5.545   4.805   5.852 -0.9622 -0.2010 -0.2146
   88MOL   C36533599   5.468   4.681   5.807 -0.0618 -0.3831  0.2971
   88MOL   C36633600   5.455   4.610   5.940  0.5350 -1.0500  0.2994
   88MOL   C36733601   5.452   4.715   6.051 -0.3172  0.1532  0.5171
   88MOL   C36833602   5.477   4.843   5.983  0.3132 -0.0207 -0.0321
   88MOL   C36933603   5.619   5.046   5.813  0.2108 -0.0290 -0.1708
   88MOL   H37033604   5.453   4.938   5.719  0.3786 -0.2471  0.4406
   88MOL   H37133605   5.650   4.779   5.866 -0.5807  1.7662  0.7467
   88MOL   H37233606   5.368   4.703   5.769  0.6849  1.8174 -0.4862
   88MOL   H37333607   5.534   4.629   5.737 -1.5767  1.6374 -2.7465
   88MOL   H37433608   5.358   4.559   5.940 -0.5761  0.9930 -1.6186
   88MOL   H37533609   5.535   4.540   5.963 -0.2591 -1.7706  0.9559
   88MOL   H37633610   5.362   4.710   6.112 -1.5247 -0.1820 -1.2549
   88MOL   H37733611   5.528   4.703   6.128  0.9321 -1.2097 -0.9081
   88MOL   H37833612   5.522   4.919   6.046 -0.1710  0.5515 -0.3741
   88MOL   H37933613   5.378   4.880   5.957  0.1598 -0.6933 -0.4308
   88MOL   H38033614   5.720   5.031   5.854 -0.0361  0.1911  0.5290
   88MOL   H38133615   5.550   5.084   5.888  0.1253 -1.4627  0.4753
   88MOL   H38233616   5.626   5.120   5.733  2.7652 -2.0458 -1.8822
   89MOL     C133617   7.661   6.471   1.682 -0.1853  0.6132  0.1795
   89MOL     C233618   7.547   6.577   1.669  0.2712 -0.2193 -0.0340
   89MOL     C333619   7.585   6.725   1.643 -0.4682  0.6139 -0.5102
   89MOL     C433620   7.449   6.798   1.674 -0.5083 -0.3152 -0.0231
   89MOL     C533621   7.377   6.716   1.783 -0.3936  0.2670 -0.3058
   89MOL     C633622   7.454   6.581   1.793  0.1587  0.4768 -0.3790
   89MOL     C733623   0.051   6.449   1.551 -0.2836  1.2973  0.4713
   89MOL     H833624   0.035   6.492   1.767  0.2659 -2.0631  0.5469
   89MOL     H933625   7.471   6.563   1.592 -1.2564  2.1307  1.0072
   89MOL    H1033626   7.653   6.763   1.719 -2.1925  0.0971  1.3399
   89MOL    H1133627   7.622   6.750   1.544 -0.2807 -2.0374 -1.1465
   89MOL    H1233628   7.458   6.904   1.699  1.2462 -0.1722 -1.1842
   89MOL    H1333629   7.403   6.801   1.575 -0.8384 -2.7679  0.0267
   89MOL    H1433630   7.389   6.773   1.875  2.6100 -1.2238  0.2924
   89MOL    H1533631   7.271   6.697   1.766 -0.2969 -1.1345  0.5709
   89MOL    H1633632   7.371   6.510   1.794  2.7060 -2.6505  3.9185
   89MOL    H1733633   7.513   6.580   1.884  1.3114 -0.6933 -1.1245
   89MOL    H1833634   7.665   6.417   1.480  3.2350 -1.4488 -2.1898
   89MOL    H1933635   0.097   6.540   1.510  2.5672  0.9996  2.7645
   89MOL    H2033636   7.601   6.384   1.709 -1.3000  0.9361 -1.1997
   89MOL    C2133637   0.165   6.338   1.559  0.1865 -0.6909 -0.1843
   89MOL    C2233638   0.190   6.268   1.430  0.3536  0.0068 -0.0841
   89MOL    C2333639   0.223   6.354   1.315  0.1325  0.5328  0.8440
   89MOL    C2433640   0.207   6.277   1.182  0.0049  0.3304  0.3170
   89MOL    C2533641   0.130   6.154   1.227 -0.0060  0.2453 -0.2047
   89MOL    C2633642   0.086   6.172   1.374  0.1084 -0.0623 -0.2535
   89MOL    C2733643   0.290   6.389   1.629 -0.9610 -0.0318  0.3688
   89MOL    H2833644   0.127   6.261   1.626 -0.8779 -2.1199 -2.3770
   89MOL    H2933645   0.267   6.191   1.442  0.6986  0.0314 -1.9148
   89MOL    H3033646   0.321   6.403   1.316 -0.1851  1.3362 -1.8033
   89MOL    H3133647   0.161   6.443   1.304  0.0962  0.0071 -4.3994
   89MOL    H3233648   0.162   6.348   1.112  0.6746 -0.7820 -1.2695
   89MOL    H3333649   0.308   6.256   1.149  0.3757  0.6173  1.2525
   89MOL    H3433650   0.194   6.066   1.216  0.7389  0.5176  1.6475
   89MOL    H3533651   0.036   6.140   1.173  0.2539 -0.7569 -0.4066
   89MOL    H3633652   0.078   6.078   1.428  0.7280 -0.8089 -1.4501
   89MOL    H3733653   7.674   6.209   1.362 -0.0740 -0.7944 -1.0297
   89MOL    H3833654   0.338   6.458   1.560 -0.6878 -1.5541 -0.9888
   89MOL    H3933655   0.257   6.460   1.705  2.8964  2.8737 -0.5477
   89MOL    C4033656   0.380   6.269   1.675  0.7523 -0.5331  0.0902
   89MOL    C4133657   0.511   6.337   1.714  0.1332  0.4784  0.9992
   89MOL    C4233658   0.619   6.226   1.742  0.7030 -0.7039 -0.4985
   89MOL    C4333659   0.646   6.239   1.891 -0.2558  0.4904 -0.3410
   89MOL    C4433660   0.620   6.391   1.923 -0.7155  0.3915 -0.4106
   89MOL    C4533661   0.510   6.442   1.828 -0.1503  0.0312 -0.8275
   89MOL    C4633662   0.314   6.185   1.789 -0.2202  0.0596 -0.0402
   89MOL    H4733663   0.409   6.201   1.595  2.1085 -0.0982  0.2027
   89MOL    H4833664   0.559   6.380   1.626  1.2696  0.6640  1.7016
   89MOL    H4933665   0.711   6.255   1.691  1.4203 -0.2213  1.0192
   89MOL    H5033666   0.601   6.122   1.714 -0.5317 -0.5343 -0.3369
   89MOL    H5133667   0.748   6.203   1.905  0.1897  0.2180 -3.8184
   89MOL    H5233668   0.579   6.186   1.958  0.3167  0.7733  0.4609
   89MOL    H5333669   0.601   6.414   2.027  2.5907 -1.8735  0.7899
   89MOL    H5433670   0.711   6.447   1.901 -0.5241 -0.0800 -0.8417
   89MOL    H5533671   0.414   6.448   1.880  0.1355  0.2685 -0.3134
   89MOL    H5633672   0.535   6.536   1.780 -0.4940  0.6353  0.1615
   89MOL    H5733673   0.392   6.158   1.860 -0.8177 -1.4861  0.0302
   89MOL    H5833674   0.245   6.248   1.846 -0.9378  1.3103 -2.2635
   89MOL    C5933675   0.252   6.043   1.738 -0.6859  0.0372  0.5373
   89MOL    C6033676   0.356   5.931   1.695  0.5634 -0.4024 -0.2905
   89MOL    C6133677   0.308   5.821   1.608  0.0473  0.6721  0.9612
   89MOL    C6233678   0.319   5.691   1.678  0.4151 -0.2381 -0.1172
   89MOL    C6333679   0.430   5.714   1.778 -0.6286  0.3732 -0.3688
   89MOL    C6433680   0.416   5.857   1.822  0.0886  1.3101 -0.0137
   89MOL    C6533681   0.160   5.993   1.854 -0.4389 -0.4186  0.1050
   89MOL    H6633682   0.190   6.073   1.653 -2.3140  1.5394  2.2253
   89MOL    H6733683   0.440   5.973   1.639 -1.1119  1.5215 -1.4272
   89MOL    H6833684   0.376   5.821   1.523  0.4490  0.8729  1.2828
   89MOL    H6933685   0.208   5.835   1.567  0.1355 -1.2304  0.0430
   89MOL    H7033686   0.334   5.609   1.608 -1.8136 -0.7504 -0.0613
   89MOL    H7133687   0.222   5.684   1.729  0.9245 -1.1038  0.7443
   89MOL    H7233688   0.521   5.717   1.718 -1.3977  3.3410 -1.4780
   89MOL    H7333689   0.427   5.647   1.864 -1.7845  0.4343 -0.3680
   89MOL    H7433690   0.364   5.864   1.917  1.6146 -0.9834  1.0518
   89MOL    H7533691   0.520   5.883   1.842  0.7392 -0.3647 -1.0748
   89MOL    H7633692   0.201   6.020   1.951 -1.8794 -2.3467  1.2723
   89MOL    H7733693   0.167   5.884   1.850  0.0256 -0.4329  1.2409
   89MOL    C7833694   0.015   6.044   1.855 -0.6838 -0.2514  0.0255
   89MOL    C7933695   7.617   6.022   1.724  0.1997  0.1262 -0.0017
   89MOL    C8033696   7.480   6.082   1.726 -0.0471 -0.4166 -0.8805
   89MOL    C8133697   7.398   6.008   1.622  0.1886 -0.0989 -0.8589
   89MOL    C8233698   7.463   5.869   1.602 -0.4752 -0.2110  0.0395
   89MOL    C8333699   7.589   5.878   1.688 -0.0154  0.0184 -0.1406
   89MOL    C8433700   7.636   5.998   1.986  0.5669 -0.1321  0.0892
   89MOL    H8533701   0.022   6.153   1.854  0.0029 -0.2787  1.0942
   89MOL    H8633702   7.671   6.065   1.639 -0.3338  1.7061  0.4455
   89MOL    H8733703   7.473   6.191   1.725  0.7537 -0.3110  1.5637
   89MOL    H8833704   7.421   6.059   1.815  1.8468  0.6927  0.7035
   89MOL    H8933705   7.405   6.079   1.540 -0.0368  0.3520 -0.4902
   89MOL    H9033706   7.292   6.010   1.647  0.0291  0.6338 -1.5783
   89MOL    H9133707   7.396   5.787   1.626  0.0636 -0.3230  1.2101
   89MOL    H9233708   7.487   5.854   1.497 -1.3976 -0.3681 -0.1479
   89MOL    H9333709   7.566   5.816   1.775  0.1693 -1.4133 -1.0856
   89MOL    H9433710   7.677   5.835   1.639  2.1751  0.7653  2.9844
   89MOL    H9533711   0.014   5.929   2.037 -0.3244 -1.8951 -1.0733
   89MOL    H9633712   7.544   5.947   1.957 -0.0157  1.8709 -1.6597
   89MOL    C9733713   7.593   6.116   2.079 -0.5265  0.1533  1.0248
   89MOL    C9833714   0.017   6.218   2.122  0.5730  0.2854  0.2848
   89MOL    C9933715   7.651   6.349   2.181 -0.2920  0.8119 -0.2348
   89MOL   C10033716   0.070   6.392   2.287 -0.6735 -0.3844 -1.0400
   89MOL   C10133717   0.130   6.264   2.339 -0.2482 -0.0711 -0.0393
   89MOL   C10233718   0.117   6.162   2.229 -0.3936  0.3219  0.0105
   89MOL   C10333719   7.507   6.055   2.192 -0.4298  0.2084 -0.0979
   89MOL   H10433720   7.529   6.169   2.009  2.2443  0.8470 -1.0870
   89MOL   H10533721   0.068   6.249   2.032 -1.3737  0.0651 -0.9366
   89MOL   H10633722   7.637   6.429   2.108  1.2258  2.9777  1.7500
   89MOL   H10733723   7.557   6.326   2.231 -0.2996  1.6129  0.1287
   89MOL   H10833724   0.032   6.445   2.374  1.6635 -1.7987  0.9048
   89MOL   H10933725   0.157   6.450   2.258 -0.8828  0.1696 -0.5906
   89MOL   H11033726   0.080   6.234   2.430 -0.1103 -0.8017 -0.1977
   89MOL   H11133727   0.233   6.286   2.367 -0.2856  0.0604 -0.0024
   89MOL   H11233728   0.206   6.135   2.172 -0.6315  3.0759 -1.7831
   89MOL   H11333729   0.072   6.077   2.280  1.5220 -0.8649 -0.2494
   89MOL   H11433730   7.536   5.953   2.217  0.5870 -0.4459 -3.6018
   89MOL   H11533731   7.529   6.104   2.287  0.9751 -0.0935 -0.2481
   89MOL   C11633732   7.357   6.075   2.157 -0.2898 -0.0794 -0.3577
   89MOL   C11733733   7.261   5.954   2.191 -0.0863  0.0792 -0.1194
   89MOL   C11833734   7.308   5.815   2.143  0.1460 -0.0047 -0.0391
   89MOL   C11933735   7.300   5.716   2.257 -0.6718 -0.7559 -0.0761
   89MOL   C12033736   7.214   5.786   2.361  0.3628  0.0956 -0.2405
   89MOL   C12133737   7.234   5.937   2.345 -0.2324  0.1312 -0.3978
   89MOL   C12233738   7.311   6.217   2.195  0.5245 -0.1741 -1.3206
   89MOL   H12333739   7.360   6.071   2.048 -0.4563  1.6969 -0.4411
   89MOL   H12433740   7.166   5.976   2.142  1.0868  3.7340 -0.9281
   89MOL   H12533741   7.252   5.780   2.056  0.4067 -1.5959  0.4232
   89MOL   H12633742   7.415   5.815   2.122  0.3980 -0.6505  1.2624
   89MOL   H12733743   7.399   5.684   2.289 -0.8031  1.0426  2.2452
   89MOL   H12833744   7.258   5.624   2.216  0.6596 -1.6682  0.5573
   89MOL   H12933745   7.235   5.746   2.459  2.0310 -2.2653 -1.5164
   89MOL   H13033746   7.112   5.757   2.333  1.3648 -0.7901 -3.2094
   89MOL   H13133747   7.151   6.001   2.377 -0.4261 -1.1600  1.7844
   89MOL   H13233748   7.321   5.967   2.402 -0.2310 -1.0750  0.2364
   89MOL   H13333749   7.370   6.288   2.137  0.0911  1.0089 -0.3410
   89MOL   H13433750   7.325   6.225   2.303 -0.1710  2.1805 -1.3815
   89MOL   C13533751   7.170   6.249   2.162 -0.4824  0.3691  0.1380
   89MOL   C13633752   7.148   6.236   2.010  0.0986 -0.1298 -0.3575
   89MOL   C13733753   7.225   6.333   1.922  0.5309  0.3083 -0.3857
   89MOL   C13833754   7.153   6.313   1.786 -0.1170 -0.0951 -0.0313
   89MOL   C13933755   7.010   6.272   1.814  1.6506  0.1865 -0.3861
   89MOL   C14033756   7.000   6.251   1.962 -0.3501 -0.0005 -0.5260
   89MOL   C14133757   7.151   6.399   2.216  0.1381  0.8858  0.3406
   89MOL   H14233758   7.096   6.187   2.211  0.3735  0.4703  1.5831
   89MOL   H14333759   7.170   6.136   1.973  1.4194  0.6717 -1.7733
   89MOL   H14433760   7.236   6.440   1.941  0.1835  0.2558  0.1343
   89MOL   H14533761   7.325   6.294   1.902 -0.7415 -2.3994 -1.7187
   89MOL   H14633762   7.199   6.234   1.727 -0.8560  0.2800 -1.1137
   89MOL   H14733763   7.146   6.405   1.728  0.9079  0.8152  1.2190
   89MOL   H14833764   6.987   6.180   1.759  0.2132  1.3083 -1.7289
   89MOL   H14933765   6.938   6.346   1.780 -0.2881 -1.8053 -0.7714
   89MOL   H15033766   6.944   6.333   2.008  1.7028  0.6000  0.9666
   89MOL   H15133767   6.956   6.153   1.980  0.6936 -0.1627  1.2558
   89MOL   H15233768   7.057   6.444   2.184  0.2252 -0.1280 -1.3717
   89MOL   H15333769   7.221   6.468   2.170 -0.0927  0.3395 -0.8451
   89MOL   C15433770   7.151   6.410   2.374  0.3773 -0.1708  0.9300
   89MOL   C15533771   7.257   6.508   2.430  0.4023  0.0324  0.1311
   89MOL   C15633772   7.324   6.477   2.564 -0.4182 -0.0614  0.0445
   89MOL   C15733773   7.334   6.609   2.640 -0.0752 -0.4749  0.0863
   89MOL   C15833774   7.316   6.724   2.543  0.1886  0.2813 -0.1157
   89MOL   C15933775   7.212   6.657   2.445  0.0241  0.1020  0.0354
   89MOL   C16033776   7.005   6.427   2.420 -0.0934 -0.0847 -0.7172
   89MOL   H16133777   7.176   6.309   2.405  0.0157 -0.1747  1.2237
   89MOL   H16233778   7.340   6.508   2.359  0.7831  2.1304  0.5447
   89MOL   H16333779   7.259   6.416   2.627 -0.8486  0.3636  0.0155
   89MOL   H16433780   7.428   6.443   2.563  0.3363  2.1738  1.0884
   89MOL   H16533781   7.276   6.606   2.732  1.1344  0.2450  0.8843
   89MOL   H16633782   7.431   6.639   2.680 -0.4128  2.0832 -0.9184
   89MOL   H16733783   7.412   6.752   2.500 -0.1124 -0.3140 -1.1822
   89MOL   H16833784   7.275   6.812   2.592  2.1325  1.0088  0.2304
   89MOL   H16933785   7.214   6.705   2.347  0.7977 -1.5205 -0.7598
   89MOL   H17033786   7.115   6.654   2.495  0.2736  0.0648  0.5141
   89MOL   H17133787   6.941   6.361   2.361  0.5027 -0.7365 -0.6428
   89MOL   H17233788   6.971   6.527   2.392 -0.7068 -0.4466 -1.2736
   89MOL   C17333789   6.977   6.398   2.567 -0.2324 -0.2492  0.3793
   89MOL   C17433790   7.017   6.257   2.616 -0.5908  0.2127  0.6720
   89MOL   C17533791   6.936   6.140   2.564 -0.4485 -0.5674  0.3668
   89MOL   C17633792   6.939   6.037   2.675  0.1904 -0.5735  0.0198
   89MOL   C17733793   7.025   6.093   2.788 -0.1177 -0.4144  0.1395
   89MOL   C17833794   7.021   6.248   2.766 -0.2948  0.5215 -0.3701
   89MOL   C17933795   6.826   6.439   2.589  0.0898 -0.7632  0.2912
   89MOL   H18033796   7.037   6.471   2.622  0.0229  0.0416 -0.2867
   89MOL   H18133797   7.118   6.234   2.580 -0.8663  1.6032 -1.1043
   89MOL   H18233798   6.986   6.105   2.473 -0.5513 -0.3255  0.2173
   89MOL   H18333799   6.831   6.160   2.541  0.5790  2.5971 -1.8781
   89MOL   H18433800   6.842   6.002   2.711 -0.6084 -0.1428 -1.7038
   89MOL   H18533801   6.984   5.947   2.633  1.2696  0.4145 -0.9700
   89MOL   H18633802   7.123   6.046   2.791 -0.7687 -1.7945  0.1667
   89MOL   H18733803   6.973   6.074   2.882  1.6645 -0.5173  1.1363
   89MOL   H18833804   6.928   6.288   2.806  0.1902  0.9507  0.3585
   89MOL   H18933805   7.102   6.312   2.801  0.8445 -0.0628 -1.8666
   89MOL   H19033806   6.781   6.382   2.508  0.2812 -0.6552  0.1060
   89MOL   H19133807   6.782   6.403   2.682  3.0535 -1.4058  1.4834
   89MOL   C19233808   6.788   6.589   2.579 -0.3416  0.5363 -0.1823
   89MOL   C19333809   6.778   6.656   2.722 -0.2589 -0.4237 -0.4184
   89MOL   C19433810   6.767   6.814   2.721 -0.4445  0.3059 -0.6770
   89MOL   C19533811   6.804   6.846   2.867  0.1038  0.6094 -0.2902
   89MOL   C19633812   6.880   6.730   2.931 -0.4703  0.7116  0.0368
   89MOL   C19733813   6.904   6.635   2.809 -0.0317 -0.6307 -0.7533
   89MOL   C19833814   6.659   6.590   2.494 -0.2147 -0.1662 -0.1419
   89MOL   H19933815   6.868   6.643   2.529 -0.4197  0.2026 -0.6697
   89MOL   H20033816   6.702   6.612   2.786 -0.8619  1.5742  0.2610
   89MOL   H20133817   6.669   6.851   2.691 -1.2480  0.7856  2.4219
   89MOL   H20233818   6.838   6.866   2.656  0.2213  3.4013  2.3882
   89MOL   H20333819   6.864   6.937   2.865  1.7031 -0.3680  1.2639
   89MOL   H20433820   6.714   6.863   2.926  1.2083  0.0579  1.6020
   89MOL   H20533821   6.820   6.688   3.012 -0.2231  0.7395  0.2324
   89MOL   H20633822   6.967   6.779   2.974 -1.0269  0.7367  1.1493
   89MOL   H20733823   6.904   6.534   2.850 -1.0257 -0.8836 -1.3820
   89MOL   H20833824   6.998   6.661   2.759  0.2507  2.0880  1.1157
   89MOL   H20933825   6.599   6.500   2.508  1.2327 -1.2655 -0.9191
   89MOL   H21033826   6.603   6.675   2.533 -0.6763 -0.3245 -0.4522
   89MOL   C21133827   6.681   6.598   2.336  0.5766  0.3337  0.7023
   89MOL   C21233828   6.555   6.555   2.248 -0.0074  0.9198 -0.0479
   89MOL   C21333829   6.532   6.407   2.253 -0.1785 -0.5500  0.4317
   89MOL   C21433830   6.390   6.395   2.208 -0.0277 -0.2806  0.3185
   89MOL   C21533831   6.314   6.513   2.262  0.2329 -0.3930  0.1764
   89MOL   C21633832   6.420   6.627   2.270  0.4772  0.1993 -0.3182
   89MOL   C21733833   6.703   6.755   2.302 -0.0076 -0.0326 -0.0406
   89MOL   H21833834   6.768   6.534   2.321  0.6684 -0.4601  4.1705
   89MOL   H21933835   6.583   6.575   2.145  0.9762 -1.2559 -0.2321
   89MOL   H22033836   6.600   6.351   2.188  1.2636  1.7212 -0.0620
   89MOL   H22133837   6.550   6.377   2.356  0.3061  0.2177  0.5704
   89MOL   H22233838   6.385   6.395   2.099  2.1531  1.9369  0.1871
   89MOL   H22333839   6.357   6.292   2.227  0.3941 -0.3572  0.6342
   89MOL   H22433840   6.296   6.485   2.365 -0.9079 -0.3830 -0.0152
   89MOL   H22533841   6.230   6.546   2.201  1.4470 -0.0024 -1.3378
   89MOL   H22633842   6.410   6.712   2.203 -0.3971  1.0267  0.8551
   89MOL   H22733843   6.416   6.669   2.370  1.8532  0.1221 -0.2163
   89MOL   H22833844   6.789   6.796   2.355 -0.2556  0.5731 -0.0913
   89MOL   H22933845   6.613   6.799   2.346 -0.5624 -0.1109 -1.0797
   89MOL   C23033846   6.708   6.803   2.155 -0.3204 -0.2186 -0.9550
   89MOL   C23133847   6.809   6.720   2.081  0.2316  0.2028  0.5959
   89MOL   C23233848   6.802   6.729   1.927  0.2737 -0.3506 -0.3917
   89MOL   C23333849   6.941   6.686   1.881 -0.2289 -0.2908 -0.6719
   89MOL   C23433850   7.028   6.664   2.008 -0.0189 -0.6573  0.4609
   89MOL   C23533851   6.956   6.743   2.114  0.2685  0.1310  0.2391
   89MOL   C23633852   6.735   6.957   2.150 -0.1453  0.5704  0.5599
   89MOL   H23733853   6.609   6.789   2.111 -0.7677  0.9195 -0.3084
   89MOL   H23833854   6.792   6.616   2.108 -0.9006  0.4473  0.8426
   89MOL   H23933855   6.719   6.672   1.885  0.1852 -1.3782  1.1113
   89MOL   H24033856   6.794   6.835   1.906 -0.3486 -0.4749 -0.7804
   89MOL   H24133857   6.935   6.601   1.814 -1.0521 -1.2339  0.5783
   89MOL   H24233858   6.984   6.759   1.812 -2.3348  1.1651 -0.5075
   89MOL   H24333859   7.132   6.697   2.001  0.5757 -2.6464 -0.3637
   89MOL   H24433860   7.037   6.557   2.025 -0.0420 -1.0091 -1.5876
   89MOL   H24533861   6.976   6.846   2.082  0.1161  0.2197  0.4234
   89MOL   H24633862   6.983   6.707   2.213  1.9362 -0.9485 -0.5890
   89MOL   H24733863   6.767   6.996   2.053  3.2645  0.2681  1.4973
   89MOL   H24833864   6.814   6.973   2.224 -1.8982  0.5867  2.4539
   89MOL   C24933865   6.608   7.035   2.186  0.2594  0.7661  0.2288
   89MOL   C25033866   6.564   7.142   2.090 -0.3969 -0.1915 -0.1136
   89MOL   C25133867   6.512   7.101   1.956 -0.7700 -0.1350  0.7843
   89MOL   C25233868   6.517   7.223   1.865  0.4385  0.6454 -0.1120
   89MOL   C25333869   6.595   7.332   1.945  0.4202 -0.0646 -0.2188
   89MOL   C25433870   6.661   7.259   2.061 -0.3538  0.4119 -0.7623
   89MOL   C25533871   6.613   7.089   2.331 -0.0498 -0.1653 -0.1542
   89MOL   H25633872   6.525   6.967   2.169  1.2048 -0.0823 -1.1274
   89MOL   H25733873   6.482   7.193   2.142 -1.4518 -1.6645 -0.2945
   89MOL   H25833874   6.414   7.055   1.970 -0.8017  0.1064  1.3753
   89MOL   H25933875   6.566   7.017   1.913  0.0082 -0.4552  2.3742
   89MOL   H26033876   6.420   7.253   1.826  0.0307 -3.0873 -2.1156
   89MOL   H26133877   6.570   7.206   1.772  0.5162 -0.2990  0.1043
   89MOL   H26233878   6.534   7.410   1.989  0.8242  0.4393 -0.5525
   89MOL   H26333879   6.666   7.387   1.884  0.4615 -2.2179 -2.1753
   89MOL   H26433880   6.682   7.321   2.148  3.0564 -0.8834 -0.5892
   89MOL   H26533881   6.756   7.207   2.049 -1.1142 -0.5164 -3.1071
   89MOL   H26633882   6.678   7.023   2.388  1.1258  1.5692  0.5576
   89MOL   H26733883   6.669   7.182   2.337 -0.1925 -0.1440  0.8692
   89MOL   C26833884   6.483   7.108   2.412 -0.7617  0.4252 -0.3460
   89MOL   C26933885   6.503   7.204   2.538 -0.5177 -0.2539  0.1950
   89MOL   C27033886   6.499   7.354   2.515 -0.0303  0.0518 -0.4203
   89MOL   C27133887   6.558   7.422   2.641 -0.1152  0.3746  0.1787
   89MOL   C27233888   6.622   7.310   2.724 -0.1566 -0.3840  0.0266
   89MOL   C27333889   6.622   7.186   2.635 -0.3839  0.3436 -0.1831
   89MOL   C27433890   6.435   6.974   2.471  0.3516 -0.8768 -0.1067
   89MOL   H27533891   6.401   7.148   2.353 -0.5864 -1.6961 -2.1072
   89MOL   H27633892   6.425   7.181   2.611  0.7016 -0.7633  1.3352
   89MOL   H27733893   6.562   7.376   2.429  0.1477  0.3737 -0.2081
   89MOL   H27833894   6.397   7.392   2.502  0.2478  0.7382 -0.6338
   89MOL   H27933895   6.633   7.500   2.630 -0.7932  0.9691 -0.2577
   89MOL   H28033896   6.470   7.468   2.685  1.6008  1.1048  3.0027
   89MOL   H28133897   6.551   7.298   2.805  0.0916  1.1341  0.4896
   89MOL   H28233898   6.720   7.333   2.766 -0.0786 -0.0744 -0.3182
   89MOL   H28333899   6.604   7.106   2.705 -1.9710  0.2170 -0.7180
   89MOL   H28433900   6.717   7.172   2.583 -1.4989  0.9747 -2.4892
   89MOL   H28533901   6.513   6.953   2.545 -1.3752 -0.8410  1.7791
   89MOL   H28633902   6.446   6.900   2.392 -1.5983 -0.2893 -0.9517
   89MOL   C28733903   6.290   6.960   2.527  0.5595  0.1304 -1.0000
   89MOL   C28833904   6.196   6.910   2.416  0.5444  0.8891  0.8688
   89MOL   C28933905   6.050   6.885   2.455 -0.6155 -0.1652 -1.0488
   89MOL   C29033906   5.976   6.868   2.322  0.7517  1.2749 -0.4836
   89MOL   C29133907   6.056   6.941   2.219  0.1162  0.1135  0.2337
   89MOL   C29233908   6.178   6.992   2.289 -0.4046  0.1190  0.0399
   89MOL   C29333909   6.284   6.857   2.648  0.6172 -0.5170  0.1011
   89MOL   H29433910   6.253   7.057   2.562  1.4116  0.1416 -0.1057
   89MOL   H29533911   6.241   6.818   2.381  1.5161  0.4304  3.1993
   89MOL   H29633912   6.047   6.794   2.515 -0.3140  0.3437 -0.2425
   89MOL   H29733913   6.017   6.976   2.506 -0.1105 -2.3284  3.4262
   89MOL   H29833914   5.993   6.763   2.298  1.8145  1.2829  0.2321
   89MOL   H29933915   5.869   6.890   2.325  0.2782 -0.8046 -1.3178
   89MOL   H30033916   5.998   7.027   2.187 -0.3398 -0.6210 -0.9460
   89MOL   H30133917   6.072   6.883   2.127  0.3779  1.1832 -0.4012
   89MOL   H30233918   6.156   7.093   2.324  0.2894 -0.1692  1.3230
   89MOL   H30333919   6.263   6.988   2.221  0.0814  2.4043  0.4513
   89MOL   H30433920   6.388   6.845   2.679  0.6602  1.3990  0.7579
   89MOL   H30533921   6.265   6.758   2.606  0.7679 -0.6022  0.2353
   89MOL   C30633922   6.192   6.893   2.769 -0.2187 -0.2065 -0.5375
   89MOL   C30733923   6.170   6.767   2.864 -0.3755 -0.5362 -0.7335
   89MOL   C30833924   6.110   6.644   2.795 -0.0483 -0.0845 -0.0970
   89MOL   C30933925   6.168   6.526   2.885  0.1887  0.6764  0.2676
   89MOL   C31033926   6.250   6.586   2.994  0.0922 -0.2874  0.2152
   89MOL   C31133927   6.299   6.716   2.927  0.0019  0.0202 -0.2341
   89MOL   C31233928   6.240   7.017   2.838  0.3309  0.3041 -0.3728
   89MOL   H31333929   6.093   6.926   2.737  0.2237  1.1912 -0.4996
   89MOL   H31433930   6.102   6.800   2.942  0.5928 -0.0306 -0.0967
   89MOL   H31533931   6.158   6.622   2.700 -0.6209 -0.6827 -0.2530
   89MOL   H31633932   6.003   6.647   2.775  0.3243 -1.4673 -2.5317
   89MOL   H31733933   6.084   6.470   2.927  1.3514 -1.2801  0.0169
   89MOL   H31833934   6.232   6.455   2.833 -0.1616  0.9538 -0.5464
   89MOL   H31933935   6.333   6.523   3.028  1.9590  1.5633 -0.8166
   89MOL   H32033936   6.189   6.615   3.080  1.2473  0.7584  0.6980
   89MOL   H32133937   6.334   6.778   3.009  1.3245 -0.2519 -0.5886
   89MOL   H32233938   6.383   6.686   2.864  0.5896  0.8916  0.1326
   89MOL   H32333939   6.310   7.072   2.775  1.5070  0.2299  0.8567
   89MOL   H32433940   6.308   6.986   2.917 -0.0647 -1.9532 -0.8831
   89MOL   C32533941   6.130   7.109   2.912  0.1160  0.5292  0.1441
   89MOL   C32633942   6.041   7.182   2.805  0.7983 -0.4991 -0.2446
   89MOL   C32733943   6.122   7.281   2.716  0.8855 -0.4631 -0.4487
   89MOL   C32833944   6.018   7.387   2.682  0.1088 -0.5602 -0.3141
   89MOL   C32933945   5.894   7.373   2.766  0.3851 -0.0319 -0.0284
   89MOL   C33033946   5.923   7.262   2.864  0.0671  0.2337 -0.0056
   89MOL   C33133947   6.201   7.206   3.013  0.4197  0.0445  0.3845
   89MOL   H33233948   6.068   7.036   2.965 -2.1755  2.1416 -0.2480
   89MOL   H33333949   5.999   7.112   2.733  0.4810  0.1609 -0.7112
   89MOL   H33433950   6.157   7.237   2.623  1.4087 -1.1593  0.0710
   89MOL   H33533951   6.198   7.325   2.781  0.0008 -1.1835  1.1060
   89MOL   H33633952   5.995   7.390   2.575 -0.8017 -0.1041 -0.1197
   89MOL   H33733953   6.051   7.490   2.691 -0.7597 -0.4965  2.6438
   89MOL   H33833954   5.806   7.341   2.711  0.2447  0.7653 -0.2809
   89MOL   H33933955   5.870   7.465   2.819  1.3885  0.7063 -0.8101
   89MOL   H34033956   5.832   7.204   2.881 -0.7584  0.8544 -2.1260
   89MOL   H34133957   5.954   7.306   2.959  0.5792 -0.9644  0.3907
   89MOL   H34233958   6.140   7.291   3.041 -1.2065 -1.5988  1.9335
   89MOL   H34333959   6.291   7.235   2.958 -0.9442  3.8773  0.0365
   89MOL   C34433960   6.242   7.144   3.150 -0.1492 -0.0022  0.4208
   89MOL   C34533961   6.126   7.150   3.253  0.0832 -0.2087  0.0916
   89MOL   C34633962   6.162   7.107   3.401  0.2858 -0.0360  0.1552
   89MOL   C34733963   6.045   7.015   3.441  0.1695  0.4729 -0.0263
   89MOL   C34833964   5.935   7.050   3.343  0.7113  0.1470  0.5137
   89MOL   C34933965   6.009   7.068   3.207  0.8845 -0.2406 -0.4693
   89MOL   C35033966   6.368   7.226   3.199 -0.0568 -0.8216  0.2659
   89MOL   H35133967   6.266   7.038   3.142 -0.5762 -0.2008  1.7703
   89MOL   H35233968   6.105   7.257   3.259  2.1378  0.1974  0.7258
   89MOL   H35333969   6.159   7.194   3.466 -1.9449  1.1225 -1.4017
   89MOL   H35433970   6.248   7.047   3.429  0.1827  0.9868  2.7306
   89MOL   H35533971   6.083   6.913   3.432  1.4439  1.0124 -0.8943
   89MOL   H35633972   6.006   7.039   3.540 -1.9328 -2.0362 -0.2092
   89MOL   H35733973   5.895   7.147   3.372 -1.4214 -0.3581 -0.6510
   89MOL   H35833974   5.855   6.978   3.332  0.4900  0.6017 -0.9207
   89MOL   H35933975   6.030   6.967   3.172  0.6834  0.0337 -1.3790
   89MOL   H36033976   5.954   7.119   3.128  0.5984  1.5878  0.8684
   89MOL   H36133977   6.374   7.243   3.306  1.0926  1.6857 -0.1713
   89MOL   H36233978   6.359   7.329   3.164  1.8291  0.1408  2.4855
   89MOL   C36333979   6.508   7.177   3.140  0.5071 -0.5577 -0.0993
   89MOL   C36433980   6.618   7.291   3.175 -0.3100  0.0272  0.1723
   89MOL   C36533981   6.760   7.272   3.111  0.1660  0.1461 -0.0360
   89MOL   C36633982   6.866   7.332   3.207  0.5984 -0.1871 -0.2723
   89MOL   C36733983   6.796   7.347   3.346  0.3646  0.1714 -0.0867
   89MOL   C36833984   6.652   7.295   3.327  0.3360 -0.3125 -0.1383
   89MOL   C36933985   6.543   7.031   3.188 -0.1154  0.0344 -0.1488
   89MOL   H37033986   6.491   7.180   3.033  3.3593 -0.3255 -0.5888
   89MOL   H37133987   6.601   7.394   3.142  0.5202  0.4509  1.0065
   89MOL   H37233988   6.786   7.167   3.099  0.9741 -0.3144  4.8050
   89MOL   H37333989   6.768   7.321   3.014  1.8652 -1.9857 -1.0133
   89MOL   H37433990   6.953   7.268   3.221  1.6019  1.0011 -0.9915
   89MOL   H37533991   6.902   7.430   3.176  0.4414  0.0888  0.4046
   89MOL   H37633992   6.852   7.294   3.423  1.5551  0.3240 -0.8406
   89MOL   H37733993   6.795   7.451   3.377 -0.1785 -0.1350  0.9461
   89MOL   H37833994   6.589   7.377   3.363 -1.1499 -0.7363 -1.7034
   89MOL   H37933995   6.622   7.216   3.395  0.1598  0.5795  0.8368
   89MOL   H38033996   6.468   6.961   3.152  0.3614  0.3817 -1.8528
   89MOL   H38133997   6.551   7.018   3.296  0.7946  1.7645  0.0117
   89MOL   H38233998   6.635   6.994   3.142 -1.2369 -1.5416 -1.1586
   90MOL     C133999   1.906   2.067   4.443  0.5108 -1.1360 -0.0073
   90MOL     C234000   1.924   2.166   4.330  1.0368  0.0470 -0.3130
   90MOL     C334001   2.022   2.286   4.356 -0.0781  0.0143  0.2028
   90MOL     C434002   1.959   2.402   4.287 -0.5918  0.1155  0.4233
   90MOL     C534003   1.849   2.352   4.196  0.2257  0.6677  0.3564
   90MOL     C634004   1.797   2.233   4.272 -0.3751  0.1119 -0.3179
   90MOL     C734005   2.030   1.989   4.480 -0.2141 -0.3534  0.0939
   90MOL     H834006   1.885   2.127   4.531 -0.0857  0.3813 -1.1597
   90MOL     H934007   1.955   2.109   4.242 -1.6061  0.2178 -1.4087
   90MOL    H1034008   2.019   2.301   4.464 -1.2620 -1.5303  0.4107
   90MOL    H1134009   2.119   2.262   4.313  0.1243  2.3335 -0.7310
   90MOL    H1234010   1.922   2.468   4.364  0.4492  0.0376  1.0028
   90MOL    H1334011   2.030   2.464   4.232  0.9203 -1.9982 -0.0982
   90MOL    H1434012   1.771   2.423   4.171  0.7386 -0.0155 -3.5488
   90MOL    H1534013   1.881   2.321   4.096 -0.8485  0.0813  0.1916
   90MOL    H1634014   1.747   2.157   4.212  1.7677 -0.7896 -1.0010
   90MOL    H1734015   1.723   2.251   4.350  1.9167  1.7471  1.5395
   90MOL    H1834016   2.052   1.924   4.395 -0.3987  1.6895 -1.5853
   90MOL    H1934017   2.112   2.057   4.504 -0.3385 -1.4747  3.8639
   90MOL    H2034018   1.821   2.004   4.416  0.2844 -0.9689  0.3126
   90MOL    C2134019   2.005   1.903   4.603 -0.2491  0.0616 -0.3509
   90MOL    C2234020   1.986   1.988   4.736  0.8475  0.6469  0.2137
   90MOL    C2334021   2.105   2.071   4.782 -0.5653  0.9188 -0.6688
   90MOL    C2434022   2.111   2.071   4.934 -0.2830  0.1352 -0.8840
   90MOL    C2534023   1.983   2.000   4.980 -0.2472 -0.1475  0.3541
   90MOL    C2634024   1.952   1.908   4.866 -0.0589 -0.3619  0.2901
   90MOL    C2734025   1.905   1.782   4.578  0.3230  0.4948 -0.0007
   90MOL    H2834026   2.105   1.865   4.626 -0.2937  0.0520 -0.1754
   90MOL    H2934027   1.896   2.048   4.721  0.1581 -0.2083  0.8827
   90MOL    H3034028   2.110   2.172   4.743  0.1145  0.1845 -2.5473
   90MOL    H3134029   2.198   2.020   4.752 -0.3543  1.2529 -0.5792
   90MOL    H3234030   2.198   2.030   4.984  1.5386  0.7128 -3.4863
   90MOL    H3334031   2.110   2.176   4.965 -1.5456 -0.8913  2.7553
   90MOL    H3434032   1.912   2.080   4.998 -1.2483 -1.0704  0.5590
   90MOL    H3534033   1.992   1.944   5.073 -1.2721  3.6385  2.8254
   90MOL    H3634034   1.851   1.867   4.873  0.0876 -1.1036 -1.5742
   90MOL    H3734035   2.008   1.815   4.862  1.1542  0.3693 -0.1268
   90MOL    H3834036   1.874   1.739   4.674 -0.1456 -0.1125 -0.4217
   90MOL    H3934037   1.815   1.831   4.543 -1.0863 -1.4418  0.7866
   90MOL    C4034038   1.956   1.674   4.472  0.2185 -0.4726  0.5237
   90MOL    C4134039   2.063   1.570   4.531  0.5168  0.0201  0.3062
   90MOL    C4234040   2.123   1.465   4.431  0.1917 -0.1883 -0.2869
   90MOL    C4334041   2.179   1.349   4.519 -0.9034  1.2033  0.1935
   90MOL    C4434042   2.121   1.377   4.659  0.6726  0.6392 -0.0736
   90MOL    C4534043   2.015   1.483   4.650  0.1760  0.0893  0.0877
   90MOL    C4634044   1.827   1.595   4.415 -0.7667 -0.5481 -0.2997
   90MOL    H4734045   2.002   1.726   4.388 -0.7608  0.2079  0.3960
   90MOL    H4834046   2.149   1.626   4.568  1.6112 -2.0945  1.0607
   90MOL    H4934047   2.207   1.512   4.381  0.5325  0.0255  0.4815
   90MOL    H5034048   2.049   1.415   4.369 -2.1869  1.7378  0.8912
   90MOL    H5134049   2.287   1.349   4.530 -0.9778  0.2252  1.0699
   90MOL    H5234050   2.177   1.250   4.473 -1.3979  1.1365  0.3452
   90MOL    H5334051   2.091   1.298   4.727  0.5989 -0.3576 -1.2526
   90MOL    H5434052   2.193   1.434   4.717  0.8376 -0.6621  0.9954
   90MOL    H5534053   1.921   1.431   4.634  0.7284 -0.7554 -0.4465
   90MOL    H5634054   2.020   1.545   4.740  1.1844 -1.3202  1.0181
   90MOL    H5734055   1.850   1.500   4.367  1.0065  0.0249 -0.6120
   90MOL    H5834056   1.773   1.561   4.504 -1.2165 -1.9011 -1.0781
   90MOL    C5934057   1.735   1.680   4.321  0.6281  0.5595  0.9579
   90MOL    C6034058   1.764   1.642   4.169  0.2857  0.1548  0.0068
   90MOL    C6134059   1.903   1.660   4.125 -0.0572 -0.1022  0.8247
   90MOL    C6234060   1.894   1.643   3.971 -0.1696 -0.0029  0.2612
   90MOL    C6334061   1.767   1.721   3.936 -0.2513 -0.2218  0.1619
   90MOL    C6434062   1.681   1.715   4.067  0.9893  0.0930 -0.1898
   90MOL    C6534063   1.584   1.644   4.351 -0.2478 -0.4042 -0.2106
   90MOL    H6634064   1.750   1.785   4.344 -1.2819  1.7520 -2.7839
   90MOL    H6734065   1.734   1.539   4.151  0.9300  0.0281 -0.3370
   90MOL    H6834066   1.968   1.584   4.169  0.3677  0.8369  1.8236
   90MOL    H6934067   1.931   1.761   4.154  3.9977 -0.1429 -2.5445
   90MOL    H7034068   1.886   1.537   3.948  0.0720  0.2786 -1.1708
   90MOL    H7134069   1.981   1.678   3.915  1.6790 -0.9506  2.4627
   90MOL    H7234070   1.724   1.669   3.851  0.0237 -0.2662  0.0486
   90MOL    H7334071   1.798   1.823   3.912  0.5803 -0.3000  0.8894
   90MOL    H7434072   1.674   1.817   4.103  0.3316  0.1358 -0.4219
   90MOL    H7534073   1.577   1.683   4.057  0.8621  0.1893  0.8308
   90MOL    H7634074   1.579   1.536   4.367  1.7902 -0.4831  0.0569
   90MOL    H7734075   1.518   1.674   4.269 -0.8930 -0.0014  0.4577
   90MOL    C7834076   1.521   1.723   4.471 -0.4061 -0.0498 -0.3196
   90MOL    C7934077   1.521   1.879   4.470 -0.0764  0.4795 -0.5599
   90MOL    C8034078   1.522   1.957   4.602  0.3095 -0.4633 -0.2977
   90MOL    C8134079   1.445   2.084   4.572 -0.2898 -0.2521  0.3611
   90MOL    C8234080   1.441   2.087   4.418  0.1628  0.8193 -0.2106
   90MOL    C8334081   1.424   1.945   4.379 -0.1263  0.6332 -0.7608
   90MOL    C8434082   1.374   1.680   4.492  0.3541  0.0838 -0.8756
   90MOL    H8534083   1.568   1.689   4.564  1.4793 -0.0971 -1.2713
   90MOL    H8634084   1.616   1.908   4.425 -0.6836  0.9600 -1.5310
   90MOL    H8734085   1.620   1.971   4.647 -0.1369 -0.7203  0.7575
   90MOL    H8834086   1.473   1.905   4.685 -0.6421 -1.2655 -1.3465
   90MOL    H8934087   1.503   2.167   4.614  1.3698 -2.2709  2.1487
   90MOL    H9034088   1.344   2.071   4.609 -0.2277  0.5683  0.8200
   90MOL    H9134089   1.364   2.147   4.369  1.1930  1.6004 -0.8926
   90MOL    H9234090   1.534   2.121   4.374  0.0492  1.0119 -0.3052
   90MOL    H9334091   1.324   1.915   4.408  0.1045  0.9990  0.4557
   90MOL    H9434092   1.452   1.928   4.275  1.5252 -0.2812 -0.1847
   90MOL    H9534093   1.318   1.695   4.399 -2.3420  0.0087  0.7010
   90MOL    H9634094   1.325   1.742   4.567 -1.3033 -0.8955 -1.1279
   90MOL    C9734095   1.352   1.529   4.539  0.1072  0.1393 -0.5213
   90MOL    C9834096   1.199   1.479   4.508  0.1529 -0.2868 -0.7602
   90MOL    C9934097   1.177   1.460   4.362 -0.0253  0.0108 -0.2374
   90MOL   C10034098   1.051   1.382   4.332  0.3063  0.2905  0.2349
   90MOL   C10134099   1.021   1.316   4.464  0.1720 -0.2579 -0.0719
   90MOL   C10234100   1.145   1.337   4.553 -0.7684  0.3495  0.0259
   90MOL   C10334101   1.394   1.505   4.696 -1.2841  0.8105 -0.5189
   90MOL   H10434102   1.407   1.460   4.475  1.2124 -1.2566  1.8583
   90MOL   H10534103   1.129   1.556   4.541  0.5558 -0.2583  0.0478
   90MOL   H10634104   1.179   1.558   4.316  1.8490  0.1901  0.2039
   90MOL   H10734105   1.260   1.403   4.322 -0.2711  0.2942 -1.1573
   90MOL   H10834106   1.061   1.317   4.245  0.9902  0.3023  0.2974
   90MOL   H10934107   0.977   1.460   4.315  0.1363  0.1128  0.1678
   90MOL   H11034108   0.970   1.220   4.465  0.7457 -0.6250 -2.3352
   90MOL   H11134109   0.962   1.386   4.523  0.7222  0.0565  0.1027
   90MOL   H11234110   1.135   1.311   4.659  4.2916 -0.2076  0.4679
   90MOL   H11334111   1.211   1.257   4.520 -0.6012  0.2250  0.6402
   90MOL   H11434112   1.369   1.599   4.746  3.1166  2.3125 -0.8765
   90MOL   H11534113   1.323   1.438   4.745 -2.7075  2.2984 -0.4960
   90MOL   C11634114   1.547   1.473   4.728 -0.0051 -0.1232  0.4053
   90MOL   C11734115   1.570   1.480   4.886  0.6229  0.8941  0.1626
   90MOL   C11834116   1.718   1.469   4.929 -0.0579  0.1770  0.0007
   90MOL   C11934117   1.731   1.539   5.065 -0.2073 -0.0539 -0.2313
   90MOL   C12034118   1.623   1.649   5.060  1.3054  1.1689 -0.3796
   90MOL   C12134119   1.540   1.616   4.936 -0.0787  0.2201  0.7049
   90MOL   C12234120   1.601   1.345   4.664  0.1800 -0.0694  0.2439
   90MOL   H12334121   1.614   1.548   4.686  0.4054  0.3471  1.8783
   90MOL   H12434122   1.504   1.413   4.942 -0.4712  1.5401 -0.3392
   90MOL   H12534123   1.737   1.363   4.945  0.2252  0.4354  1.4429
   90MOL   H12634124   1.781   1.512   4.851 -2.0646  1.2130 -1.0952
   90MOL   H12734125   1.828   1.586   5.082 -0.3798  0.0859  0.3591
   90MOL   H12834126   1.707   1.463   5.139 -2.9638  0.4396 -0.5587
   90MOL   H12934127   1.669   1.747   5.065  1.0303  1.2459  0.5831
   90MOL   H13034128   1.552   1.644   5.142  0.6871  3.4441 -0.7456
   90MOL   H13134129   1.435   1.628   4.960 -0.1387 -1.5027  1.3513
   90MOL   H13234130   1.573   1.688   4.861 -0.4023  0.4476  0.7833
   90MOL   H13334131   1.689   1.307   4.715  0.9867  0.9214 -0.3939
   90MOL   H13434132   1.643   1.369   4.566 -0.1434  0.1382  0.1540
   90MOL   C13534133   1.503   1.226   4.641  0.2622 -0.0481 -0.5691
   90MOL   C13634134   1.454   1.158   4.776 -0.0571 -0.6484  0.3661
   90MOL   C13734135   1.559   1.087   4.864 -0.1985 -0.2000  0.0804
   90MOL   C13834136   1.480   0.980   4.935 -0.1975  0.4344  0.2414
   90MOL   C13934137   1.382   0.933   4.826 -0.6594 -0.4644 -0.4991
   90MOL   C14034138   1.332   1.067   4.766  0.1589 -0.2001 -0.2665
   90MOL   C14134139   1.559   1.122   4.541 -0.5783 -0.3147 -0.6016
   90MOL   H14234140   1.412   1.265   4.597  0.3923  2.1828  1.0432
   90MOL   H14334141   1.423   1.243   4.836  1.9438  0.1879  0.2382
   90MOL   H14434142   1.646   1.062   4.803 -0.3096 -1.3446  0.3717
   90MOL   H14534143   1.588   1.159   4.940  1.1004 -0.0484 -0.5401
   90MOL   H14634144   1.425   1.039   5.009 -1.0773  1.2215 -1.0164
   90MOL   H14734145   1.543   0.906   4.984 -0.8480 -0.4821 -0.2909
   90MOL   H14834146   1.314   0.865   4.877 -0.6605  1.6329  2.4160
   90MOL   H14934147   1.429   0.876   4.746  0.7058  0.4324 -0.3480
   90MOL   H15034148   1.299   1.056   4.663 -0.4524 -1.3070  0.0283
   90MOL   H15134149   1.247   1.108   4.820 -0.1341  1.5522 -2.0034
   90MOL   H15234150   1.499   1.032   4.555 -1.9751  0.9371  1.8439
   90MOL   H15334151   1.654   1.090   4.584 -0.0399  2.4049  0.3642
   90MOL   C15434152   1.567   1.167   4.389  0.3969  0.2965  0.1210
   90MOL   C15534153   1.693   1.107   4.323 -0.3899 -0.0443  0.1014
   90MOL   C15634154   1.822   1.157   4.385 -0.4777 -0.0010  0.3432
   90MOL   C15734155   1.929   1.127   4.277  0.1452  0.3231 -0.7661
   90MOL   C15834156   1.855   1.158   4.148  0.6265 -0.3298 -0.0008
   90MOL   C15934157   1.697   1.141   4.173  0.5038 -0.5046 -0.1811
   90MOL   C16034158   1.431   1.139   4.322  0.1583  0.3380  0.1840
   90MOL   H16134159   1.588   1.274   4.381  0.7914  0.3303  1.4686
   90MOL   H16234160   1.693   0.998   4.318  0.6932 -0.0091 -0.6910
   90MOL   H16334161   1.803   1.263   4.405  1.2251  0.6976 -1.5591
   90MOL   H16434162   1.847   1.115   4.482 -2.5620 -0.6670  0.6352
   90MOL   H16534163   2.027   1.169   4.299 -0.3035  0.7127  0.5532
   90MOL   H16634164   1.953   1.021   4.276 -1.8097 -0.1463 -0.2465
   90MOL   H16734165   1.895   1.114   4.057  1.0981  0.3682 -0.1341
   90MOL   H16834166   1.864   1.263   4.122  0.4855 -0.1543  0.6406
   90MOL   H16934167   1.655   1.066   4.106 -0.5849 -0.6216  0.6126
   90MOL   H17034168   1.644   1.234   4.154 -0.8823 -1.3554 -0.5519
   90MOL   H17134169   1.432   1.215   4.244 -2.1340  0.8714  0.6552
   90MOL   H17234170   1.341   1.169   4.376 -0.6355  0.2584 -1.0816
   90MOL   C17334171   1.407   0.996   4.260 -0.0624  0.1375  0.6288
   90MOL   C17434172   1.321   1.013   4.129  0.6440 -0.2975 -0.2184
   90MOL   C17534173   1.380   1.103   4.016 -0.4585  0.7778 -0.0288
   90MOL   C17634174   1.260   1.170   3.952  0.4732  0.1606  0.3893
   90MOL   C17734175   1.135   1.103   4.006 -0.6652  0.0356 -0.3616
   90MOL   C17834176   1.175   1.051   4.145  0.2656  0.3977 -0.1458
   90MOL   C17934177   1.348   0.896   4.353 -0.2703 -0.8193  0.8175
   90MOL   H18034178   1.506   0.954   4.239 -0.5389 -0.0375 -1.3916
   90MOL   H18134179   1.322   0.914   4.084 -1.8945 -0.0405 -0.9350
   90MOL   H18234180   1.425   1.033   3.946 -2.6533 -1.2392  0.4970
   90MOL   H18334181   1.446   1.187   4.038 -1.5791  1.3930  1.0889
   90MOL   H18434182   1.260   1.273   3.989 -0.6993  0.4614 -0.4003
   90MOL   H18534183   1.271   1.169   3.843  0.9038  1.2926  0.4147
   90MOL   H18634184   1.101   1.012   3.956  1.8128 -0.1397 -1.8103
   90MOL   H18734185   1.053   1.175   4.004 -0.7021 -0.0136 -2.7669
   90MOL   H18834186   1.166   1.134   4.215  4.2267  1.6074 -0.9189
   90MOL   H18934187   1.117   0.972   4.193  0.6537 -0.0196 -0.3557
   90MOL   H19034188   1.434   0.878   4.417  2.0471  0.0913 -1.9354
   90MOL   H19134189   1.277   0.942   4.422 -1.4614 -0.2483 -0.7582
   90MOL   C19234190   1.296   0.761   4.295  0.5262 -0.0436 -0.2431
   90MOL   C19334191   1.225   0.672   4.400 -0.4866 -0.0521 -0.5225
   90MOL   C19434192   1.091   0.729   4.444  0.1871 -0.3018  0.2443
   90MOL   C19534193   1.063   0.663   4.586  0.3783  0.7848  0.3374
   90MOL   C19634194   1.195   0.621   4.641  0.7140  0.2595  0.6318
   90MOL   C19734195   1.299   0.653   4.535 -0.2532  0.0635  0.7178
   90MOL   C19834196   1.412   0.686   4.223 -0.4665  0.5057  0.3654
   90MOL   H19934197   1.222   0.777   4.218 -1.9283 -0.9931  1.8494
   90MOL   H20034198   1.187   0.576   4.366  1.8645 -0.9964 -0.5363
   90MOL   H20134199   1.014   0.721   4.366 -0.5975  2.4232  0.6739
   90MOL   H20234200   1.093   0.836   4.464  0.7320 -0.6097  1.8843
   90MOL   H20334201   1.018   0.738   4.651  0.6794 -1.5413  3.3094
   90MOL   H20434202   0.993   0.579   4.578  0.8480  0.3299  1.0353
   90MOL   H20534203   1.190   0.513   4.658  3.7471  0.2113  1.5443
   90MOL   H20634204   1.205   0.664   4.741  1.3947 -1.3926  1.2946
   90MOL   H20734205   1.372   0.573   4.523 -0.2304  0.1999 -0.0533
   90MOL   H20834206   1.352   0.740   4.574 -0.0275 -0.1455  0.8773
   90MOL   H20934207   1.448   0.750   4.143  1.2784  2.3253  2.5330
   90MOL   H21034208   1.501   0.680   4.285  0.7036  0.5381 -1.3113
   90MOL   C21134209   1.388   0.547   4.147 -0.4214 -0.5480  0.0747
   90MOL   C21234210   1.336   0.556   4.003 -0.3578 -0.1070  0.1511
   90MOL   C21334211   1.300   0.417   3.942  0.7139  0.1695 -0.3964
   90MOL   C21434212   1.168   0.420   3.865  0.0793  0.1099  0.0378
   90MOL   C21534213   1.138   0.571   3.862 -0.1442  0.3472 -0.5799
   90MOL   C21634214   1.206   0.639   3.986  0.1350 -0.3722 -0.1277
   90MOL   C21734215   1.533   0.481   4.138 -0.0497  0.0127 -0.0712
   90MOL   H21834216   1.319   0.491   4.211 -0.5195 -0.9977 -0.4214
   90MOL   H21934217   1.416   0.606   3.949 -0.3116  0.4977  0.7759
   90MOL   H22034218   1.373   0.367   3.879  1.5396  0.9509 -0.0776
   90MOL   H22134219   1.269   0.353   4.024  0.8805  1.0965  0.4002
   90MOL   H22234220   1.169   0.372   3.767  1.1078 -0.5822  0.3860
   90MOL   H22334221   1.095   0.360   3.919 -0.4514  0.4611 -0.2793
   90MOL   H22434222   1.034   0.603   3.852 -0.5155 -1.3074 -2.3099
   90MOL   H22534223   1.187   0.602   3.769  1.2652 -0.8872 -0.2557
   90MOL   H22634224   1.230   0.743   3.964 -1.6886  0.4314  1.6008
   90MOL   H22734225   1.140   0.633   4.072 -0.9185 -1.2563 -0.9689
   90MOL   H22834226   1.606   0.556   4.110  0.1688  0.2414  1.0963
   90MOL   H22934227   1.543   0.404   4.062 -0.3445  0.4020 -0.5057
   90MOL   C23034228   1.566   0.399   4.272  0.3959  0.3406 -0.3438
   90MOL   C23134229   1.716   0.377   4.301 -0.2290 -0.2372 -0.2718
   90MOL   C23234230   1.807   0.304   4.192 -0.7205  0.5057 -0.5482
   90MOL   C23334231   1.953   0.347   4.231 -0.4003  0.5787 -0.0358
   90MOL   C23434232   1.934   0.473   4.315  0.1903  0.4363  0.0268
   90MOL   C23534233   1.790   0.509   4.320  0.0098 -0.3774 -0.3619
   90MOL   C23634234   1.487   0.266   4.280  0.2045  0.0807  0.4350
   90MOL   H23734235   1.531   0.462   4.353 -1.1160 -0.4955 -0.3320
   90MOL   H23834236   1.731   0.322   4.394 -3.0802 -0.0991  0.3125
   90MOL   H23934237   1.797   0.196   4.187 -0.5734  0.4942 -0.5942
   90MOL   H24034238   1.792   0.334   4.089 -0.2595 -0.7971 -1.0068
   90MOL   H24134239   2.012   0.272   4.284 -1.0300  0.1865  0.1229
   90MOL   H24234240   2.016   0.368   4.145 -1.5812  0.4095 -0.9533
   90MOL   H24334241   1.981   0.555   4.260  4.0378 -2.0050 -0.5049
   90MOL   H24434242   1.988   0.473   4.410 -1.3308 -0.4539  0.9090
   90MOL   H24534243   1.763   0.578   4.240 -0.8498  0.6894  0.8433
   90MOL   H24634244   1.779   0.569   4.410  0.1702  0.5144 -0.9342
   90MOL   H24734245   1.556   0.183   4.293 -0.7006 -0.4535  2.0367
   90MOL   H24834246   1.430   0.249   4.189  1.4291  0.9021 -0.4939
   90MOL   C24934247   1.385   0.262   4.400 -0.2503 -0.0726  0.4133
   90MOL   C25034248   1.471   0.237   4.535  0.4128 -0.1382  0.6833
   90MOL   C25134249   1.539   0.103   4.549  0.5693 -0.2479 -0.0636
   90MOL   C25234250   1.565   0.080   4.698  0.9666  0.1109 -0.5041
   90MOL   C25334251   1.497   0.194   4.774 -0.4108  0.7996 -0.2802
   90MOL   C25434252   1.390   0.246   4.671  0.6169 -0.5187 -0.4054
   90MOL   C25534253   1.276   0.158   4.390  0.1847  0.6986  0.7635
   90MOL   H25634254   1.344   0.361   4.416 -2.4489 -0.7801 -0.6650
   90MOL   H25734255   1.538   0.320   4.556  1.2516 -0.8865  1.0111
   90MOL   H25834256   1.634   0.109   4.496  1.2157 -0.2559  1.0747
   90MOL   H25934257   1.477   0.019   4.518  0.9366 -0.6877  0.3841
   90MOL   H26034258   1.671   0.067   4.719  0.4865  1.2535  2.8957
   90MOL   H26134259   1.536   7.668   4.719  2.0454  0.0765  0.8930
   90MOL   H26234260   1.566   0.276   4.798 -1.8005  1.4175  1.7990
   90MOL   H26334261   1.450   0.167   4.869 -0.1566  1.3969  0.0255
   90MOL   H26434262   1.353   0.346   4.693  0.5013  0.1200 -3.2403
   90MOL   H26534263   1.300   0.184   4.672  0.7844 -0.7551  0.5170
   90MOL   H26634264   1.320   0.066   4.352 -1.2023  0.6965 -0.9456
   90MOL   H26734265   1.229   0.143   4.488 -0.6021  2.6212  0.6933
   90MOL   C26834266   1.165   0.193   4.286  0.3432  0.3565 -0.0718
   90MOL   C26934267   1.061   0.294   4.340 -0.7752  0.3226 -0.2981
   90MOL   C27034268   0.951   0.252   4.437 -0.1332  1.1751  1.0733
   90MOL   C27134269   0.823   0.288   4.359 -0.0854 -0.2507  0.1056
   90MOL   C27234270   0.854   0.406   4.275 -0.2980  0.4682 -0.2754
   90MOL   C27334271   0.998   0.374   4.226  0.4245 -0.5143  0.2571
   90MOL   C27434272   1.090   0.069   4.229  0.7359 -0.6189  0.4505
   90MOL   H27534273   1.212   0.221   4.192  0.2555  1.1028  0.1090
   90MOL   H27634274   1.122   0.369   4.391 -0.7831 -0.1458  0.4192
   90MOL   H27734275   0.955   0.146   4.466  3.6396  0.6727 -0.9891
   90MOL   H27834276   0.953   0.304   4.533  0.0286  2.1382  0.5495
   90MOL   H27934277   0.784   0.202   4.304  0.7191 -0.3951 -0.2576
   90MOL   H28034278   0.746   0.310   4.432  2.2541 -1.1669  2.9475
   90MOL   H28134279   0.861   0.494   4.339 -0.2099  1.8107 -2.1118
   90MOL   H28234280   0.780   0.409   4.195 -0.9043  0.8248  0.2973
   90MOL   H28334281   1.042   0.465   4.186 -0.3649 -0.7455 -1.1621
   90MOL   H28434282   0.991   0.306   4.141  0.0904 -3.6069  2.6388
   90MOL   H28534283   1.006   0.099   4.166  3.1854 -0.4851 -2.8487
   90MOL   H28634284   1.046   0.002   4.303  1.6597 -1.2521  0.4337
   90MOL   C28734285   1.167   7.682   4.110  0.0160 -0.4265  0.0627
   90MOL   C28834286   1.180   7.531   4.144  0.4878  0.2352  0.3717
   90MOL   C28934287   1.256   7.490   4.266  0.0801 -0.1321  0.1564
   90MOL   C29034288   1.219   7.342   4.280 -0.0383  0.5920  0.0155
   90MOL   C29134289   1.069   7.343   4.258  0.1266  0.3618 -0.0464
   90MOL   C29234290   1.049   7.452   4.152 -0.2353  0.8670 -0.9557
   90MOL   C29334291   1.099   0.015   3.979 -0.1589 -0.3797  0.7143
   90MOL   H29434292   1.271   0.026   4.109  1.1603 -3.7116  0.6028
   90MOL   H29534293   1.237   7.482   4.066 -0.0753 -1.8661  1.2414
   90MOL   H29634294   1.364   7.502   4.264  0.2056 -1.2321 -0.1343
   90MOL   H29734295   1.210   7.547   4.347 -1.1170 -1.4579  0.4359
   90MOL   H29834296   1.272   7.283   4.205 -0.7434  1.1275 -0.9147
   90MOL   H29934297   1.245   7.305   4.380  2.1021 -1.6209 -1.3035
   90MOL   H30034298   1.014   7.371   4.348 -2.2239  1.6264 -1.8217
   90MOL   H30134299   1.017   7.249   4.236 -0.9387  0.9974 -0.2794
   90MOL   H30234300   0.956   7.506   4.168 -2.2259 -2.3560 -1.1565
   90MOL   H30334301   1.035   7.402   4.056  1.4127 -0.4141 -0.5446
   90MOL   H30434302   1.110   0.122   3.961  3.5124 -1.0033 -1.3223
   90MOL   H30534303   0.993   7.683   3.989  0.0049 -1.2584  0.6019
   90MOL   C30634304   1.151   7.641   3.851  0.0141 -0.2297 -0.3078
   90MOL   C30734305   1.041   7.658   3.736 -0.6141 -0.5094  0.2371
   90MOL   C30834306   0.914   7.575   3.756 -0.0937  0.1331 -0.1212
   90MOL   C30934307   0.796   7.643   3.689  0.2803 -0.0722  0.7874
   90MOL   C31034308   0.831   0.093   3.717  0.0263 -0.1268 -0.5220
   90MOL   C31134309   0.984   0.114   3.705 -0.6345 -0.0592 -0.0102
   90MOL   C31234310   1.297   0.010   3.814  0.5082  0.0765 -0.4628
   90MOL   H31334311   1.152   7.533   3.870  1.0685  0.2840  2.7928
   90MOL   H31434312   1.087   7.630   3.641  0.3461  0.4340  0.4152
   90MOL   H31534313   0.879   7.557   3.858  0.0093 -0.4816 -0.1942
   90MOL   H31634314   0.930   7.478   3.709 -0.5844 -0.3627  0.7259
   90MOL   H31734315   0.800   7.630   3.581 -1.6337 -1.2308  0.8310
   90MOL   H31834316   0.698   7.606   3.720  0.6914 -1.1635  0.8073
   90MOL   H31934317   0.804   0.110   3.821 -0.1227  3.1816 -1.0656
   90MOL   H32034318   0.770   0.170   3.670 -0.6806  0.9585  2.0683
   90MOL   H32134319   1.013   0.152   3.608 -0.5989  0.3751  0.1709
   90MOL   H32234320   1.020   0.192   3.772  0.1932 -1.0518  0.7459
   90MOL   H32334321   1.321   0.090   3.884 -1.0160 -0.7856  1.0860
   90MOL   H32434322   1.298   0.062   3.718 -0.6034 -0.0504 -0.5505
   90MOL   C32534323   1.400   7.589   3.808 -0.3784 -0.3212 -0.2434
   90MOL   C32634324   1.546   7.641   3.811  0.0724 -0.4052  0.3251
   90MOL   C32734325   1.608   7.682   3.950 -0.3557 -0.0511 -0.6158
   90MOL   C32834326   1.701   0.111   3.927  0.3380  0.3173  0.0694
   90MOL   C32934327   1.717   0.117   3.773 -0.2165 -0.3497  0.3493
   90MOL   C33034328   1.577   0.075   3.720  0.0397  0.3448 -0.7797
   90MOL   C33134329   1.387   7.510   3.679 -0.1130 -0.2730 -0.4917
   90MOL   H33234330   1.386   7.511   3.883  1.9228  0.1788  0.7351
   90MOL   H33334331   1.614   7.571   3.764  0.7947 -0.8318  1.9672
   90MOL   H33434332   1.649   7.591   3.992  1.0731  0.7739 -0.1699
   90MOL   H33534333   1.538   0.025   4.027 -0.1282 -1.0359  0.0097
   90MOL   H33634334   1.798   0.103   3.975 -0.0042  1.2979  0.9383
   90MOL   H33734335   1.642   0.201   3.948  0.5683  0.5849 -0.4167
   90MOL   H33834336   1.797   0.046   3.751 -0.0614 -0.3932  1.0541
   90MOL   H33934337   1.738   0.218   3.737  0.5978 -0.7710 -0.3932
   90MOL   H34034338   1.577   0.067   3.612  1.7438 -0.3196 -0.7413
   90MOL   H34134339   1.514   0.163   3.733  0.8565  0.5859  2.0029
   90MOL   H34234340   1.409   7.585   3.602  1.0388 -0.2000 -0.1046
   90MOL   H34334341   1.282   7.490   3.655 -0.0396  1.0192 -1.9780
   90MOL   C34434342   1.461   7.374   3.670  0.6405 -0.5940 -0.2476
   90MOL   C34534343   1.550   7.353   3.545  0.4402  0.8672 -0.2326
   90MOL   C34634344   1.653   7.461   3.508 -0.4047  0.1316 -0.1135
   90MOL   C34734345   1.701   7.417   3.366 -0.6770  0.3170  0.2821
   90MOL   C34834346   1.578   7.344   3.302 -0.2583  0.5140 -0.1114
   90MOL   C34934347   1.471   7.329   3.417  0.4098 -0.2029  0.1924
   90MOL   C35034348   1.369   7.244   3.683 -0.2268 -0.5235  0.4005
   90MOL   H35134349   1.531   7.380   3.753  0.2587 -0.9148  0.1003
   90MOL   H35234350   1.603   7.260   3.567 -0.7342  0.3733  0.5811
   90MOL   H35334351   1.733   7.477   3.580  0.7391 -3.2962 -0.5183
   90MOL   H35434352   1.613   7.561   3.491  0.8511  0.9589  1.6422
   90MOL   H35534353   1.726   7.511   3.316  0.9242 -0.3982 -0.2990
   90MOL   H35634354   1.789   7.353   3.379  0.0143  0.9689 -1.0764
   90MOL   H35734355   1.595   7.246   3.256  0.9328  0.9744 -0.6641
   90MOL   H35834356   1.523   7.399   3.226 -1.0092 -0.4770 -0.3060
   90MOL   H35934357   1.392   7.404   3.409  0.9237  0.2834 -0.3270
   90MOL   H36034358   1.429   7.228   3.424  0.1350 -0.2211 -1.5228
   90MOL   H36134359   1.416   7.150   3.658  1.0401  0.6167 -1.5986
   90MOL   H36234360   1.288   7.251   3.610 -2.1112  0.2691  2.4835
   90MOL   C36334361   1.295   7.226   3.824 -0.4403 -0.5973  0.1145
   90MOL   C36434362   1.194   7.111   3.821  0.0961 -0.1512 -0.0938
   90MOL   C36534363   1.107   7.117   3.950  0.4369 -0.1201 -0.6849
   90MOL   C36634364   1.039   6.980   3.955 -0.1706 -0.0370  0.1321
   90MOL   C36734365   1.153   6.880   3.918 -0.1611 -0.1280  0.8968
   90MOL   C36834366   1.245   6.968   3.823 -0.3834  0.1545 -0.0902
   90MOL   C36934367   1.406   7.222   3.940  0.4001  0.6036 -0.0251
   90MOL   H37034368   1.246   7.323   3.836 -1.0293 -1.1496  2.4556
   90MOL   H37134369   1.130   7.124   3.734  0.2185  0.3521 -0.1103
   90MOL   H37234370   1.176   7.119   4.034  1.8131 -1.8021 -1.7371
   90MOL   H37334371   1.047   7.209   3.950  2.4695  1.2991  2.8433
   90MOL   H37434372   0.985   6.950   4.044  3.0921  0.0030  2.2060
   90MOL   H37534373   0.964   6.981   3.876  0.2226 -0.1760 -0.2482
   90MOL   H37634374   1.206   6.855   4.009  0.6438  1.3993  0.8591
   90MOL   H37734375   1.122   6.785   3.873  3.4592 -0.0917 -1.9121
   90MOL   H37834376   1.245   6.939   3.718  0.0900  1.2397 -0.3924
   90MOL   H37934377   1.350   6.955   3.849 -0.2987  1.3480  0.1982
   90MOL   H38034378   1.480   7.148   3.912 -0.4250 -0.2156 -0.0713
   90MOL   H38134379   1.368   7.180   4.033 -0.2440 -2.8293 -1.7688
   90MOL   H38234380   1.456   7.316   3.965 -0.4866  0.7776  1.1816
   91MOL     C134381   3.258   2.087   7.480  0.2783 -0.2858 -0.2069
   91MOL     C234382   3.401   2.125   7.463  0.1245  0.0263 -0.1174
   91MOL     C334383   3.457   2.238   7.552 -0.3206  0.1834 -0.5288
   91MOL     C434384   3.595   2.265   7.490  0.5512 -0.5222  0.3202
   91MOL     C534385   3.561   2.256   7.335 -0.2711 -0.7047 -0.1431
   91MOL     C634386   3.436   2.165   7.320 -0.4396 -0.1997 -0.2581
   91MOL     C734387   3.218   1.976   7.383 -0.0041 -0.4301 -0.1258
   91MOL     H834388   3.250   2.050   7.581  0.7436  0.1442 -0.0091
   91MOL     H934389   3.453   2.034   7.491 -2.5488 -1.3554  0.5000
   91MOL    H1034390   3.398   2.329   7.556  1.2618  1.2379 -0.6279
   91MOL    H1134391   3.476   2.207   7.655 -1.8084 -0.3830 -0.4144
   91MOL    H1234392   3.635   2.361   7.523  0.3252  0.1841 -1.4214
   91MOL    H1334393   3.656   2.185   7.531  1.5169 -0.4095 -0.8768
   91MOL    H1434394   3.536   2.352   7.289  0.9426  1.9194  4.3134
   91MOL    H1534395   3.646   2.214   7.283  0.9125  1.1411  0.2403
   91MOL    H1634396   3.463   2.085   7.252 -0.6109 -0.4010 -0.0897
   91MOL    H1734397   3.354   2.226   7.280  0.3868 -0.1788 -1.9760
   91MOL    H1834398   3.241   2.010   7.282  0.4337  1.0379  0.4596
   91MOL    H1934399   3.274   1.884   7.399  0.5920  0.2584  1.8525
   91MOL    H2034400   3.191   2.173   7.469  0.9205  0.0174 -2.1033
   91MOL    C2134401   3.061   1.928   7.398  0.6874  0.1043 -0.0440
   91MOL    C2234402   3.039   1.860   7.535 -0.5145 -0.4322  0.0864
   91MOL    C2334403   3.129   1.735   7.574 -0.1917 -0.3680  0.5251
   91MOL    C2434404   3.042   1.672   7.684  1.0035  0.4449 -0.9183
   91MOL    C2534405   2.909   1.737   0.002  0.1340 -0.4808 -0.0925
   91MOL    C2634406   2.897   1.829   7.572  0.0546  0.0878 -0.5660
   91MOL    C2734407   2.955   2.041   7.367  0.0535  0.0655 -0.2913
   91MOL    H2834408   3.045   1.856   7.318  0.3142  1.2750 -1.0323
   91MOL    H2934409   3.073   1.935   7.607  2.4744 -1.8290  0.1998
   91MOL    H3034410   3.225   1.775   7.609 -0.0590 -2.3579  2.5745
   91MOL    H3134411   3.134   1.656   7.499 -1.2527 -1.0539  1.1772
   91MOL    H3234412   3.030   1.566   7.661  0.0977 -0.5604  3.6990
   91MOL    H3334413   3.083   1.660   0.095  0.7504 -0.8551 -0.9522
   91MOL    H3434414   2.913   1.796   0.094 -1.8981 -1.0288  0.3892
   91MOL    H3534415   2.830   1.664   0.018 -1.1933  0.9266 -0.0882
   91MOL    H3634416   2.832   1.915   7.584 -0.8862 -0.3169 -2.4760
   91MOL    H3734417   2.844   1.782   7.489  0.7076  0.4428 -1.1901
   91MOL    H3834418   2.852   2.007   7.377  1.4543 -4.8429 -0.7556
   91MOL    H3934419   2.977   2.118   7.440  1.8978 -0.5718 -0.1377
   91MOL    C4034420   2.967   2.113   7.230 -0.0178  0.0633  0.4855
   91MOL    C4134421   2.945   2.050   7.082 -0.1431  0.7471 -0.0085
   91MOL    C4234422   2.810   1.981   7.059  0.0007  0.0181 -0.0304
   91MOL    C4334423   2.832   1.858   6.966  0.4153 -1.1777 -0.2848
   91MOL    C4434424   2.987   1.856   6.939  0.4469 -0.3890  0.0918
   91MOL    C4534425   3.050   1.947   7.047  0.0644 -0.3690  0.0092
   91MOL    C4634426   2.879   2.242   7.236 -0.1223 -0.2437 -0.0139
   91MOL    H4734427   3.067   2.157   7.228 -0.1293  0.2532 -2.5241
   91MOL    H4834428   2.959   2.125   7.004  0.3805  0.2938 -0.3601
   91MOL    H4934429   2.736   2.049   7.016  1.4336  2.3249  1.0543
   91MOL    H5034430   2.769   1.935   7.148 -0.0454 -1.4356 -0.7863
   91MOL    H5134431   2.781   1.854   6.870 -0.8500 -2.7209  0.4364
   91MOL    H5234432   2.814   1.765   7.021  1.5178  0.5109  3.1045
   91MOL    H5334433   3.030   1.756   6.930  1.5200 -0.0944  1.6925
   91MOL    H5434434   3.000   1.898   6.839  0.8330  0.5854  0.5375
   91MOL    H5534435   3.088   1.880   7.124  0.7339 -0.8256 -0.7101
   91MOL    H5634436   3.142   1.987   7.006 -0.7862 -0.9674 -2.5511
   91MOL    H5734437   2.784   2.217   7.188 -0.2300  0.6262 -0.2787
   91MOL    H5834438   2.845   2.263   7.337  2.0449 -0.2515  0.7396
   91MOL    C5934439   2.935   2.358   7.154  0.1927 -0.6235  0.3807
   91MOL    C6034440   2.818   2.449   7.097 -0.2193  0.1049  0.7146
   91MOL    C6134441   2.724   2.516   7.203  0.0202 -0.2235  0.1341
   91MOL    C6234442   2.593   2.542   7.129  0.2157 -0.3189 -0.6861
   91MOL    C6334443   2.593   2.488   6.988 -0.5069  0.4662  0.2631
   91MOL    C6434444   2.725   2.398   6.989 -0.3381  0.4510 -0.1688
   91MOL    C6534445   3.045   2.439   7.232 -0.0341  0.5783  0.4266
   91MOL    H6634446   2.985   2.323   7.064  0.9397 -1.3742  1.0828
   91MOL    H6734447   2.867   2.532   7.047 -1.1052 -0.1788 -0.6465
   91MOL    H6834448   2.756   2.609   7.249 -1.2429  0.6487 -0.6868
   91MOL    H6934449   2.707   2.452   7.289 -2.4303 -2.1471 -1.6918
   91MOL    H7034450   2.555   2.645   7.131  1.1577  0.0240  0.8916
   91MOL    H7134451   2.519   2.485   7.186  0.6240 -0.6422 -0.4733
   91MOL    H7234452   2.615   2.571   6.922 -0.2717 -1.7630 -2.5245
   91MOL    H7334453   2.500   2.439   6.962  0.3267 -2.0780  1.8223
   91MOL    H7434454   2.707   2.291   6.997  0.9399  0.4169  2.7708
   91MOL    H7534455   2.769   2.403   6.890 -0.2113 -1.0829 -0.2097
   91MOL    H7634456   3.130   2.371   7.243  0.0212  0.4580 -0.7455
   91MOL    H7734457   3.005   2.465   7.330  3.0416  2.5222  1.2491
   91MOL    C7834458   3.101   2.569   7.178 -0.2549 -0.2547 -0.0983
   91MOL    C7934459   3.182   2.650   7.283  0.2314 -0.0071 -0.1950
   91MOL    C8034460   3.310   2.580   7.340  0.0779 -0.1139  0.2399
   91MOL    C8134461   3.294   2.588   7.494  0.2954  0.1934 -0.0262
   91MOL    C8234462   3.207   2.712   7.515 -0.3185  0.0725 -0.0200
   91MOL    C8334463   3.102   2.707   7.401 -0.2447 -0.0772 -0.2712
   91MOL    C8434464   3.187   2.531   7.059  0.8308 -0.0504 -0.6179
   91MOL    H8534465   3.013   2.626   7.145  0.6753 -0.1402 -2.4362
   91MOL    H8634466   3.215   2.739   7.231 -0.3439  1.3194  1.6422
   91MOL    H8734467   3.403   2.626   7.306 -0.8508  1.7517  0.1897
   91MOL    H8834468   3.312   2.473   7.320  1.5343 -0.0456 -0.0416
   91MOL    H8934469   3.389   2.587   7.546  0.6878  1.3181 -0.6836
   91MOL    H9034470   3.247   2.497   7.531  1.2387  0.7011  2.4543
   91MOL    H9134471   3.162   2.717   7.614  1.2419  2.0117  0.6170
   91MOL    H9234472   3.276   2.796   7.518  0.4803 -0.5063 -1.4994
   91MOL    H9334473   3.010   2.652   7.421 -0.8644  1.7502  2.2034
   91MOL    H9434474   3.062   2.804   7.371 -1.3191  0.4288  2.6413
   91MOL    H9534475   3.122   2.480   6.988  0.5530 -0.0452 -0.3676
   91MOL    H9634476   3.261   2.453   7.079  0.7961 -0.2424 -1.2391
   91MOL    C9734477   3.260   2.643   6.982 -0.8565  0.2924  0.2102
   91MOL    C9834478   3.176   2.733   6.890 -0.7350 -0.2668 -0.7619
   91MOL    C9934479   3.066   2.675   6.801 -0.1618 -0.1244  0.0464
   91MOL   C10034480   2.938   2.745   6.839  0.4632 -0.3945  0.3925
   91MOL   C10134481   2.982   2.885   6.873  0.1713  0.1280  0.1176
   91MOL   C10234482   3.104   2.855   6.963  0.1226  0.0676  0.2139
   91MOL   C10334483   3.389   2.580   6.916 -0.2649  1.0068  0.0621
   91MOL   H10434484   3.313   2.704   7.055 -1.1357 -0.7958  1.3387
   91MOL   H10534485   3.254   2.776   6.828 -1.1721  1.0187 -0.4336
   91MOL   H10634486   3.097   2.701   6.699  2.9765 -0.0597  0.9636
   91MOL   H10734487   3.053   2.567   6.807  1.7457 -0.2253  3.2820
   91MOL   H10834488   2.887   2.692   6.919 -0.8688  0.2984  0.0084
   91MOL   H10934489   2.877   2.732   6.749  0.8902 -0.4493  0.1092
   91MOL   H11034490   2.911   2.946   6.929 -0.0711  0.1521 -0.2139
   91MOL   H11134491   3.011   2.946   6.787  1.0675  0.5769  0.7359
   91MOL   H11234492   3.166   2.944   6.964  0.2213  0.0404 -1.1822
   91MOL   H11334493   3.074   2.823   7.062 -1.0191  1.6021  0.3800
   91MOL   H11434494   3.441   2.672   6.892 -0.5133  0.5275 -2.4089
   91MOL   H11534495   3.453   2.531   6.989  1.3226 -1.0504 -2.6228
   91MOL   C11634496   3.371   2.487   6.790  0.7228  0.3854  0.8143
   91MOL   C11734497   3.496   2.504   6.699 -0.5046 -0.1575  0.2636
   91MOL   C11834498   3.498   2.630   6.612  0.0554  0.3451 -0.3262
   91MOL   C11934499   3.648   2.656   6.586  0.0348  0.1890 -0.2574
   91MOL   C12034500   3.723   2.606   6.710 -0.2801  0.0995 -0.0010
   91MOL   C12134501   3.643   2.486   6.757  0.3593 -0.3692 -1.1329
   91MOL   C12234502   3.347   2.336   6.817 -0.0758  0.2894 -0.1392
   91MOL   H12334503   3.288   2.531   6.734  0.7117  0.4571  0.8878
   91MOL   H12434504   3.498   2.430   6.619  2.2499  0.9697 -0.7838
   91MOL   H12534505   3.430   2.620   6.528 -2.0281  0.1358  1.3542
   91MOL   H12634506   3.455   2.707   6.676 -1.8706  0.4003 -1.6470
   91MOL   H12734507   3.663   2.764   6.580  0.6526  0.2176  1.4013
   91MOL   H12834508   3.685   2.614   6.492  2.8479  3.0913 -0.5235
   91MOL   H12934509   3.724   2.684   6.786 -0.0052 -0.0295  0.1266
   91MOL   H13034510   3.822   2.570   6.684  0.2228  1.9886 -0.8268
   91MOL   H13134511   3.677   2.393   6.710 -1.5627 -1.0600 -1.2065
   91MOL   H13234512   3.652   2.472   6.864 -1.9691 -2.2632 -1.1430
   91MOL   H13334513   3.284   2.316   6.904  2.8613 -0.2995  1.9464
   91MOL   H13434514   3.441   2.290   6.848 -0.8131 -0.3454  1.2045
   91MOL   C13534515   3.296   2.249   6.702  0.7858  0.9120 -0.1209
   91MOL   C13634516   3.153   2.287   6.663 -0.0678 -0.8314  0.0938
   91MOL   C13734517   3.038   2.249   6.761  0.2978  0.1849  0.2029
   91MOL   C13834518   2.919   2.264   6.681  0.5023  0.0323  0.0888
   91MOL   C13934519   2.958   2.210   6.543  0.0530  0.3890 -0.0449
   91MOL   C14034520   3.108   2.237   6.529 -0.0580 -1.0956  0.0567
   91MOL   C14134521   3.306   2.095   6.731 -0.1579  0.1381 -0.3813
   91MOL   H14234522   3.361   2.269   6.616 -0.0949 -0.5140 -1.1406
   91MOL   H14334523   3.151   2.394   6.640  5.0085 -0.6090  0.1696
   91MOL   H14434524   3.042   2.148   6.800 -0.4564 -0.5923 -1.6776
   91MOL   H14534525   3.025   2.315   6.848  0.7724  0.2647  0.2145
   91MOL   H14634526   2.890   2.370   6.682  0.4492  0.0291 -0.9909
   91MOL   H14734527   2.843   2.201   6.727 -0.4302  0.5786 -0.6701
   91MOL   H14834528   2.904   2.251   6.458  2.3884  0.6327 -1.4582
   91MOL   H14934529   2.947   2.103   6.532  1.1439  0.3902 -1.2766
   91MOL   H15034530   3.159   2.148   6.493  1.5872  0.0671 -0.5562
   91MOL   H15134531   3.131   2.313   6.455 -1.3961 -1.2486 -0.5309
   91MOL   H15234532   3.228   2.039   6.678 -0.7290  0.7216 -0.1714
   91MOL   H15334533   3.282   2.080   6.836  1.6703 -0.2811 -0.0082
   91MOL   C15434534   3.434   2.030   6.694  0.1723  0.5435  0.5284
   91MOL   C15534535   3.467   1.901   6.775 -0.2052  0.5761  0.2274
   91MOL   C15634536   3.356   1.800   6.785 -0.0113 -0.1027 -0.6490
   91MOL   C15734537   3.414   1.699   6.882 -0.4655  0.4244 -0.2545
   91MOL   C15834538   3.517   1.779   6.969  0.7721 -0.6187  0.6986
   91MOL   C15934539   3.507   1.922   6.918 -0.5056  0.6078 -0.6029
   91MOL   C16034540   3.429   2.003   6.549 -0.4900 -0.1907 -0.0508
   91MOL   H16134541   3.514   2.103   6.704  0.3239  0.7574 -1.8778
   91MOL   H16234542   3.540   1.840   6.721 -2.5957 -3.0343  0.8925
   91MOL   H16334543   3.266   1.850   6.822 -0.6215 -1.3100 -0.4712
   91MOL   H16434544   3.331   1.750   6.692  1.6497 -2.5360  0.1592
   91MOL   H16534545   3.338   1.656   6.947  1.0298 -0.1499  1.1711
   91MOL   H16634546   3.457   1.614   6.829  1.6093  1.8309 -0.9098
   91MOL   H16734547   3.618   1.744   6.951  1.2236  0.3607  1.2963
   91MOL   H16834548   3.485   1.773   7.073  1.1388 -0.8874  0.7963
   91MOL   H16934549   3.605   1.970   6.915 -0.1985  0.1845  1.7288
   91MOL   H17034550   3.447   1.990   6.979  1.0584  0.3978  1.2210
   91MOL   H17134551   3.382   2.091   6.505  2.7194  3.2409  2.9752
   91MOL   H17234552   3.364   1.919   6.524 -1.6367 -0.2014  2.7302
   91MOL   C17334553   3.555   2.009   6.466  0.1352 -0.2103  0.6979
   91MOL   C17434554   3.640   2.142   6.471  0.0699  0.4049  0.1869
   91MOL   C17534555   3.591   2.261   6.395 -0.5752 -0.2718  0.3678
   91MOL   C17634556   3.720   2.344   6.381  0.3627 -0.7024 -0.6427
   91MOL   C17734557   3.827   2.248   6.347 -0.8316 -0.7587  0.7328
   91MOL   C17834558   3.785   2.117   6.422 -0.0622  0.8829 -0.0270
   91MOL   C17934559   3.529   1.967   6.317  0.2631  0.1022  1.2850
   91MOL   H18034560   3.622   1.936   6.513  2.4034  0.2437 -1.6715
   91MOL   H18134561   3.648   2.190   6.569 -0.5851  1.4800 -0.2671
   91MOL   H18234562   3.509   2.311   6.447  0.8735  1.1356  1.3641
   91MOL   H18334563   3.546   2.242   6.298  1.3974  0.5939 -0.7470
   91MOL   H18434564   3.707   2.417   6.301  1.6588  0.5943  0.2913
   91MOL   H18534565   3.734   2.397   6.476  1.8194 -1.1861 -0.5722
   91MOL   H18634566   3.925   2.283   6.379 -0.8246  1.1982 -1.3210
   91MOL   H18734567   3.837   2.236   6.239  0.7442  1.1435  0.6215
   91MOL   H18834568   3.805   2.035   6.353 -1.5148  0.3577  0.1430
   91MOL   H18934569   3.844   2.106   6.513 -1.1450  0.1729  0.6068
   91MOL   H19034570   3.437   2.014   6.284  0.1024 -0.6325  0.6889
   91MOL   H19134571   3.608   2.012   6.257  0.8564 -0.8577  1.3346
   91MOL   C19234572   3.526   1.819   6.282  0.6432  0.2427 -1.2132
   91MOL   C19334573   3.666   1.762   6.284  1.2999  1.1948  0.3224
   91MOL   C19434574   3.752   1.790   6.162 -0.6218  0.0799  0.2758
   91MOL   C19534575   3.831   1.662   6.120  0.2730  0.4579 -0.3393
   91MOL   C19634576   3.795   1.562   6.233 -0.6963 -0.0159  0.4057
   91MOL   C19734577   3.670   1.612   6.298 -0.4166 -1.5461 -0.0719
   91MOL   C19834578   3.455   1.817   6.147 -0.2367  0.6489  0.3943
   91MOL   H19934579   3.460   1.768   6.353  1.2328  1.5387  0.2742
   91MOL   H20034580   3.716   1.812   6.367 -0.9153 -2.4139  4.0051
   91MOL   H20134581   3.822   1.870   6.188  1.7231 -0.9222 -2.6337
   91MOL   H20234582   3.689   1.828   6.081  0.8709 -0.5751 -1.2348
   91MOL   H20334583   3.795   1.622   6.025 -1.5078 -0.2553  0.5968
   91MOL   H20434584   3.939   1.670   6.114  0.1923  0.6836 -1.7576
   91MOL   H20534585   3.879   1.549   6.301 -1.0063  0.3123  0.8508
   91MOL   H20634586   3.778   1.464   6.188 -0.3855  0.2784 -0.3624
   91MOL   H20734587   3.670   1.597   6.406 -1.9944  0.2565  0.2117
   91MOL   H20834588   3.584   1.565   6.251 -1.6237 -0.3106  0.8600
   91MOL   H20934589   3.496   1.898   6.087  0.1451  0.3970  0.3166
   91MOL   H21034590   3.483   1.720   6.105 -1.0454  0.5958 -0.0416
   91MOL   C21134591   3.297   1.821   6.147  0.1377  0.7126 -0.8788
   91MOL   C21234592   3.232   1.924   6.047 -0.2621 -0.2534 -0.1904
   91MOL   C21334593   3.235   2.070   6.090 -0.0815  0.7037 -1.1425
   91MOL   C21434594   3.192   2.144   5.965  0.2848 -0.2413  0.0676
   91MOL   C21534595   3.235   2.060   5.845  0.1887 -0.0355  0.3598
   91MOL   C21634596   3.291   1.931   5.909  0.1124  0.4849  0.3038
   91MOL   C21734597   3.240   1.679   6.130 -0.5334  0.3130 -0.0327
   91MOL   H21834598   3.272   1.854   6.248  1.3178 -1.4885  0.1626
   91MOL   H21934599   3.126   1.905   6.029 -0.2754 -0.2078 -0.1585
   91MOL   H22034600   3.178   2.094   6.180  0.6154 -1.2503 -0.1523
   91MOL   H22134601   3.338   2.094   6.117 -0.8855  1.5541  1.2312
   91MOL   H22234602   3.083   2.141   5.962  0.2640  0.7606 -0.9153
   91MOL   H22334603   3.232   2.245   5.961 -1.5598  0.4714 -0.9776
   91MOL   H22434604   3.303   2.105   5.773  0.6320 -2.7304 -0.9438
   91MOL   H22534605   3.152   2.039   5.777 -0.9740  0.4713  1.5907
   91MOL   H22634606   3.286   1.840   5.850  1.8005  1.7881 -1.9325
   91MOL   H22734607   3.399   1.947   5.911  0.1659  0.2121 -0.4495
   91MOL   H22834608   3.292   1.625   6.210 -0.6449  0.3519  0.0661
   91MOL   H22934609   3.268   1.658   6.027 -2.4726  0.5112 -0.6197
   91MOL   C23034610   3.095   1.659   6.176 -0.5313  0.1060  0.8363
   91MOL   C23134611   3.081   1.618   6.328  0.0887  0.0616 -0.1429
   91MOL   C23234612   3.142   1.716   6.435 -0.5833 -0.2698 -0.0654
   91MOL   C23334613   3.067   1.675   6.573 -0.1603  0.1197  0.5432
   91MOL   C23434614   2.924   1.635   6.528 -0.4158 -0.3846  0.0270
   91MOL   C23534615   2.943   1.591   6.380 -0.0486 -0.0756  0.7657
   91MOL   C23634616   3.023   1.554   6.083 -0.7914  0.2189  0.1207
   91MOL   H23734617   3.040   1.753   6.165 -2.6380 -1.0317  1.3290
   91MOL   H23834618   3.136   1.527   6.352  1.9583  1.3162  0.4454
   91MOL   H23934619   3.248   1.710   6.458 -1.2118  1.1305  3.5520
   91MOL   H24034620   3.111   1.817   6.410 -2.6017 -0.5155  1.2980
   91MOL   H24134621   3.127   1.589   6.601 -1.0579 -0.4811  0.6173
   91MOL   H24234622   3.062   1.744   6.657 -0.0247 -0.4866  1.0549
   91MOL   H24334623   2.862   1.723   6.542 -0.3591 -0.2983 -0.2513
   91MOL   H24434624   2.871   1.556   6.580 -0.4116 -0.2046  0.3023
   91MOL   H24534625   2.871   1.642   6.316  1.0841  0.7510  0.1269
   91MOL   H24634626   2.924   1.484   6.381 -1.1228  0.1183  1.0683
   91MOL   H24734627   2.977   1.491   6.159 -0.9027  1.5859  1.2042
   91MOL   H24834628   3.101   1.490   6.040  2.7331  2.2143  3.2090
   91MOL   C24934629   2.917   1.589   5.973  0.1993  0.3357 -0.4188
   91MOL   C25034630   2.836   1.466   5.927 -0.5620 -0.2738 -0.5929
   91MOL   C25134631   2.728   1.493   5.824  0.4323  0.0110  0.3159
   91MOL   C25234632   2.629   1.376   5.841 -0.8136 -0.5562  0.7613
   91MOL   C25334633   2.642   1.335   5.989  0.1985  0.3668  0.1831
   91MOL   C25434634   2.768   1.395   6.048  0.1018 -0.4839  0.0590
   91MOL   C25534635   2.981   1.674   5.864 -0.1316  0.2646  0.5305
   91MOL   H25634636   2.842   1.648   6.025 -1.7003 -0.9793 -1.6424
   91MOL   H25734637   2.916   1.402   5.891 -1.9679 -1.1679 -2.2182
   91MOL   H25834638   2.765   1.504   5.722  0.5467 -0.4353  0.3110
   91MOL   H25934639   2.671   1.584   5.843 -1.5897 -0.5055 -2.9172
   91MOL   H26034640   2.672   1.301   5.774 -0.0018 -0.7783  1.5168
   91MOL   H26134641   2.527   1.392   5.805 -0.4469 -1.3756 -0.6877
   91MOL   H26234642   2.642   1.227   5.999  1.2756  0.4812  1.4910
   91MOL   H26334643   2.556   1.382   6.037 -1.4354 -2.2039 -0.1023
   91MOL   H26434644   2.838   1.317   6.078 -1.8203 -1.6297  1.7081
   91MOL   H26534645   2.755   1.458   6.136  1.9702 -1.4849  1.0942
   91MOL   H26634646   3.050   1.738   5.920  1.0325 -1.2435  0.8544
   91MOL   H26734647   3.043   1.600   5.813 -0.3753 -0.7393  1.6636
   91MOL   C26834648   2.899   1.781   5.784  0.6320  0.5671 -0.2018
   91MOL   C26934649   2.985   1.818   5.661 -0.6496 -0.0077  0.0470
   91MOL   C27034650   2.945   1.949   5.580  1.2090 -0.0480  0.3772
   91MOL   C27134651   3.031   1.930   5.455  0.2485 -0.4707 -0.3787
   91MOL   C27234652   3.000   1.785   5.416  0.0320 -0.1360  0.4506
   91MOL   C27334653   3.001   1.713   5.549  0.5399 -0.4137  0.0353
   91MOL   C27434654   2.855   1.894   5.883  0.0728  0.2102 -0.0993
   91MOL   H27534655   2.811   1.742   5.733 -0.7858  1.6779  1.3618
   91MOL   H27634656   3.081   1.842   5.707 -1.0514  0.3622  0.7185
   91MOL   H27734657   2.842   1.925   5.552  1.5520 -2.8156  1.3594
   91MOL   H27834658   2.948   2.046   5.630 -0.1493 -0.1354  0.6522
   91MOL   H27934659   3.006   1.990   5.368 -0.7773  0.8095  0.7776
   91MOL   H28034660   3.135   1.944   5.485  0.3187 -1.1268 -0.3004
   91MOL   H28134661   3.071   1.739   5.347  2.4320  1.7485  1.5674
   91MOL   H28234662   2.904   1.757   5.374  1.0842 -3.3233  0.0588
   91MOL   H28334663   3.095   1.660   5.567  2.2808  2.3777 -0.3714
   91MOL   H28434664   2.927   1.634   5.555 -0.5439  0.6124  0.2755
   91MOL   H28534665   2.881   1.986   5.831  0.5865  0.6670  0.9716
   91MOL   H28634666   2.917   1.896   5.972 -1.6962  2.8073  1.1333
   91MOL   C28734667   2.700   1.888   5.909 -0.0334  0.0341  0.4102
   91MOL   C28834668   2.674   1.946   6.046 -0.2742  0.1261 -0.4147
   91MOL   C28934669   2.725   1.871   6.171  0.0940  0.1291 -0.4980
   91MOL   C29034670   2.729   1.970   6.296 -0.0945 -0.3681 -0.0632
   91MOL   C29134671   2.777   2.099   6.225 -0.3267  0.2120  0.1841
   91MOL   C29234672   2.721   2.090   6.078  0.2460  0.2383  0.1504
   91MOL   C29334673   2.613   1.939   5.792  0.7928  1.0392  0.2110
   91MOL   H29434674   2.678   1.782   5.918 -1.1918  0.0042 -2.2574
   91MOL   H29534675   2.567   1.954   6.068 -0.5594 -1.5758 -1.1371
   91MOL   H29634676   2.663   1.784   6.194 -1.2028  1.1637 -0.0195
   91MOL   H29734677   2.828   1.837   6.158  1.1192  2.2234  1.6706
   91MOL   H29834678   2.627   1.972   6.333 -0.4688 -0.7900 -1.0305
   91MOL   H29934679   2.799   1.948   6.376  0.2480 -0.1900 -0.3132
   91MOL   H30034680   2.883   2.115   6.244 -0.2362  0.3362 -0.4130
   91MOL   H30134681   2.726   2.182   6.274 -1.8865  0.1029 -1.2149
   91MOL   H30234682   2.777   2.123   5.991  0.0649 -0.0731 -0.0850
   91MOL   H30334683   2.638   2.161   6.085  1.0094  1.3979 -1.9370
   91MOL   H30434684   2.642   1.900   5.694  0.5951  0.2661  0.4513
   91MOL   H30534685   2.621   2.047   5.788 -0.9332  1.1553 -0.3814
   91MOL   C30634686   2.462   1.911   5.802 -0.2628 -0.6760 -0.0444
   91MOL   C30734687   2.368   2.033   5.779 -0.1117 -0.3381  0.4966
   91MOL   C30834688   2.378   2.149   5.885  0.4121  1.4239  0.4660
   91MOL   C30934689   2.444   2.270   5.810 -0.1774  0.1247  0.1477
   91MOL   C31034690   2.403   2.252   5.665 -0.3768 -0.0978  0.4078
   91MOL   C31134691   2.394   2.102   5.637 -0.1094 -0.4729  0.0638
   91MOL   C31234692   2.438   1.786   5.709 -0.0982 -0.4288 -0.6321
   91MOL   H31334693   2.441   1.888   5.906 -2.0953  2.1985  0.2974
   91MOL   H31434694   2.264   2.002   5.780 -0.0484 -0.5855 -0.4711
   91MOL   H31534695   2.440   2.111   5.966  0.2761 -0.2862 -0.2043
   91MOL   H31634696   2.279   2.171   5.925 -0.0461 -2.4042  1.6285
   91MOL   H31734697   2.426   2.368   5.855 -0.3249  0.3920 -0.4862
   91MOL   H31834698   2.551   2.249   5.817  0.1404  2.1066  1.4502
   91MOL   H31934699   2.479   2.289   5.596 -2.6413  0.3898 -1.9106
   91MOL   H32034700   2.306   2.299   5.646 -0.5893 -1.0409 -0.9691
   91MOL   H32134701   2.318   2.098   5.558  1.1312 -0.2538 -1.1628
   91MOL   H32234702   2.490   2.071   5.596 -0.0215  0.5052 -0.4865
   91MOL   H32334703   2.515   1.712   5.731 -2.1573 -1.7561  2.5424
   91MOL   H32434704   2.462   1.821   5.609  1.7818  1.9577  0.6111
   91MOL   C32534705   2.297   1.713   5.716  0.3133  0.2640  0.0764
   91MOL   C32634706   2.268   1.618   5.843  0.2692 -0.1671 -0.1808
   91MOL   C32734707   2.133   1.541   5.824  0.5254  0.4042 -0.5286
   91MOL   C32834708   2.098   1.494   5.966 -0.3879  0.6038 -0.3908
   91MOL   C32934709   2.169   1.589   6.068  0.1180  0.4591 -0.8533
   91MOL   C33034710   2.254   1.684   5.982 -0.6765  0.1409  0.1224
   91MOL   C33134711   2.295   1.631   5.589  0.1879 -0.1195 -0.4865
   91MOL   H33234712   2.225   1.794   5.713  0.5984  0.4794 -0.9668
   91MOL   H33334713   2.347   1.546   5.863 -0.8258 -0.5458  3.0348
   91MOL   H33434714   2.145   1.459   5.754  1.1649  1.2270 -1.3943
   91MOL   H33534715   2.063   1.611   5.778 -0.3175 -0.7356 -1.0076
   91MOL   H33634716   2.115   1.390   5.995  1.2986  1.0306  0.2307
   91MOL   H33734717   1.991   1.512   5.977 -0.5335 -0.9998  0.9613
   91MOL   H33834718   2.244   1.542   6.132 -0.7486 -1.2667 -1.0776
   91MOL   H33934719   2.110   1.643   6.142 -0.3209  0.4117 -1.1661
   91MOL   H34034720   2.352   1.714   6.021 -0.5002  0.8348 -0.8345
   91MOL   H34134721   2.187   1.768   5.967 -0.8653 -0.3853 -2.1312
   91MOL   H34234722   2.239   1.538   5.592  0.5237 -0.3059 -0.1339
   91MOL   H34334723   2.395   1.593   5.570  0.3783 -0.8978  1.9941
   91MOL   C34434724   2.230   1.714   5.472  0.5273 -0.4686  0.4769
   91MOL   C34534725   2.075   1.733   5.492  0.0113  0.5021 -0.0832
   91MOL   C34634726   1.983   1.603   5.486  0.2520 -0.0219 -0.0290
   91MOL   C34734727   1.843   1.653   5.449  0.0467 -0.0374 -0.6314
   91MOL   C34834728   1.861   1.799   5.398  0.3937 -0.6096 -0.1536
   91MOL   C34934729   2.008   1.826   5.391  0.2519 -0.3265 -1.1232
   91MOL   C35034730   2.268   1.658   5.330 -0.0561  0.3308 -0.4254
   91MOL   H35134731   2.271   1.815   5.475  1.7397 -0.8999 -1.0767
   91MOL   H35234732   2.054   1.786   5.585 -2.8615  0.4770 -0.6648
   91MOL   H35334733   1.985   1.539   5.573  1.3940 -0.9783 -0.7362
   91MOL   H35434734   2.011   1.540   5.401 -1.1311  0.8343 -1.1334
   91MOL   H35534735   1.803   1.595   5.365 -0.1808  0.6122 -0.9700
   91MOL   H35634736   1.779   1.639   5.535  2.3986 -0.4450  1.1016
   91MOL   H35734737   1.811   1.855   5.476 -1.0577 -0.5967 -1.0911
   91MOL   H35834738   1.796   1.814   5.312  0.9620  0.9245 -0.3265
   91MOL   H35934739   2.033   1.806   5.287  2.7407  0.0580 -0.6158
   91MOL   H36034740   2.038   1.929   5.410  1.4690 -1.0056  0.7382
   91MOL   H36134741   2.191   1.587   5.300  0.1100 -0.4274  0.9299
   91MOL   H36234742   2.357   1.595   5.334  0.5512  1.0469 -2.2294
   91MOL   C36334743   2.298   1.760   5.221 -0.3147  0.5359 -0.0483
   91MOL   C36434744   2.449   1.776   5.187 -0.7951 -0.3475  0.0522
   91MOL   C36534745   2.540   1.801   5.306  0.0136 -1.0410  0.0328
   91MOL   C36634746   2.672   1.855   5.253  0.0467  0.2110 -0.4226
   91MOL   C36734747   2.634   1.915   5.117  0.0978  0.0400 -0.3157
   91MOL   C36834748   2.482   1.897   5.090  0.0659  0.5768 -0.1507
   91MOL   C36934749   2.215   1.708   5.099 -0.4326  0.3964 -0.1106
   91MOL   H37034750   2.248   1.853   5.247 -3.1488 -1.6155  2.6712
   91MOL   H37134751   2.484   1.679   5.152 -3.2380 -0.8692 -1.0807
   91MOL   H37234752   2.489   1.877   5.367 -1.2795 -1.6201 -0.3240
   91MOL   H37334753   2.565   1.716   5.369 -2.0915 -1.3982  0.4401
   91MOL   H37434754   2.707   1.929   5.326 -2.4655 -1.7427  2.9117
   91MOL   H37534755   2.744   1.775   5.245 -0.5921 -0.3930 -0.2290
   91MOL   H37634756   2.660   2.021   5.108 -0.7752  0.1714 -1.3703
   91MOL   H37734757   2.695   1.863   5.042 -0.3202  0.6372 -1.0775
   91MOL   H37834758   2.469   1.871   4.985  0.7445  0.7085 -0.2696
   91MOL   H37934759   2.422   1.987   5.106  4.2293  3.6890 -1.1800
   91MOL   H38034760   2.113   1.672   5.111  0.1052 -1.5469 -1.3079
   91MOL   H38134761   2.275   1.623   5.070 -1.1035 -0.7368  1.7380
   91MOL   H38234762   2.226   1.778   5.016  1.2629  1.7744  1.2205
   92MOL     C134763   1.031   4.586   3.348  0.7485 -0.4186  0.1728
   92MOL     C234764   1.024   4.700   3.450  0.8784  0.3109 -0.1413
   92MOL     C334765   1.043   4.838   3.391  0.3844 -0.5051  0.0062
   92MOL     C434766   1.058   4.919   3.520  0.0073 -1.0556 -0.2181
   92MOL     C534767   1.136   4.835   3.619 -0.0016  0.2511 -0.2929
   92MOL     C634768   1.132   4.696   3.558  0.2441  0.4250  0.1181
   92MOL     C734769   0.956   4.461   3.400 -0.5468 -0.7016 -0.2373
   92MOL     H834770   0.972   4.624   3.264 -0.3548  0.0396  1.1344
   92MOL     H934771   0.934   4.696   3.512  0.0669 -0.7978 -1.3537
   92MOL    H1034772   1.136   4.845   3.334 -0.0970  0.6407 -0.6462
   92MOL    H1134773   0.953   4.876   3.343  1.2191  2.2805  0.6139
   92MOL    H1234774   1.100   5.020   3.513  0.6415 -1.3941 -1.4670
   92MOL    H1334775   0.961   4.944   3.562  1.2735 -0.3446  2.4591
   92MOL    H1434776   1.236   4.873   3.640  0.0073 -0.0500  0.2117
   92MOL    H1534777   1.091   4.818   3.717 -0.4646 -0.0120 -0.5510
   92MOL    H1634778   1.122   4.617   3.632 -0.0899 -1.6259 -2.0690
   92MOL    H1734779   1.223   4.679   3.501  1.1013  5.4355 -0.2710
   92MOL    H1834780   1.002   4.427   3.493 -0.4856 -0.8166 -0.3084
   92MOL    H1934781   0.856   4.501   3.416 -0.4776 -1.1980  1.5556
   92MOL    H2034782   1.135   4.582   3.317  0.8123  0.1846  0.3228
   92MOL    C2134783   0.945   4.352   3.295  0.7388  0.5785 -0.3681
   92MOL    C2234784   1.086   4.300   3.246  0.3063 -1.1676  0.1596
   92MOL    C2334785   1.078   4.203   3.122  0.1757 -0.0844  0.0439
   92MOL    C2434786   1.169   4.087   3.158 -0.7421  0.8115 -0.2282
   92MOL    C2534787   1.261   4.138   3.269 -0.1646  0.3813 -0.1889
   92MOL    C2634788   1.176   4.239   3.349 -0.3107  0.4097 -0.4805
   92MOL    C2734789   0.855   4.243   3.353  0.3420 -0.4920  1.0911
   92MOL    H2834790   0.895   4.395   3.208 -0.3245 -1.0579 -0.5856
   92MOL    H2934791   1.148   4.380   3.207 -1.1210 -0.7153 -1.2135
   92MOL    H3034792   1.116   4.253   3.033  0.6764 -0.8845 -0.1970
   92MOL    H3134793   0.979   4.162   3.101  0.3478  0.0238 -1.0017
   92MOL    H3234794   1.106   4.011   3.204 -2.4041  1.5263 -1.2797
   92MOL    H3334795   1.206   4.046   3.064 -3.5819 -2.3561 -0.0359
   92MOL    H3434796   1.339   4.190   3.212 -1.0741 -0.3553 -2.1626
   92MOL    H3534797   1.296   4.048   3.319 -0.2217  0.0855 -0.6767
   92MOL    H3634798   1.233   4.305   3.414 -3.3349 -0.7382  3.4859
   92MOL    H3734799   1.114   4.187   3.422 -1.2193  1.9276 -0.1482
   92MOL    H3834800   0.865   4.148   3.300  1.9156  0.2635  0.0127
   92MOL    H3934801   0.893   4.217   3.451  0.3699  1.5454  1.6330
   92MOL    C4034802   0.707   4.277   3.368  0.9891 -0.2329 -0.3322
   92MOL    C4134803   0.637   4.348   3.245 -0.0553  0.4924 -0.0806
   92MOL    C4234804   0.490   4.381   3.266 -0.2564 -0.3036  0.1613
   92MOL    C4334805   0.443   4.399   3.123  0.6799 -0.2556  0.3118
   92MOL    C4434806   0.494   4.272   3.057 -0.3680  0.2456  0.3607
   92MOL    C4534807   0.631   4.257   3.119  0.5834 -0.3966  0.0334
   92MOL    C4634808   0.628   4.146   3.407 -0.2590  0.0617  0.3330
   92MOL    H4734809   0.700   4.354   3.444  2.7578 -0.5517  0.1771
   92MOL    H4834810   0.677   4.443   3.210  1.5648  0.4795  1.6551
   92MOL    H4934811   0.484   4.479   3.314  1.8878 -0.5723  1.0438
   92MOL    H5034812   0.426   4.310   3.317 -0.2167 -1.8040 -1.8250
   92MOL    H5134813   0.467   4.492   3.071 -2.1919  0.7587  0.7341
   92MOL    H5234814   0.334   4.398   3.121  0.6063  0.3833  2.3091
   92MOL    H5334815   0.432   4.191   3.096 -0.9411  0.6995  0.4063
   92MOL    H5434816   0.497   4.271   2.948 -1.6561  0.7144  0.3126
   92MOL    H5534817   0.661   4.155   3.143 -0.5294 -0.8557 -0.4769
   92MOL    H5634818   0.706   4.283   3.044  0.2628  1.5876  0.3601
   92MOL    H5734819   0.521   4.162   3.394  0.0013  0.0948 -1.8162
   92MOL    H5834820   0.648   4.064   3.337  0.6668  0.3056  0.3006
   92MOL    C5934821   0.655   4.092   3.546  0.0088  0.0551 -0.0305
   92MOL    C6034822   0.557   4.183   3.629  0.2567 -0.0163 -0.6751
   92MOL    C6134823   0.575   4.183   3.776 -0.0680 -0.1167 -0.6211
   92MOL    C6234824   0.442   4.224   3.846 -0.2197  0.5584  0.0649
   92MOL    C6334825   0.332   4.229   3.738  0.0458 -0.0986 -0.5927
   92MOL    C6434826   0.405   4.149   3.624  0.1065  0.1609  0.4831
   92MOL    C6534827   0.631   3.935   3.555 -0.0038  0.2595  0.1798
   92MOL    H6634828   0.758   4.104   3.581 -0.1187 -1.6753  0.9955
   92MOL    H6734829   0.563   4.290   3.609 -0.9238  0.0832 -0.5513
   92MOL    H6834830   0.656   4.250   3.803 -0.0350  0.2512 -1.6054
   92MOL    H6934831   0.606   4.084   3.810 -1.2940  0.0237  0.9797
   92MOL    H7034832   0.456   4.326   3.881  2.9784 -0.0485  0.7390
   92MOL    H7134833   0.414   4.181   3.942 -0.1604  1.6490  0.5768
   92MOL    H7234834   0.314   4.330   3.702  0.2311  0.5715  1.1544
   92MOL    H7334835   0.238   4.189   3.775 -0.0597  0.1674 -0.5762
   92MOL    H7434836   0.386   4.045   3.649  0.2998  0.3243  1.3439
   92MOL    H7534837   0.355   4.173   3.530  2.4791 -2.1268 -1.4023
   92MOL    H7634838   0.530   3.921   3.517 -0.3344  1.2626  0.6793
   92MOL    H7734839   0.622   3.913   3.662  2.5743  1.5927  0.7232
   92MOL    C7834840   0.743   3.843   3.489  0.3438 -0.1019  0.1570
   92MOL    C7934841   0.884   3.842   3.560  0.0073 -0.0174  0.2129
   92MOL    C8034842   0.998   3.769   3.481 -0.2908 -0.3518  0.0086
   92MOL    C8134843   1.099   3.696   3.581  0.0064 -0.2522  0.1613
   92MOL    C8234844   1.002   3.660   3.696 -0.2047  0.0115 -0.7573
   92MOL    C8334845   0.888   3.766   3.698 -0.2607 -0.2077  0.3881
   92MOL    C8434846   0.689   3.697   3.483 -0.2408 -0.4566  0.0456
   92MOL    H8534847   0.758   3.881   3.388  0.3015 -0.7875 -0.1038
   92MOL    H8634848   0.901   3.948   3.576  0.4479 -0.1771  0.8027
   92MOL    H8734849   1.047   3.839   3.414 -0.1812 -1.8456 -1.5218
   92MOL    H8834850   0.958   3.689   3.418 -1.6746 -1.0840  1.7904
   92MOL    H8934851   1.185   3.757   3.610 -0.1010 -0.1522  0.2731
   92MOL    H9034852   1.151   3.607   3.548  0.1929 -0.6332  1.4984
   92MOL    H9134853   0.959   3.563   3.669 -0.6688  0.2883 -1.0209
   92MOL    H9234854   1.052   3.646   3.792 -1.4090  1.2179  0.0606
   92MOL    H9334855   0.790   3.726   3.723 -0.5336  0.3544  0.2312
   92MOL    H9434856   0.902   3.850   3.767  3.5187 -0.6295  0.2379
   92MOL    H9534857   0.595   3.693   3.538 -1.6143 -0.7884 -2.2741
   92MOL    H9634858   0.764   3.631   3.526 -0.2730 -0.4496  0.1135
   92MOL    C9734859   0.662   3.647   3.340  0.0109  0.3952 -0.2048
   92MOL    C9834860   0.536   3.725   3.279 -0.3693 -0.5053  0.8209
   92MOL    C9934861   0.526   3.729   3.127 -0.7202 -0.2222 -0.3871
   92MOL   C10034862   0.378   3.703   3.096 -0.3377 -0.4940 -0.2524
   92MOL   C10134863   0.300   3.727   3.224 -1.1168  0.4670  0.3122
   92MOL   C10234864   0.398   3.695   3.344 -0.0363 -0.2681  0.0685
   92MOL   C10334865   0.644   3.487   3.336  0.2261 -0.1316  0.1949
   92MOL   H10434866   0.749   3.670   3.277 -0.1216 -2.1112 -1.3868
   92MOL   H10534867   0.560   3.829   3.300  2.3270 -0.7808 -0.6815
   92MOL   H10634868   0.559   3.826   3.090  1.4577 -1.0171 -0.6019
   92MOL   H10734869   0.585   3.648   3.085 -1.0107 -0.6078 -0.0522
   92MOL   H10834870   0.367   3.599   3.065  0.4010 -0.9014  0.8391
   92MOL   H10934871   0.333   3.767   3.021 -0.9874 -0.7848 -0.1199
   92MOL   H11034872   0.213   3.661   3.219 -0.5879 -0.1018 -2.0864
   92MOL   H11134873   0.265   3.830   3.234 -3.0029 -0.2472  1.3188
   92MOL   H11234874   0.373   3.754   3.433  0.3070  1.5059 -0.9885
   92MOL   H11334875   0.386   3.589   3.365  1.6821 -0.5605 -0.3143
   92MOL   H11434876   0.602   3.450   3.429  0.3556 -3.0777 -0.8762
   92MOL   H11534877   0.569   3.470   3.258  0.1452  1.7817 -0.1904
   92MOL   C11634878   0.772   3.402   3.301  0.1109 -0.1075  0.6179
   92MOL   C11734879   0.842   3.353   3.436  0.0521 -0.2873 -0.1877
   92MOL   C11834880   0.793   3.219   3.487 -0.3622 -0.0960 -0.7265
   92MOL   C11934881   0.914   3.178   3.576  0.0214 -0.2304  0.5807
   92MOL   C12034882   1.043   3.239   3.523 -0.1792 -0.0388  0.8411
   92MOL   C12134883   0.988   3.334   3.414 -0.0581  0.2631 -0.2562
   92MOL   C12234884   0.755   3.298   3.191  0.6088 -0.4404  0.0971
   92MOL   H12334885   0.842   3.470   3.253  0.3590 -1.6233 -1.2050
   92MOL   H12434886   0.819   3.424   3.515  0.9033  0.2288 -0.3961
   92MOL   H12534887   0.706   3.231   3.551 -1.2087  0.3516 -1.9503
   92MOL   H12634888   0.769   3.143   3.412  0.0987 -1.0406  0.0603
   92MOL   H12734889   0.922   3.071   3.593 -0.3647 -0.4135 -0.4085
   92MOL   H12834890   0.901   3.226   3.673 -1.6498 -0.7253  0.6028
   92MOL   H12934891   1.113   3.167   3.481  0.2919  0.3447  0.9624
   92MOL   H13034892   1.100   3.302   3.591  1.2535 -0.5900  0.1859
   92MOL   H13134893   1.042   3.429   3.421 -0.0813  0.1489  1.7475
   92MOL   H13234894   1.003   3.294   3.314  2.4635  0.2280  0.0913
   92MOL   H13334895   0.676   3.226   3.216  1.5503 -0.7027  2.3726
   92MOL   H13434896   0.838   3.230   3.172 -0.3183 -1.6008  0.0645
   92MOL   C13534897   0.725   3.353   3.048  0.4161  0.2055 -0.6247
   92MOL   C13634898   0.631   3.262   2.963  1.1238 -0.3763  0.1049
   92MOL   C13734899   0.486   3.259   3.022  0.1139 -0.0366 -0.0091
   92MOL   C13834900   0.430   3.140   2.951  0.8591 -0.3981  0.2262
   92MOL   C13934901   0.542   3.036   2.960 -0.2596 -0.3683 -0.5124
   92MOL   C14034902   0.677   3.111   2.951 -0.2825 -0.8120  0.5240
   92MOL   C14134903   0.859   3.386   2.981 -0.1912  0.2361  0.5647
   92MOL   H14234904   0.671   3.447   3.063 -1.5538 -0.6417 -2.1160
   92MOL   H14334905   0.616   3.301   2.863 -0.7260 -0.7677  0.2057
   92MOL   H14434906   0.495   3.245   3.129 -0.0521 -1.0989 -0.1223
   92MOL   H14534907   0.434   3.352   2.999  0.2746  0.4278  1.4764
   92MOL   H14634908   0.403   3.161   2.848 -0.5897  2.8061  1.2045
   92MOL   H14734909   0.338   3.105   2.996  0.3723  0.4526 -0.0935
   92MOL   H14834910   0.539   2.954   2.888  0.7052 -0.4024 -0.5097
   92MOL   H14934911   0.533   2.986   3.056  0.5167 -0.6164 -0.5722
   92MOL   H15034912   0.755   3.069   3.014 -0.5688 -0.8175  0.8743
   92MOL   H15134913   0.713   3.101   2.849  0.5496 -0.9284  0.8251
   92MOL   H15234914   0.913   3.296   2.951  0.0187  0.6073 -0.1680
   92MOL   H15334915   0.920   3.426   3.061  2.1457 -1.6238 -0.2092
   92MOL   C15434916   0.866   3.484   2.862  0.2248 -0.9527  0.1415
   92MOL   C15534917   0.930   3.619   2.889  0.7982 -0.2279 -0.5459
   92MOL   C15634918   1.078   3.617   2.933  0.1784 -0.1131 -0.2700
   92MOL   C15734919   1.083   3.728   3.043  0.7381  0.3698  0.1631
   92MOL   C15834920   0.950   3.803   3.041 -0.8204  0.4371 -0.1349
   92MOL   C15934921   0.850   3.709   2.987 -0.1792  0.4724  0.2646
   92MOL   C16034922   0.939   3.414   2.746 -0.8482  0.4710 -0.3818
   92MOL   H16134923   0.764   3.515   2.839  0.8653  0.5412 -0.6748
   92MOL   H16234924   0.915   3.673   2.795 -0.7079 -3.0285 -1.9677
   92MOL   H16334925   1.107   3.521   2.977  0.0933  0.2324  0.5562
   92MOL   H16434926   1.144   3.631   2.848 -2.3761 -1.5129 -2.5471
   92MOL   H16534927   1.098   3.679   3.139  1.8044  0.0078 -0.1739
   92MOL   H16634928   1.170   3.791   3.021  1.6245 -0.8281  0.1254
   92MOL   H16734929   0.950   3.885   2.969  0.9474 -1.6238 -2.5905
   92MOL   H16834930   0.928   3.829   3.145 -0.6328  4.3451 -0.9798
   92MOL   H16934931   0.763   3.759   2.946  0.7160  1.4199 -0.5212
   92MOL   H17034932   0.805   3.649   3.066  1.6447 -4.3651 -2.1586
   92MOL   H17134933   0.903   3.311   2.736 -0.9574  0.4993 -0.2746
   92MOL   H17234934   1.040   3.397   2.785 -1.5059 -0.6209  0.9123
   92MOL   C17334935   0.950   3.488   2.610  0.1076  0.3320  0.6460
   92MOL   C17434936   0.804   3.519   2.546 -0.8972  0.0610 -0.7441
   92MOL   C17534937   0.727   3.386   2.506  0.0386 -0.2426  0.2458
   92MOL   C17634938   0.693   3.398   2.361 -0.0579 -0.1071 -0.4112
   92MOL   C17734939   0.699   3.549   2.326  0.2149  0.1398  0.5877
   92MOL   C17834940   0.794   3.620   2.425 -0.0252  0.0542  0.1962
   92MOL   C17934941   1.046   3.413   2.509  0.6371  0.0137 -0.8442
   92MOL   H18034942   1.001   3.582   2.633  1.2799 -0.5871  1.9090
   92MOL   H18134943   0.749   3.574   2.622 -0.5379 -0.4611 -0.1016
   92MOL   H18234944   0.643   3.380   2.575  2.0911  0.9123  2.9371
   92MOL   H18334945   0.777   3.294   2.535  1.2443  0.4090  0.2539
   92MOL   H18434946   0.762   3.332   2.309  0.4725  0.9836 -1.1370
   92MOL   H18534947   0.591   3.362   2.347  0.2929 -1.3741  0.2335
   92MOL   H18634948   0.598   3.590   2.328  0.4780  0.8596 -0.5450
   92MOL   H18734949   0.719   3.562   2.220 -0.6596 -0.2593  0.3625
   92MOL   H18834950   0.892   3.625   2.377 -0.5421  2.6019 -0.6778
   92MOL   H18934951   0.753   3.721   2.437  0.7928  0.2945  1.0419
   92MOL   H19034952   1.025   3.307   2.519 -0.0678  0.2728  0.5330
   92MOL   H19134953   1.009   3.443   2.410 -1.9333  0.4384  0.1939
   92MOL   C19234954   1.192   3.445   2.525 -0.1620 -0.4757 -0.0072
   92MOL   C19334955   1.241   3.577   2.452  0.2046  0.2184 -0.5640
   92MOL   C19434956   1.236   3.572   2.305  0.2220 -0.5769  0.3042
   92MOL   C19534957   1.332   3.691   2.259  0.5727 -0.1774 -0.2147
   92MOL   C19634958   1.437   3.709   2.374 -0.8013  0.6536  0.9478
   92MOL   C19734959   1.385   3.631   2.492  0.3013  0.0761 -0.3786
   92MOL   C19834960   1.270   3.318   2.486 -0.0964  0.2169  0.2335
   92MOL   H19934961   1.193   3.463   2.633  0.1196 -1.5948  0.1790
   92MOL   H20034962   1.172   3.656   2.482  0.0378 -1.5840  4.1971
   92MOL   H20134963   1.136   3.577   2.263  0.1947 -0.0784  0.4252
   92MOL   H20234964   1.283   3.486   2.257  0.4239 -0.9743  1.2107
   92MOL   H20334965   1.374   3.682   2.159  0.5650  1.7843 -0.3971
   92MOL   H20434966   1.268   3.779   2.254  0.3350 -0.3597 -0.3958
   92MOL   H20534967   1.458   3.815   2.388 -0.5783  0.7630 -0.1492
   92MOL   H20634968   1.528   3.659   2.340  0.1388  2.5591  0.5921
   92MOL   H20734969   1.375   3.712   2.565 -2.8232  1.3702 -2.1385
   92MOL   H20834970   1.454   3.557   2.532  1.1433  1.1624  0.2302
   92MOL   H20934971   1.213   3.276   2.402 -4.0724  1.6903  2.0943
   92MOL   H21034972   1.370   3.344   2.452  0.3330 -0.0143  1.3078
   92MOL   C21134973   1.287   3.220   2.605  0.4594  0.1672  0.4851
   92MOL   C21234974   1.256   3.075   2.558  0.3012 -0.1040 -0.0107
   92MOL   C21334975   1.115   3.035   2.520  0.5340  0.0403  0.0054
   92MOL   C21434976   1.122   2.910   2.434 -0.1383  0.4831  0.1437
   92MOL   C21534977   1.254   2.933   2.367 -0.4321 -0.3822 -0.1860
   92MOL   C21634978   1.343   3.023   2.450 -0.1315 -0.7121  0.4341
   92MOL   C21734979   1.422   3.239   2.680 -0.5685 -0.0866 -1.1995
   92MOL   H21834980   1.204   3.249   2.668 -0.4846 -1.4192 -0.0052
   92MOL   H21934981   1.270   3.010   2.643 -1.7247 -2.1888 -1.2255
   92MOL   H22034982   1.054   3.014   2.608  0.6204 -1.5275 -0.2909
   92MOL   H22134983   1.065   3.112   2.460  1.3729 -1.5269 -2.7797
   92MOL   H22234984   1.134   2.822   2.496 -1.8245 -0.2105 -0.4847
   92MOL   H22334985   1.040   2.897   2.362 -1.3367  1.1336  1.3756
   92MOL   H22434986   1.229   2.993   2.279  3.4341  2.8611  0.7998
   92MOL   H22534987   1.306   2.844   2.331  1.0747  0.4635 -0.1337
   92MOL   H22634988   1.427   2.964   2.487  0.8523 -0.9084 -2.0179
   92MOL   H22734989   1.389   3.100   2.389 -0.5153 -1.1977 -0.4680
   92MOL   H22834990   1.461   3.340   2.667  1.8732 -0.6706  1.0814
   92MOL   H22934991   1.502   3.188   2.626  1.2589  1.7576 -0.3201
   92MOL   C23034992   1.427   3.194   2.827 -0.7195  0.1318 -0.0398
   92MOL   C23134993   1.366   3.309   2.921  0.0326 -0.1356  0.0483
   92MOL   C23234994   1.332   3.272   3.068  0.2907  0.1184 -0.5742
   92MOL   C23334995   1.345   3.397   3.152 -0.2739  0.0768 -0.3352
   92MOL   C23434996   1.387   3.510   3.055  0.5731  0.2411  0.7928
   92MOL   C23534997   1.452   3.442   2.933 -0.5859 -0.5601 -0.9215
   92MOL   C23634998   1.571   3.175   2.869  0.0558 -0.5664 -0.2682
   92MOL   H23734999   1.364   3.107   2.844  0.7452 -0.7064  1.2077
   92MOL   H23835000   1.267   3.334   2.884 -0.3875 -1.5247  0.2202
   92MOL   H23935001   1.232   3.235   3.091  0.0624  0.6133 -0.7451
   92MOL   H24035002   1.395   3.196   3.113  0.1880 -0.0260 -0.6768
   92MOL   H24135003   1.246   3.416   3.192 -1.0117 -0.6060 -1.7712
   92MOL   H24235004   1.415   3.381   3.234 -2.6801 -0.1195  1.7224
   92MOL   H24335005   1.465   3.568   3.104  0.6496 -0.2323  1.2329
   92MOL   H24435006   1.310   3.576   3.016  2.9707  3.1291  0.7974
   92MOL   H24535007   1.559   3.442   2.949 -0.6183  2.9968 -0.4927
   92MOL   H24635008   1.449   3.508   2.846  2.1094 -1.3669 -1.6860
   92MOL   H24735009   1.590   3.177   2.977  2.5420 -1.8857 -0.6446
   92MOL   H24835010   1.635   3.258   2.839 -0.1148 -0.3677 -0.0890
   92MOL   C24935011   1.636   3.047   2.808  0.3554  0.2077  0.3168
   92MOL   C25035012   1.645   2.927   2.912 -0.4460 -0.4379  0.2185
   92MOL   C25135013   1.648   2.790   2.844 -0.4291 -0.0864  0.0331
   92MOL   C25235014   1.538   2.707   2.907 -0.1403  0.9869  0.2550
   92MOL   C25335015   1.535   2.763   3.051 -0.2505  0.0434 -0.2787
   92MOL   C25435016   1.533   2.919   3.024  0.1909 -0.3265 -0.0140
   92MOL   C25535017   1.779   3.082   2.755 -0.5470 -0.3218  0.2647
   92MOL   H25635018   1.565   3.012   2.733 -0.2191 -0.2236  1.0552
   92MOL   H25735019   1.737   2.933   2.970 -1.2748  0.9611  1.4304
   92MOL   H25835020   1.739   2.731   2.854 -1.4500 -1.6738  0.1434
   92MOL   H25935021   1.619   2.785   2.739  0.3831 -0.7717 -0.1730
   92MOL   H26035022   1.563   2.603   2.927 -0.3988  1.0805  1.0855
   92MOL   H26135023   1.436   2.721   2.870 -0.3821  0.4352  0.7178
   92MOL   H26235024   1.621   2.733   3.111 -0.3986  1.5504  0.6908
   92MOL   H26335025   1.443   2.729   3.099 -0.0334 -0.1827 -0.0191
   92MOL   H26435026   1.555   2.979   3.113 -0.2320 -1.0833  0.6079
   92MOL   H26535027   1.437   2.956   2.985 -0.2437 -1.2266  0.1940
   92MOL   H26635028   1.841   3.131   2.830 -2.0977 -0.1339  1.4432
   92MOL   H26735029   1.827   2.986   2.739 -0.1852 -0.1923  0.5655
   92MOL   C26835030   1.794   3.157   2.615 -0.6256 -0.5759 -0.0969
   92MOL   C26935031   1.731   3.081   2.496  0.2239 -0.0411 -0.1218
   92MOL   C27035032   1.803   2.958   2.455  0.7012 -0.3662 -0.4964
   92MOL   C27135033   1.765   2.941   2.304 -0.2392  0.9803  0.2411
   92MOL   C27235034   1.732   3.073   2.244  0.4619 -0.1170  0.1203
   92MOL   C27335035   1.709   3.168   2.369 -0.0544 -0.3097  0.6242
   92MOL   C27435036   1.936   3.200   2.588 -0.0375 -0.8344 -0.5724
   92MOL   H27535037   1.727   3.242   2.627 -0.0586 -0.0668 -0.5329
   92MOL   H27635038   1.634   3.039   2.523 -0.5419  1.0399 -1.1230
   92MOL   H27735039   1.908   2.967   2.483  0.2304 -0.3262  1.3271
   92MOL   H27835040   1.762   2.873   2.510  1.2519  0.8412  1.8659
   92MOL   H27935041   1.845   2.897   2.245  0.2188  1.9813  0.1109
   92MOL   H28035042   1.679   2.873   2.302  0.3077  0.2965 -0.3027
   92MOL   H28135043   1.642   3.064   2.184 -0.1106  1.1613  0.7607
   92MOL   H28235044   1.809   3.113   2.179  2.0900  1.7505  3.0897
   92MOL   H28335045   1.606   3.202   2.365 -1.2731 -3.9082 -0.3267
   92MOL   H28435046   1.775   3.255   2.369  0.0780 -0.4139  1.2484
   92MOL   H28535047   1.945   3.230   2.484 -0.4393  0.5169 -0.2313
   92MOL   H28635048   1.997   3.112   2.610  0.0816 -0.8015 -0.7737
   92MOL   C28735049   1.992   3.314   2.681 -0.0599  0.3105  0.0083
   92MOL   C28835050   2.142   3.322   2.667 -0.3704 -0.1158  0.4104
   92MOL   C28935051   2.230   3.199   2.707 -0.7447 -0.3439 -0.7053
   92MOL   C29035052   2.366   3.237   2.650 -0.3615 -0.2491  0.0894
   92MOL   C29135053   2.345   3.330   2.532  0.3569  0.4591  0.7520
   92MOL   C29235054   2.192   3.360   2.523 -0.0708  0.0199 -0.8191
   92MOL   C29335055   1.915   3.443   2.637 -0.3685  0.1609  0.6338
   92MOL   H29435056   1.966   3.285   2.782 -0.7062 -3.0766 -1.0803
   92MOL   H29535057   2.176   3.401   2.733  1.9002  0.4006 -1.2962
   92MOL   H29635058   2.232   3.199   2.816  0.9518 -2.7716 -0.7231
   92MOL   H29735059   2.205   3.097   2.679  2.2979 -1.5571  0.7709
   92MOL   H29835060   2.429   3.282   2.727 -0.3754 -0.7344  0.3870
   92MOL   H29935061   2.414   3.147   2.612  2.3767  2.0242 -2.0255
   92MOL   H30035062   2.362   3.282   2.435  3.8795  0.0695  1.4870
   92MOL   H30135063   2.415   3.413   2.538 -0.7485  1.4476 -0.0724
   92MOL   H30235064   2.152   3.302   2.440  2.1365 -1.1039 -1.1342
   92MOL   H30335065   2.175   3.463   2.491  1.6174  0.4700 -0.3059
   92MOL   H30435066   1.806   3.439   2.630 -0.4089 -0.5011  1.6552
   92MOL   H30535067   1.934   3.454   2.530  0.4494 -1.9538  0.5352
   92MOL   C30635068   1.937   3.569   2.726  0.8027  0.0737 -0.1723
   92MOL   C30735069   1.889   3.692   2.641 -0.0894  0.2619  0.4147
   92MOL   C30835070   1.742   3.717   2.617  0.3933  1.1191  0.3590
   92MOL   C30935071   1.725   3.866   2.594 -0.1539 -0.0538 -0.2347
   92MOL   C31035072   1.859   3.931   2.630  0.3135  0.0801 -0.3620
   92MOL   C31135073   1.940   3.823   2.701 -0.1946 -0.5891 -0.2881
   92MOL   C31235074   1.885   3.558   2.864 -0.3340  0.1368  0.6050
   92MOL   H31335075   2.045   3.589   2.724  1.1878 -1.9011 -0.7952
   92MOL   H31435076   1.935   3.672   2.544 -1.6606 -2.3252  0.1735
   92MOL   H31535077   1.676   3.684   2.697  1.2569 -2.5171 -0.3254
   92MOL   H31635078   1.715   3.651   2.535 -2.3050  2.6543 -0.0556
   92MOL   H31735079   1.701   3.897   2.493 -2.8634  1.2379  0.7405
   92MOL   H31835080   1.648   3.906   2.660  0.7761 -0.1010  0.9094
   92MOL   H31935081   1.855   4.028   2.680  2.5178  0.5850 -1.1012
   92MOL   H32035082   1.922   3.950   2.543  0.4016  0.9630 -0.1063
   92MOL   H32135083   2.045   3.849   2.710 -0.1511 -0.9153  0.1208
   92MOL   H32235084   1.910   3.828   2.806 -1.2413  0.7435 -0.6230
   92MOL   H32335085   1.813   3.477   2.858 -0.6245  0.3735  0.8048
   92MOL   H32435086   1.839   3.653   2.894  0.5972  0.3592  1.3609
   92MOL   C32535087   2.001   3.527   2.967  0.5155  0.1534 -0.1880
   92MOL   C32635088   1.934   3.473   3.098 -0.0724 -0.4105  0.4026
   92MOL   C32735089   1.909   3.325   3.097  0.3108 -0.2021 -0.6626
   92MOL   C32835090   1.812   3.295   3.213 -0.0447  0.3228  0.6193
   92MOL   C32935091   1.734   3.432   3.234  1.3595 -0.0128  0.3250
   92MOL   C33035092   1.811   3.542   3.161  0.6063  0.4826  0.3860
   92MOL   C33135093   2.097   3.647   2.993 -0.8363  0.1118  0.0399
   92MOL   H33235094   2.059   3.446   2.923 -0.0466 -0.9190  1.0275
   92MOL   H33335095   2.015   3.488   3.170  1.0914 -1.9788 -0.5518
   92MOL   H33435096   2.002   3.270   3.112  0.5013  0.8071  2.1360
   92MOL   H33535097   1.867   3.299   2.999 -0.2988 -0.3280 -0.3716
   92MOL   H33635098   1.877   3.283   3.300  0.7543  1.4014  0.1827
   92MOL   H33735099   1.751   3.207   3.193 -0.2431  0.0663  2.2966
   92MOL   H33835100   1.730   3.447   3.342 -0.1387 -1.0166  0.4335
   92MOL   H33935101   1.631   3.439   3.198  0.9455  0.7898  1.6257
   92MOL   H34035102   1.853   3.618   3.228  3.0664  0.8123 -1.4451
   92MOL   H34135103   1.745   3.583   3.085  1.9612  0.7774 -0.6567
   92MOL   H34235104   2.050   3.712   3.067 -0.1921 -0.7634  1.2592
   92MOL   H34335105   2.107   3.716   2.910 -1.3125  0.5630  0.3563
   92MOL   C34435106   2.239   3.603   3.042  0.3603  0.8319 -0.3291
   92MOL   C34535107   2.291   3.677   3.175 -0.2401  0.0563  1.0353
   92MOL   C34635108   2.434   3.647   3.225  0.6908 -0.1895  0.4635
   92MOL   C34735109   2.427   3.688   3.376 -0.4310  0.5687 -0.3753
   92MOL   C34835110   2.276   3.675   3.423 -1.3536 -0.4269  0.0016
   92MOL   C34935111   2.199   3.630   3.293 -0.7447  0.1526 -0.6224
   92MOL   C35035112   2.346   3.602   2.925  0.4661 -0.5214  0.6002
   92MOL   H35135113   2.224   3.497   3.062 -2.0766  1.2181  0.0361
   92MOL   H35235114   2.273   3.784   3.173 -1.6065 -0.1815  0.4584
   92MOL   H35335115   2.501   3.714   3.170  2.4893 -2.8390 -0.6557
   92MOL   H35435116   2.469   3.545   3.210  1.6854  0.5475 -2.7710
   92MOL   H35535117   2.492   3.618   3.429 -2.3144  0.2897  1.6899
   92MOL   H35635118   2.464   3.790   3.385 -0.1500  0.6164 -1.9011
   92MOL   H35735119   2.232   3.770   3.452 -1.6558 -0.9591  1.3637
   92MOL   H35835120   2.270   3.610   3.511  0.3866 -0.9473 -0.2494
   92MOL   H35935121   2.183   3.523   3.297 -4.1844  0.5542 -1.4830
   92MOL   H36035122   2.101   3.680   3.292 -1.5587 -1.2666  2.1760
   92MOL   H36135123   2.323   3.536   2.842  0.6048  0.3579 -0.1442
   92MOL   H36235124   2.431   3.550   2.968  0.7504 -1.2084 -0.7819
   92MOL   C36335125   2.402   3.733   2.876 -0.4753 -0.1018  0.2764
   92MOL   C36435126   2.554   3.722   2.847 -0.5949  0.4882 -0.4950
   92MOL   C36535127   2.626   3.865   2.854  0.3302  0.1191 -0.7118
   92MOL   C36635128   2.744   3.860   2.761  0.2612 -0.3092 -0.5981
   92MOL   C36735129   2.738   3.725   2.688 -0.1056  0.6270 -0.8685
   92MOL   C36835130   2.590   3.669   2.718  0.3492 -0.4424  0.1581
   92MOL   C36935131   2.321   3.800   2.758 -1.1305 -0.2492  0.3623
   92MOL   H37035132   2.388   3.800   2.961 -0.2074 -0.3995  0.5562
   92MOL   H37135133   2.603   3.658   2.920 -2.0772  0.0426  0.1287
   92MOL   H37235134   2.570   3.953   2.826  1.7060  0.6495 -1.8406
   92MOL   H37335135   2.656   3.880   2.958  0.1388 -0.5589 -0.5562
   92MOL   H37435136   2.731   3.936   2.683  0.6870 -1.8292 -2.1763
   92MOL   H37535137   2.837   3.880   2.814  0.6154  1.1291 -1.7125
   92MOL   H37635138   2.765   3.740   2.583  0.7053 -0.0820 -0.7740
   92MOL   H37735139   2.810   3.653   2.728 -1.3006  0.1787  0.5194
   92MOL   H37835140   2.578   3.560   2.714 -1.1131 -0.3009  0.2685
   92MOL   H37935141   2.524   3.693   2.635 -2.2004 -1.9167  1.6908
   92MOL   H38035142   2.379   3.875   2.704  0.1357 -1.4691 -0.0112
   92MOL   H38135143   2.238   3.856   2.800  0.4364 -0.2692  3.6514
   92MOL   H38235144   2.283   3.724   2.690 -0.9872 -0.1470  0.1661
   93MOL     C135145   2.878   0.531   7.688 -0.5078  0.2755  0.3234
   93MOL     C235146   2.950   0.409   0.045  0.5546 -0.0269  0.0318
   93MOL     C335147   2.915   0.378   0.190 -0.2014  0.3010 -1.0892
   93MOL     C435148   3.031   0.308   0.264 -0.8985  0.1160 -0.2335
   93MOL     C535149   3.142   0.321   0.152 -0.3372 -0.4259 -0.6372
   93MOL     C635150   3.101   0.427   0.056  0.3243  0.1637  0.1528
   93MOL     C735151   2.724   0.519   7.670 -0.4055 -0.6697 -0.2391
   93MOL     H835152   2.901   0.623   0.053  0.6090  1.1814 -1.6253
   93MOL     H935153   2.933   0.323   7.670 -2.3332 -1.1751  2.2101
   93MOL    H1035154   2.896   0.468   0.248 -0.2455 -0.1964 -0.3209
   93MOL    H1135155   2.827   0.314   0.198  0.5159 -0.5848  0.0829
   93MOL    H1235156   3.054   0.363   0.356  0.1329 -1.9112  0.7464
   93MOL    H1335157   2.997   0.211   0.299 -3.2801  1.7286  2.0470
   93MOL    H1435158   3.247   0.333   0.180 -0.5264 -0.0404 -0.0956
   93MOL    H1535159   3.121   0.233   0.092  0.9549 -1.8384  0.9416
   93MOL    H1635160   3.156   0.430   7.652  1.6591  1.6852  0.9645
   93MOL    H1735161   3.134   0.523   0.097  2.0174  1.0458 -3.1104
   93MOL    H1835162   2.709   0.480   7.569 -1.9813  0.9455 -0.6432
   93MOL    H1935163   2.685   0.446   0.051  1.5626 -1.8186 -0.3003
   93MOL    H2035164   2.932   0.551   7.595 -0.5740 -1.1547 -0.0235
   93MOL    C2135165   2.654   0.653   7.679  0.4058 -0.3836  0.0355
   93MOL    C2235166   2.638   0.690   0.135  0.0885 -0.6722  0.0692
   93MOL    C2335167   2.521   0.610   0.207 -0.1645  0.3240 -0.1236
   93MOL    C2435168   2.496   0.698   0.335  0.2845  0.0704  0.1625
   93MOL    C2535169   2.541   0.844   0.301  0.5636  0.5979  0.3054
   93MOL    C2635170   2.588   0.838   0.154 -0.2448 -0.0913  0.2710
   93MOL    C2735171   2.705   0.760   7.588 -0.4880  0.0212 -0.2922
   93MOL    H2835172   2.548   0.647   7.656  0.8160  0.3797 -2.1828
   93MOL    H2935173   2.733   0.679   0.187  0.9302 -0.7978 -1.4471
   93MOL    H3035174   2.558   0.509   0.225 -0.9271  0.1579  0.5309
   93MOL    H3135175   2.434   0.596   0.143 -2.1349 -0.2276  2.6147
   93MOL    H3235176   2.388   0.704   0.349  0.1859  1.9853 -1.1872
   93MOL    H3335177   2.546   0.671   0.428  0.4385 -1.5247 -0.3668
   93MOL    H3435178   2.627   0.878   0.358  0.6694 -0.5257  0.8294
   93MOL    H3535179   2.461   0.912   0.328  0.6579  1.0615 -0.5570
   93MOL    H3635180   2.676   0.901   0.149  0.2942 -0.8334  0.1966
   93MOL    H3735181   2.503   0.861   0.090 -1.7088 -2.8146  1.1406
   93MOL    H3835182   2.656   0.856   7.606 -1.8986 -0.6031 -0.7142
   93MOL    H3935183   2.807   0.778   7.621 -0.0800 -1.5725 -0.6282
   93MOL    C4035184   2.698   0.724   7.436 -0.5981  0.1575 -0.4045
   93MOL    C4135185   2.560   0.676   7.384  0.1059  0.6795 -0.6178
   93MOL    C4235186   2.556   0.601   7.247 -0.2580 -0.1708  0.7206
   93MOL    C4335187   2.408   0.612   7.194  0.4475  0.5158 -0.8015
   93MOL    C4435188   2.344   0.730   7.266 -0.0669  0.4965 -0.3199
   93MOL    C4535189   2.458   0.788   7.353  0.0025 -1.0418 -0.5698
   93MOL    C4635190   2.762   0.830   7.345  0.2530 -0.3504 -0.1735
   93MOL    H4735191   2.757   0.635   7.419  1.1657  1.2974 -0.4094
   93MOL    H4835192   2.526   0.610   7.464 -0.3208  0.5612 -0.8941
   93MOL    H4935193   2.583   0.497   7.263 -0.2559  0.3050  4.3042
   93MOL    H5035194   2.625   0.641   7.173  0.3926  0.4338  1.6428
   93MOL    H5135195   2.359   0.518   7.218  1.5241  0.3536  0.7892
   93MOL    H5235196   2.410   0.615   7.085  0.1016 -2.2626 -0.9343
   93MOL    H5335197   2.304   0.805   7.199  0.8757  2.4731  1.2690
   93MOL    H5435198   2.259   0.700   7.327  0.8639 -0.9125  0.3293
   93MOL    H5535199   2.490   0.870   7.289 -0.1205 -0.7931 -0.3099
   93MOL    H5635200   2.421   0.829   7.447 -0.5782 -2.7698 -0.0269
   93MOL    H5735201   2.786   0.767   7.259  1.4033 -1.4747  0.9532
   93MOL    H5835202   2.688   0.904   7.316  1.1434  1.1624  1.3706
   93MOL    C5935203   2.881   0.918   7.395 -0.1708 -0.2571  0.7064
   93MOL    C6035204   3.003   0.916   7.288 -0.6597  1.2890  0.6046
   93MOL    C6135205   2.979   0.979   7.153 -0.1837 -1.1685  0.3763
   93MOL    C6235206   3.037   0.885   7.043 -0.1531 -0.7617  0.0333
   93MOL    C6335207   3.117   0.777   7.117  0.1025  0.4667 -0.1034
   93MOL    C6435208   3.063   0.777   7.261  1.1407  0.1090  0.3601
   93MOL    C6535209   2.835   1.068   7.433 -0.5880  0.1347 -0.5083
   93MOL    H6635210   2.933   0.881   7.483  3.5524  1.6255 -0.5922
   93MOL    H6735211   3.089   0.958   7.339  0.2866  1.1276 -0.8377
   93MOL    H6835212   3.016   1.082   7.150 -1.5777 -0.6433  0.9068
   93MOL    H6935213   2.872   0.992   7.136 -0.1611 -1.3361  0.0979
   93MOL    H7035214   3.103   0.946   6.982  0.7108 -0.7316  0.9720
   93MOL    H7135215   2.958   0.835   6.987  0.3283  0.4737 -1.7681
   93MOL    H7235216   3.226   0.780   7.110  0.0033  0.6625 -1.7118
   93MOL    H7335217   3.090   0.683   7.068  0.2690 -0.1444  0.9607
   93MOL    H7435218   2.978   0.709   7.273  0.8613  0.2981 -0.5007
   93MOL    H7535219   3.135   0.748   7.337  0.2217  0.1731  1.2761
   93MOL    H7635220   2.748   1.055   7.497 -0.4394 -2.1207 -0.7225
   93MOL    H7735221   2.810   1.115   7.338  2.2410  1.7138 -0.5165
   93MOL    C7835222   2.937   1.156   7.514  0.4379 -0.9151  0.3674
   93MOL    C7935223   2.903   1.309   7.502  0.1920 -0.2580 -0.3707
   93MOL    C8035224   2.752   1.343   7.505 -0.1221 -0.1993  0.3218
   93MOL    C8135225   2.739   1.477   7.433 -0.1368 -0.0954 -0.2245
   93MOL    C8235226   2.886   1.519   7.381  0.3911  0.0004  0.1880
   93MOL    C8335227   2.959   1.382   7.377 -0.0457 -0.3492  0.3544
   93MOL    C8435228   2.955   1.098   7.662 -0.0201 -0.1415  0.5074
   93MOL    H8535229   3.033   1.149   7.462 -0.6703  1.6422 -2.1237
   93MOL    H8635230   2.958   1.352   7.586  0.7612 -2.3676  0.3659
   93MOL    H8735231   2.724   1.349   7.611 -0.0577  1.2857  0.2627
   93MOL    H8835232   2.691   1.262   7.465  2.2136 -2.3299  0.9320
   93MOL    H8935233   2.701   1.559   7.493  0.7368  0.2507 -0.1357
   93MOL    H9035234   2.674   1.462   7.347  2.3285 -1.1425 -1.9396
   93MOL    H9135235   2.876   1.577   7.289 -2.8311  1.3474  1.2996
   93MOL    H9235236   2.926   1.579   7.463 -0.5949  3.0813 -1.5061
   93MOL    H9335237   2.923   1.327   7.290 -0.9939 -1.3016  1.3256
   93MOL    H9435238   3.067   1.393   7.372  0.1129 -0.3719  3.0249
   93MOL    H9535239   2.891   1.011   7.681 -0.6647  0.0117 -0.9261
   93MOL    H9635240   2.924   1.177   0.041  1.5316 -0.1562  1.2383
   93MOL    C9735241   3.097   1.059   0.011  0.6339 -0.1108  0.1265
   93MOL    C9835242   3.099   0.987   0.149  0.1628  0.3288  0.3048
   93MOL    C9935243   3.013   1.048   0.262  0.2503  0.1981  0.9801
   93MOL   C10035244   3.013   0.944   0.371  0.1999  0.3590 -0.0901
   93MOL   C10135245   3.018   0.813   0.294 -0.0710  0.0007  0.0442
   93MOL   C10235246   3.066   0.834   0.152  0.4981  1.0338 -0.4368
   93MOL   C10335247   3.191   1.181   0.013 -0.1821 -0.3911  0.7062
   93MOL   H10435248   3.140   0.995   7.623  0.7435  0.6021 -0.4070
   93MOL   H10535249   3.201   0.989   0.185  0.6362  2.6535 -1.0633
   93MOL   H10635250   3.039   1.149   0.291  0.2638  0.1129  1.2684
   93MOL   H10735251   2.912   1.059   0.220  0.8826 -1.1713 -1.0214
   93MOL   H10835252   2.925   0.963   0.434  0.0046  0.3119 -0.3486
   93MOL   H10935253   3.107   0.956   0.424  0.2193 -1.7691  0.3908
   93MOL   H11035254   2.915   0.779   0.289  0.2189 -1.2553  2.1072
   93MOL   H11135255   3.074   0.730   0.337 -0.9750 -0.8168 -0.3357
   93MOL   H11235256   3.154   0.775   0.129 -0.9052 -1.2067 -0.2646
   93MOL   H11335257   2.988   0.807   0.080  0.3569 -2.4148  0.9146
   93MOL   H11435258   3.142   1.269   7.661  0.0712 -0.5223  0.1177
   93MOL   H11535259   3.224   1.205   0.114 -3.3902  2.8634  1.0812
   93MOL   C11635260   3.329   1.160   7.636  0.5244 -0.2390 -0.6090
   93MOL   C11735261   3.415   1.289   7.644 -0.1680 -0.2530 -0.2211
   93MOL   C11835262   3.375   1.408   7.548 -0.0260 -0.0055 -0.3803
   93MOL   C11935263   3.434   1.537   7.604 -0.7453 -0.7141  0.0001
   93MOL   C12035264   3.468   1.507   0.062  0.0720  0.0028 -0.3758
   93MOL   C12135265   3.431   1.361   0.094 -0.1431 -0.3802 -0.1734
   93MOL   C12235266   3.403   1.040   0.028 -0.7705  0.3415  0.0030
   93MOL   H12335267   3.319   1.141   7.530 -3.9661 -1.6781 -0.0334
   93MOL   H12435268   3.519   1.270   7.616  0.2832 -0.0290  1.2038
   93MOL   H12535269   3.420   1.392   7.450  3.3655 -0.9069  1.2336
   93MOL   H12635270   3.267   1.419   7.542  0.2537  2.2665 -1.8035
   93MOL   H12735271   3.373   1.625   7.582  0.4534 -0.5481 -2.8385
   93MOL   H12835272   3.522   1.558   7.545  0.6118 -2.3764  1.3679
   93MOL   H12935273   3.420   1.582   0.125 -0.4674 -0.3080 -0.4120
   93MOL   H13035274   3.576   1.514   0.069  0.1127  1.0090 -1.8176
   93MOL   H13135275   3.508   1.307   0.149 -0.3412 -2.3332 -1.7448
   93MOL   H13235276   3.339   1.357   0.152 -0.0943 -3.9090 -0.1851
   93MOL   H13335277   3.341   0.952   0.043 -2.3264  1.6676  1.6802
   93MOL   H13435278   3.435   1.078   0.125 -2.0344  0.8192  0.2525
   93MOL   C13535279   3.527   0.981   7.654  1.0234  1.0156  0.7597
   93MOL   C13635280   3.489   0.896   7.525 -0.2053  0.8096 -0.0788
   93MOL   C13735281   3.416   0.754   7.549  0.2116  0.5515 -0.3682
   93MOL   C13835282   3.498   0.651   7.466  0.9124 -0.2844  0.0790
   93MOL   C13935283   3.579   0.729   7.368  0.0170  0.0041  0.9936
   93MOL   C14035284   3.616   0.860   7.440  0.2308  0.2176 -0.1687
   93MOL   C14135285   3.607   0.909   0.073 -0.5681 -0.2256 -0.1524
   93MOL   H14235286   3.584   1.067   7.619  1.6604 -0.4247 -1.8597
   93MOL   H14335287   3.437   0.963   7.457  0.1476  0.6712 -0.4931
   93MOL   H14435288   3.419   0.730   7.655  0.8970 -0.0997 -0.5386
   93MOL   H14535289   3.307   0.751   7.538 -0.0298 -0.3692  1.9329
   93MOL   H14635290   3.439   0.571   7.422  0.8163 -0.5274  0.6397
   93MOL   H14735291   3.567   0.611   7.541 -0.2733 -0.7091  0.9445
   93MOL   H14835292   3.523   0.749   7.277  2.1966 -0.6711 -0.5448
   93MOL   H14935293   3.659   0.671   7.320 -1.2514 -1.3240  0.4556
   93MOL   H15035294   3.704   0.848   7.503 -0.4996 -2.7665  0.3580
   93MOL   H15135295   3.642   0.930   7.360 -0.5583  1.6684  0.8086
   93MOL   H15235296   3.660   0.830   0.020 -2.4026 -1.1885 -0.5973
   93MOL   H15335297   3.540   0.858   0.141 -2.0950  1.6214 -0.2409
   93MOL   C15435298   3.707   1.011   0.147  0.2965  0.5710 -0.0561
   93MOL   C15535299   3.717   0.984   0.294  0.3275 -0.1046 -0.6032
   93MOL   C15635300   3.786   0.853   0.336  0.4767  0.0044  0.6381
   93MOL   C15735301   3.768   0.850   0.486 -0.1820 -0.0904  0.4227
   93MOL   C15835302   3.641   0.928   0.517  0.6500 -0.0760  0.4900
   93MOL   C15935303   3.594   0.987   0.382 -0.3870 -0.9257 -0.3481
   93MOL   C16035304   3.836   1.024   0.068 -0.3071  0.0917  0.1430
   93MOL   H16135305   3.671   1.114   0.150  0.6420  0.7092 -0.4470
   93MOL   H16235306   3.782   1.065   0.326  1.2614 -0.8778 -0.5321
   93MOL   H16335307   3.750   0.765   0.283 -2.0706  0.8133  0.9615
   93MOL   H16435308   3.894   0.866   0.323  0.1364  1.2320 -1.1771
   93MOL   H16535309   3.768   0.751   0.531 -1.4347 -0.4257 -0.2936
   93MOL   H16635310   3.855   0.904   0.523 -0.0947 -0.4047  0.6788
   93MOL   H16735311   3.676   1.013   0.577  0.4198  0.8842 -0.7240
   93MOL   H16835312   3.557   0.883   0.570 -1.5708  0.1717 -2.7384
   93MOL   H16935313   3.539   1.081   0.390 -0.1026 -0.8341  0.5693
   93MOL   H17035314   3.528   0.914   0.334 -2.0215  0.0250  0.3997
   93MOL   H17135315   3.818   1.016   7.651 -0.8965 -0.2761  0.2679
   93MOL   H17235316   3.893   0.936   0.100 -0.1003 -0.0112 -0.5109
   93MOL   C17335317   3.910   1.155   0.097 -0.0993 -0.3905 -0.1007
   93MOL   C17435318   3.850   1.264   0.009 -0.7568  0.2727  0.4578
   93MOL   C17535319   3.867   1.259   7.545  0.0448  0.9428  0.7707
   93MOL   C17635320   3.876   1.405   7.494  0.3775  0.3223  0.9069
   93MOL   C17735321   3.947   1.479   7.611  0.5679  0.4446 -0.0852
   93MOL   C17835322   3.893   1.406   0.050 -0.1252 -0.3763  0.0827
   93MOL   C17935323   4.062   1.138   0.081  0.2202  0.4562 -0.2568
   93MOL   H18035324   3.888   1.193   0.197 -1.3996 -0.3637 -0.3865
   93MOL   H18135325   3.742   1.256   0.019 -0.6019 -1.7140  0.6118
   93MOL   H18235326   3.788   1.203   7.494  0.6859  0.0043  0.8016
   93MOL   H18335327   3.955   1.201   7.519 -0.7516 -0.7289  1.6560
   93MOL   H18435328   3.927   1.418   7.399 -0.2042  1.3547  0.7287
   93MOL   H18535329   3.769   1.427   7.490  0.6532  1.4076 -0.7855
   93MOL   H18635330   3.939   1.587   7.615 -0.2493  0.3531  1.1754
   93MOL   H18735331   4.056   1.470   7.613  0.8731  3.6809  2.0285
   93MOL   H18835332   3.962   1.413   0.134  0.9409 -0.3625 -0.7853
   93MOL   H18935333   3.803   1.461   0.077 -0.4982  0.2659 -2.3905
   93MOL   H19035334   4.076   1.091   7.673 -1.2770 -1.5848  0.4796
   93MOL   H19135335   4.101   1.239   0.071  1.6533 -0.3627 -3.6283
   93MOL   C19235336   4.127   1.059   0.202  0.2431  0.5162 -0.2919
   93MOL   C19335337   4.097   1.129   0.342 -0.2626  0.0311 -0.3345
   93MOL   C19435338   4.162   1.269   0.361 -0.3141 -0.1424 -0.3873
   93MOL   C19535339   4.156   1.299   0.510  0.1248 -0.6029  0.3770
   93MOL   C19635340   4.118   1.162   0.581  0.0497 -0.1178  0.0705
   93MOL   C19735341   4.137   1.054   0.471 -0.4733  0.5186 -1.1456
   93MOL   C19835342   4.277   1.024   0.188  0.1981 -0.1491  0.0222
   93MOL   H19935343   4.070   0.966   0.214  0.8982 -0.1438 -2.1232
   93MOL   H20035344   3.989   1.134   0.358 -0.1346  0.4475  0.4399
   93MOL   H20135345   4.111   1.344   0.301 -0.2209  1.0650  1.0284
   93MOL   H20235346   4.267   1.260   0.330 -0.6230  0.4133 -1.6471
   93MOL   H20335347   4.248   1.341   0.550  0.3204  1.2917 -1.9110
   93MOL   H20435348   4.083   1.377   0.531 -0.1601  0.0182 -2.6184
   93MOL   H20535349   4.014   1.142   0.606  0.8745 -1.3506  2.6622
   93MOL   H20635350   4.184   1.147   0.667  2.0576  2.9182 -0.8319
   93MOL   H20735351   4.077   0.965   0.486 -0.0670  0.5314  0.5839
   93MOL   H20835352   4.245   1.038   0.475 -0.8499 -1.6911  0.5817
   93MOL   H20935353   4.334   1.116   0.183  0.1839 -0.2813 -3.3397
   93MOL   H21035354   4.314   0.983   0.282  3.7102  2.1014 -0.3110
   93MOL   C21135355   4.307   0.930   0.067 -0.5653  0.3755 -0.8434
   93MOL   C21235356   4.456   0.919   0.027 -0.7616 -0.0032 -0.1665
   93MOL   C21335357   4.506   1.053   7.655  0.1738 -0.4508  0.2786
   93MOL   C21435358   4.657   1.056   7.689 -0.1200  0.5156  0.0668
   93MOL   C21535359   4.682   0.933   0.094  0.2731  0.3155  0.1002
   93MOL   C21635360   4.551   0.889   0.148  0.0981 -0.0136 -0.0860
   93MOL   C21735361   4.248   0.786   0.080 -0.4000 -0.3661 -0.5388
   93MOL   H21835362   4.265   0.977   7.668  1.5451  0.3377 -1.8848
   93MOL   H21935363   4.477   0.843   7.641  1.8351  0.3631  0.1249
   93MOL   H22035364   4.506   1.045   7.547 -0.7075 -1.0351  0.3070
   93MOL   H22135365   4.451   1.142   7.684  0.1250  0.1022 -1.4942
   93MOL   H22235366   4.726   1.056   7.604 -1.3917 -1.3951 -1.0005
   93MOL   H22335367   4.678   1.156   0.037 -0.8697 -0.0802  2.1329
   93MOL   H22435368   4.761   0.944   0.169 -2.2529  0.2371  2.8513
   93MOL   H22535369   4.722   0.853   0.031  0.1864 -1.4769  2.2752
   93MOL   H22635370   4.550   0.784   0.175 -1.8015  0.1425  0.4747
   93MOL   H22735371   4.527   0.944   0.239  0.2481  1.2299 -0.7757
   93MOL   H22835372   4.234   0.768   0.186 -1.1787 -1.4205 -0.7991
   93MOL   H22935373   4.325   0.710   0.066  1.5286  1.8682 -2.5855
   93MOL   C23035374   4.117   0.767   7.682 -0.1878  0.2534 -0.1082
   93MOL   C23135375   4.027   0.665   0.065  0.4590  0.2338 -0.1169
   93MOL   C23235376   3.893   0.633   7.678  0.4191 -0.5584 -0.1777
   93MOL   C23335377   3.899   0.490   7.632 -0.5156  0.3214 -0.6422
   93MOL   C23435378   3.978   0.431   0.060 -0.5562  0.3151  0.1320
   93MOL   C23535379   4.093   0.524   0.093  0.0319 -0.4369  0.1338
   93MOL   C23635380   4.156   0.721   7.541  0.5768  0.2956  0.8131
   93MOL   H23735381   4.061   0.861   7.682 -2.1965 -0.8424  3.7722
   93MOL   H23835382   4.010   0.706   0.165 -0.2480 -1.1282  0.3449
   93MOL   H23935383   3.815   0.654   0.062 -1.9700  1.0714 -3.0660
   93MOL   H24035384   3.869   0.695   7.592 -0.3549  0.0364  0.4562
   93MOL   H24135385   3.804   0.437   7.624 -0.4118  0.1460 -0.7080
   93MOL   H24235386   3.954   0.483   7.538  0.7723  1.9552 -0.0357
   93MOL   H24335387   4.002   0.328   0.035  1.2494  1.2240 -1.9214
   93MOL   H24435388   3.919   0.439   0.152 -0.6310  0.7395  0.0452
   93MOL   H24535389   4.176   0.506   0.025  0.5725  1.8802  0.1398
   93MOL   H24635390   4.136   0.524   0.194 -0.6738 -1.5654  0.4399
   93MOL   H24735391   4.072   0.673   7.492  0.9770 -0.6283  1.0258
   93MOL   H24835392   4.237   0.648   7.550  2.5463  2.3835  0.7443
   93MOL   C24935393   4.215   0.835   7.438  0.1992  0.5617  0.3536
   93MOL   C25035394   4.118   0.933   7.378  0.1379  0.1443 -0.4180
   93MOL   C25135395   4.002   0.866   7.303 -0.2898  0.0400  0.0217
   93MOL   C25235396   3.940   0.991   7.225  0.0391  0.4695 -0.4919
   93MOL   C25335397   4.043   1.098   7.220 -0.2029 -0.4227 -0.5567
   93MOL   C25435398   4.171   1.047   7.291  0.5333 -0.1782 -0.6450
   93MOL   C25535399   4.285   0.757   7.324 -0.0108  0.0620 -0.0164
   93MOL   H25635400   4.296   0.893   7.483  1.1955  0.4676 -1.2433
   93MOL   H25735401   4.075   0.977   7.468  1.1029 -0.9189  0.5760
   93MOL   H25835402   3.926   0.817   7.363  0.3646 -1.8294 -0.6343
   93MOL   H25935403   4.035   0.792   7.230 -0.0384  0.3604 -0.1896
   93MOL   H26035404   3.854   1.022   7.284  0.2127 -1.5574  0.8674
   93MOL   H26135405   3.915   0.973   7.120  2.1776  1.5737 -1.2167
   93MOL   H26235406   4.010   1.169   7.296 -0.0080 -2.4364  1.5050
   93MOL   H26335407   4.058   1.155   7.129 -0.2573 -0.5572 -0.6517
   93MOL   H26435408   4.227   1.125   7.342  0.5297 -0.7099  0.1791
   93MOL   H26535409   4.246   1.024   7.215  0.3448  0.5403 -1.0558
   93MOL   H26635410   4.214   0.687   7.280  0.6736 -0.6181 -0.0437
   93MOL   H26735411   4.297   0.835   7.248 -1.5770  1.4512  1.1196
   93MOL   C26835412   4.419   0.693   7.354  0.2280 -0.1192 -0.2460
   93MOL   C26935413   4.523   0.735   7.252 -0.7604 -0.6634 -0.6851
   93MOL   C27035414   4.541   0.889   7.244 -0.1768 -0.9383  0.9393
   93MOL   C27135415   4.607   0.915   7.109 -0.2461  0.1182  0.1735
   93MOL   C27235416   4.536   0.812   7.016 -0.7758  0.2484 -0.1609
   93MOL   C27335417   4.500   0.693   7.105  0.3645 -0.0810  0.4948
   93MOL   C27435418   4.408   0.538   7.368 -0.2540 -0.3806  0.0084
   93MOL   H27535419   4.456   0.721   7.453 -1.3066 -1.2352  0.6830
   93MOL   H27635420   4.617   0.691   7.284 -1.0802 -1.0158 -0.2396
   93MOL   H27735421   4.460   0.958   7.266  0.8320  0.8803 -0.9057
   93MOL   H27835422   4.609   0.915   7.326  1.6782 -1.4886 -0.3870
   93MOL   H27935423   4.599   1.019   7.078 -1.6529  0.2598  0.9768
   93MOL   H28035424   4.713   0.893   7.111 -0.5067 -1.3724 -1.3526
   93MOL   H28135425   4.599   0.792   6.930 -1.6573  0.3378 -0.8431
   93MOL   H28235426   4.442   0.859   6.984 -1.0887  1.3881  2.3161
   93MOL   H28335427   4.563   0.606   7.087 -1.0853 -1.2926  1.1121
   93MOL   H28435428   4.399   0.658   7.083 -0.0516 -0.2011  2.4267
   93MOL   H28535429   4.416   0.506   7.264 -1.0385 -1.7288  0.3489
   93MOL   H28635430   4.306   0.507   7.390 -0.6614  1.1432  0.3301
   93MOL   C28735431   4.517   0.465   7.452  0.0791 -0.6703  0.0111
   93MOL   C28835432   4.490   0.474   7.604 -0.7873 -0.7200 -0.4936
   93MOL   C28935433   4.414   0.349   7.647 -0.0252  0.4188 -0.7639
   93MOL   C29035434   4.435   0.340   0.110  0.3294  0.2376  0.1827
   93MOL   C29135435   4.530   0.454   0.156  0.4001  0.3371 -0.5542
   93MOL   C29235436   4.601   0.487   0.020  0.3415  0.2034  0.0804
   93MOL   C29335437   4.550   0.320   7.383  0.3533 -0.4128 -0.2754
   93MOL   H29435438   4.610   0.520   7.440  0.1387 -0.3305  1.9527
   93MOL   H29535439   4.416   0.554   7.614 -0.9903 -0.7970 -1.3700
   93MOL   H29635440   4.307   0.360   7.628 -0.9355 -2.1710  2.3569
   93MOL   H29735441   4.450   0.255   7.607 -0.7942 -0.0122 -0.4609
   93MOL   H29835442   4.343   0.324   0.167  0.0236 -0.1085 -0.3980
   93MOL   H29935443   4.503   0.256   0.127 -0.3478 -0.7469 -1.9060
   93MOL   H30035444   4.591   0.426   0.241  1.5782  0.2841 -1.4127
   93MOL   H30135445   4.475   0.539   0.196  1.2205  0.7127 -0.2255
   93MOL   H30235446   4.668   0.402   0.006 -1.4003 -1.4139  1.3922
   93MOL   H30335447   4.656   0.580   0.008 -0.3584  0.4854 -1.0289
   93MOL   H30435448   4.456   0.265   7.380  0.9112 -1.3494 -1.0600
   93MOL   H30535449   4.615   0.259   7.445  1.1494  0.3845 -0.3094
   93MOL   C30635450   4.615   0.321   7.240 -0.3905  0.0387  0.1399
   93MOL   C30735451   4.767   0.356   7.244  0.7725 -0.2519 -0.1966
   93MOL   C30835452   4.864   0.231   7.284  0.4060 -0.2667  0.6942
   93MOL   C30935453   4.979   0.238   7.186  0.4966 -0.1009  0.1239
   93MOL   C31035454   4.918   0.307   7.061  0.3740 -0.9744  0.0497
   93MOL   C31135455   4.821   0.409   7.113 -0.4625 -0.4745 -0.0597
   93MOL   C31235456   4.588   0.183   7.163 -0.1154 -0.4253  0.1917
   93MOL   H31335457   4.564   0.396   7.179  3.1907  2.6691  0.1620
   93MOL   H31435458   4.783   0.429   7.324  0.3937 -0.5685  0.1727
   93MOL   H31535459   4.823   0.132   7.267  0.5072 -0.2657  0.4339
   93MOL   H31635460   4.894   0.237   7.389  3.1658 -0.4859 -0.0342
   93MOL   H31735461   5.057   0.304   7.223  1.4117 -1.3781  0.4786
   93MOL   H31835462   5.024   0.141   7.171  1.5755  0.0607  2.1883
   93MOL   H31935463   4.875   0.223   7.007  0.7875 -0.8964 -0.4072
   93MOL   H32035464   4.995   0.342   6.992 -1.4552 -0.8711 -1.9781
   93MOL   H32135465   4.877   0.500   7.132 -0.7361 -0.0103 -1.3905
   93MOL   H32235466   4.738   0.431   7.045  0.6560 -1.5228 -1.8091
   93MOL   H32335467   4.632   0.109   7.229  1.0986 -0.0849 -0.2162
   93MOL   H32435468   4.656   0.188   7.077  0.4676 -1.1658  0.6077
   93MOL   C32535469   4.446   0.140   7.113 -0.3263 -0.1930 -0.0119
   93MOL   C32635470   4.436   7.683   7.092  0.6824  0.1126  0.2862
   93MOL   C32735471   4.425   7.608   7.230 -0.3365 -0.4543 -0.2393
   93MOL   C32835472   4.526   7.491   7.213  0.0276  0.1059 -0.4326
   93MOL   C32935473   4.547   7.475   7.063 -0.0373  0.0349  0.1202
   93MOL   C33035474   4.548   7.617   7.006 -0.0268 -1.2218 -0.6548
   93MOL   C33135475   4.413   0.232   6.991 -0.0380  0.1333  0.2960
   93MOL   H33235476   4.372   0.165   7.189  2.4008  1.2040  2.2825
   93MOL   H33335477   4.352   7.664   7.026  1.7887  1.2786 -1.5200
   93MOL   H33435478   4.320   7.578   7.237 -0.6998  0.1529 -2.4161
   93MOL   H33535479   4.454   7.664   7.319 -2.0749  1.2731 -0.7224
   93MOL   H33635480   4.493   7.409   7.275 -1.3035  1.0390  0.1006
   93MOL   H33735481   4.616   7.516   7.269 -0.5516  3.7876 -0.9768
   93MOL   H33835482   4.461   7.421   7.023 -1.7825  1.7703  1.4411
   93MOL   H33935483   4.633   7.416   7.030  0.0107 -0.5071  1.1741
   93MOL   H34035484   4.542   7.623   6.898  1.9037  1.2940 -0.6721
   93MOL   H34135485   4.651   7.648   7.023 -1.2512  1.7717  1.7371
   93MOL   H34235486   4.428   0.182   6.895 -1.5417  2.4120 -1.1819
   93MOL   H34335487   4.470   0.324   6.977 -2.9853  2.0135  0.2317
   93MOL   C34435488   4.259   0.275   6.981 -0.0312  0.2717 -0.0162
   93MOL   C34535489   4.203   0.342   6.843 -0.3313 -0.6201 -0.5134
   93MOL   C34635490   4.221   0.265   6.720  0.5445  0.1816  0.0844
   93MOL   C34735491   4.294   0.358   6.615  1.2733 -0.6418 -0.1600
   93MOL   C34835492   4.256   0.497   6.661 -1.0809  0.4278  0.2170
   93MOL   C34935493   4.248   0.486   6.815  0.4430 -0.2170  0.4050
   93MOL   C35035494   4.219   0.365   7.101 -0.2068 -0.1903  0.4297
   93MOL   H35135495   4.208   0.181   6.999  0.9933  0.4086  4.0888
   93MOL   H35235496   4.094   0.339   6.845 -0.2920 -3.7519 -0.9412
   93MOL   H35335497   4.123   0.226   6.693 -0.8688  2.9069  1.1459
   93MOL   H35435498   4.272   0.169   6.735 -0.2415 -0.0614  1.2891
   93MOL   H35535499   4.402   0.341   6.618  1.3433 -0.1261  0.2679
   93MOL   H35635500   4.263   0.336   6.513  1.5063  0.4622 -0.4789
   93MOL   H35735501   4.154   0.516   6.626 -0.7671  0.7592 -0.5185
   93MOL   H35835502   4.323   0.577   6.631  1.7508 -1.1788  2.0364
   93MOL   H35935503   4.349   0.489   6.856  0.6676  1.9130 -0.2293
   93MOL   H36035504   4.196   0.564   6.871 -0.2541  0.3893 -1.0768
   93MOL   H36135505   4.235   0.467   7.066 -0.1266 -1.1894 -2.6274
   93MOL   H36235506   4.287   0.360   7.185 -0.7318  0.8124  0.9258
   93MOL   C36335507   4.078   0.340   7.151 -0.7787  0.3085 -0.3212
   93MOL   C36435508   4.062   0.209   7.228  0.7360  0.2416  0.9906
   93MOL   C36535509   3.908   0.176   7.263  0.2457 -0.1040 -0.3028
   93MOL   C36635510   3.904   0.151   7.418 -0.4906 -0.1596  0.4950
   93MOL   C36735511   4.045   0.114   7.450  0.1222  0.4163 -0.2693
   93MOL   C36835512   4.133   0.204   7.360 -0.3876 -0.1303 -0.8518
   93MOL   C36935513   4.026   0.478   7.221 -0.8767 -0.1278  0.1188
   93MOL   H37035514   4.018   0.324   7.062 -0.9255 -0.2030 -0.1346
   93MOL   H37135515   4.099   0.125   7.169 -2.8292  1.2287 -2.8682
   93MOL   H37235516   3.832   0.235   7.213 -0.0814 -0.9261 -0.7811
   93MOL   H37335517   3.898   0.084   7.206  1.3176  0.5299 -1.5354
   93MOL   H37435518   3.871   0.240   7.472 -0.7165 -1.0719  1.8940
   93MOL   H37535519   3.834   0.069   7.436 -1.0632 -0.1891 -1.7121
   93MOL   H37635520   4.073   0.126   7.555  0.3357  1.7806 -0.4668
   93MOL   H37735521   4.061   0.010   7.423 -0.2917 -0.2043  1.8048
   93MOL   H37835522   4.234   0.167   7.343 -0.5255 -0.6127 -0.6432
   93MOL   H37935523   4.131   0.304   7.402  1.7267 -1.1894  1.8721
   93MOL   H38035524   4.028   0.560   7.149 -1.5588 -1.5827 -1.5941
   93MOL   H38135525   4.097   0.508   7.298  0.7048  0.7265 -1.6169
   93MOL   H38235526   3.920   0.469   7.245 -0.4010 -1.5591  1.7813
   94MOL     C135527   2.498   0.892   1.096  0.0407 -0.3932  0.7905
   94MOL     C235528   2.653   0.893   1.122 -0.1802  0.1703 -0.0007
   94MOL     C335529   2.746   0.805   1.025 -0.4945 -0.7203 -0.4243
   94MOL     C435530   2.881   0.815   1.112  0.1683 -0.6305 -0.9395
   94MOL     C535531   2.844   0.820   1.263 -0.2720  0.7135  0.2340
   94MOL     C635532   2.696   0.842   1.261 -0.2676  0.4858 -0.1416
   94MOL     C735533   2.415   0.990   1.177 -0.5948  0.1458 -0.2026
   94MOL     H835534   2.467   0.915   0.994 -0.9928  0.0053  1.1902
   94MOL     H935535   2.678   0.999   1.119 -0.5971  0.2473 -1.1051
   94MOL    H1035536   2.716   0.701   1.017  0.7338 -1.1271  0.0446
   94MOL    H1135537   2.750   0.857   0.929  1.0577  0.9971  0.5455
   94MOL    H1235538   2.957   0.740   1.091  1.4823  0.6695 -0.9177
   94MOL    H1335539   2.923   0.911   1.083  0.2226  0.1928  1.7274
   94MOL    H1435540   2.879   0.727   1.308  0.5375  1.3242  0.8857
   94MOL    H1535541   2.902   0.901   1.306  1.9795 -0.7791  0.1279
   94MOL    H1635542   2.656   0.895   1.348 -1.4519  0.4948 -0.6790
   94MOL    H1735543   2.653   0.743   1.272  0.2837  0.2109 -0.4528
   94MOL    H1835544   2.456   0.982   1.278 -2.7937  0.2815  0.7279
   94MOL    H1935545   2.420   1.095   1.145 -0.3593 -0.0754 -0.9055
   94MOL    H2035546   2.469   0.789   1.114 -2.6270 -0.3265 -2.7337
   94MOL    C2135547   2.264   0.958   1.182  0.3412  0.6097  0.2216
   94MOL    C2235548   2.189   1.024   1.303  0.7005  0.5351 -0.0455
   94MOL    C2335549   2.198   1.177   1.318 -0.6630 -1.4982  0.1037
   94MOL    C2435550   2.142   1.195   1.461 -0.1004 -0.0917  0.6338
   94MOL    C2535551   2.189   1.075   1.547  0.0557  0.6310  0.5240
   94MOL    C2635552   2.234   0.968   1.438  0.1704 -0.1187 -0.6801
   94MOL    C2735553   2.190   0.983   1.056  0.3710  0.4591  0.2590
   94MOL    H2835554   2.264   0.851   1.202  0.6388  0.4812 -0.4571
   94MOL    H2935555   2.082   1.001   1.306  0.7461  0.4214  0.8404
   94MOL    H3035556   2.131   1.231   1.251 -0.6742 -0.4876  0.9074
   94MOL    H3135557   2.301   1.211   1.310 -1.0916 -0.2922 -0.5623
   94MOL    H3235558   2.162   1.293   1.505 -1.1691  0.5845 -0.3504
   94MOL    H3335559   2.033   1.198   1.468 -0.1251 -0.6244  0.5309
   94MOL    H3435560   2.116   1.031   1.616 -0.9732  1.2189 -0.1640
   94MOL    H3535561   2.276   1.092   1.610 -0.8301 -1.5177  2.3867
   94MOL    H3635562   2.190   0.870   1.457  1.5233 -0.7620 -0.7798
   94MOL    H3735563   2.342   0.967   1.455 -0.0541  0.7645  0.8737
   94MOL    H3835564   2.212   1.089   1.043 -1.6109  1.1666  2.4053
   94MOL    H3935565   2.227   0.937   0.964 -0.3648  0.5962 -0.1113
   94MOL    C4035566   2.029   0.961   1.044  0.2543 -0.4178 -0.4350
   94MOL    C4135567   1.980   1.046   0.918  0.5429 -0.0165 -0.0003
   94MOL    C4235568   1.835   1.089   0.914 -0.3443 -0.4542 -0.3254
   94MOL    C4335569   1.820   1.146   0.769  0.4626 -0.8417 -0.3279
   94MOL    C4435570   1.919   1.064   0.689 -0.5532 -0.1931  1.3384
   94MOL    C4535571   1.997   0.978   0.780  0.4384  0.3777 -0.9098
   94MOL    C4635572   1.983   0.812   1.053 -0.5040 -0.5075 -0.0989
   94MOL    H4735573   1.975   1.010   1.125  0.3991  1.5487 -1.4838
   94MOL    H4835574   2.048   1.132   0.916  0.2607  0.2306  0.7843
   94MOL    H4935575   1.807   1.157   0.995  2.3381  0.8502 -0.4599
   94MOL    H5035576   1.768   1.003   0.925 -1.0949  0.2005  0.3221
   94MOL    H5135577   1.861   1.247   0.763 -1.3711  0.1237  2.2865
   94MOL    H5235578   1.718   1.147   0.732 -0.2896 -3.0661  1.5702
   94MOL    H5335579   1.858   1.007   0.618 -0.7064  2.4399 -0.7400
   94MOL    H5435580   1.973   1.143   0.637 -3.0653  0.6217 -0.1201
   94MOL    H5535581   1.951   0.880   0.788  0.6279  0.3716  0.0888
   94MOL    H5635582   2.103   0.970   0.756  0.6241  0.9510 -0.2828
   94MOL    H5735583   1.883   0.808   1.009 -0.7957 -0.7824  0.5841
   94MOL    H5835584   2.039   0.745   0.988  1.0102 -0.6572  1.3547
   94MOL    C5935585   1.971   0.752   1.193  0.3131  0.4812 -0.2948
   94MOL    C6035586   1.851   0.794   1.271 -0.4409 -0.3106 -0.1257
   94MOL    C6135587   1.857   0.772   1.429  0.4412  0.3947  0.1673
   94MOL    C6235588   1.734   0.689   1.459  0.7223  0.1503 -0.1887
   94MOL    C6335589   1.634   0.715   1.346  0.2887 -0.6960  0.3206
   94MOL    C6435590   1.718   0.735   1.222  0.0286 -0.1303 -0.3582
   94MOL    C6535591   2.005   0.597   1.192 -0.2597  0.7117 -0.0363
   94MOL    H6635592   2.057   0.802   1.238  0.7119 -0.9896  0.6061
   94MOL    H6735593   1.844   0.902   1.258  2.4561 -0.0148  0.3650
   94MOL    H6835594   1.838   0.862   1.487 -2.6984  0.1689 -0.4424
   94MOL    H6935595   1.955   0.735   1.459  2.8517  4.4754 -2.0726
   94MOL    H7035596   1.690   0.715   1.555  2.0877  0.2209  0.4222
   94MOL    H7135597   1.767   0.585   1.468  1.2253 -0.0629 -3.7096
   94MOL    H7235598   1.576   0.804   1.373  1.3473  0.1383 -0.0948
   94MOL    H7335599   1.561   0.635   1.339 -0.5186 -0.0108  0.7145
   94MOL    H7435600   1.736   0.637   1.177  1.4788  0.6868 -1.5903
   94MOL    H7535601   1.662   0.799   1.154  1.9445  1.4353 -0.4925
   94MOL    H7635602   1.925   0.548   1.138  1.2270 -0.1073 -1.5163
   94MOL    H7735603   1.987   0.560   1.293 -0.4322  2.5338  0.6288
   94MOL    C7835604   2.141   0.552   1.140 -0.2202  0.1492  0.2500
   94MOL    C7935605   2.229   0.477   1.240  0.1860 -0.1207 -0.6917
   94MOL    C8035606   2.185   0.343   1.283  0.1474 -0.4799  0.2237
   94MOL    C8135607   2.245   0.317   1.417 -1.1073 -1.2885  0.4707
   94MOL    C8235608   2.266   0.453   1.487  0.0727 -0.9406  0.7682
   94MOL    C8335609   2.252   0.561   1.373 -0.0816  0.0984 -0.1025
   94MOL    C8435610   2.116   0.465   1.014  0.0338  0.6627  0.6691
   94MOL    H8535611   2.192   0.643   1.110  1.1846 -0.7023 -0.0068
   94MOL    H8635612   2.329   0.465   1.197  1.4719  0.5859  1.9372
   94MOL    H8735613   2.220   0.269   1.211 -2.2124 -1.0987 -0.3278
   94MOL    H8835614   2.076   0.348   1.294  0.2324  1.3806  0.2504
   94MOL    H8935615   2.346   0.277   1.414  0.5596  2.7501 -0.9348
   94MOL    H9035616   2.182   0.255   1.480 -0.6137 -1.0833  1.1781
   94MOL    H9135617   2.196   0.467   1.570  0.7838  1.2178  1.0479
   94MOL    H9235618   2.368   0.450   1.523  0.1928  1.7943  0.7424
   94MOL    H9335619   2.167   0.624   1.399 -1.1598 -0.7400 -1.5032
   94MOL    H9435620   2.342   0.620   1.360 -1.1478  1.9147  0.5872
   94MOL    H9535621   2.047   0.516   0.946  1.3853  1.7875  0.1084
   94MOL    H9635622   2.077   0.369   1.046  2.2220 -1.0537 -1.6348
   94MOL    C9735623   2.241   0.434   0.920 -0.1050  0.7656  0.3455
   94MOL    C9835624   2.311   0.563   0.873  0.2596  0.2099  0.0321
   94MOL    C9935625   2.445   0.539   0.793  0.3466 -0.4620 -0.1253
   94MOL   C10035626   2.461   0.668   0.715 -0.0670 -0.3093  0.1796
   94MOL   C10135627   2.316   0.695   0.669  0.3735 -0.8102 -0.2268
   94MOL   C10235628   2.229   0.658   0.791  0.0017 -0.5153  0.2228
   94MOL   C10335629   2.202   0.332   0.809 -0.1628 -1.2853  0.1331
   94MOL   H10435630   2.312   0.383   0.985 -0.4084 -0.5608 -0.3510
   94MOL   H10535631   2.347   0.619   0.959  1.7771 -1.1582  0.3145
   94MOL   H10635632   2.522   0.523   0.869 -1.6185 -1.9907  1.5957
   94MOL   H10735633   2.438   0.446   0.736 -2.1857  0.7631 -1.8698
   94MOL   H10835634   2.526   0.648   0.630 -2.7948  1.1292 -2.3511
   94MOL   H10935635   2.506   0.745   0.777  2.1757  1.1543 -3.0713
   94MOL   H11035636   2.299   0.625   0.586  1.4719 -1.8248  0.3890
   94MOL   H11135637   2.301   0.795   0.628 -1.1121 -0.2122  1.7703
   94MOL   H11235638   2.217   0.746   0.854 -0.2970 -1.2693  1.2384
   94MOL   H11335639   2.130   0.618   0.768 -1.2672  2.3138  0.5243
   94MOL   H11435640   2.097   0.314   0.830 -0.2142 -0.1496  0.9394
   94MOL   H11535641   2.202   0.379   0.711  1.3873  1.4228  1.3506
   94MOL   C11635642   2.266   0.193   0.796  0.0786 -0.1093  0.5545
   94MOL   C11735643   2.225   0.110   0.916 -0.2117 -0.6399  0.3692
   94MOL   C11835644   2.080   0.071   0.941 -0.1853 -0.6403  0.2030
   94MOL   C11935645   2.089   7.675   1.071 -0.1366  0.1351  0.0192
   94MOL   C12035646   2.213   7.599   1.041  0.2503  0.3978  0.1944
   94MOL   C12135647   2.301   7.672   0.932  0.0789  0.7384  0.0445
   94MOL   C12235648   2.223   0.116   0.660 -0.2326 -0.0992  0.4273
   94MOL   H12335649   2.372   0.220   0.800  0.1219 -0.2255  0.1248
   94MOL   H12435650   2.250   0.169   1.004 -0.9464 -0.0499  0.1806
   94MOL   H12535651   2.002   0.147   0.950 -0.4208 -0.5818 -2.1500
   94MOL   H12635652   2.054   0.008   0.857 -0.3940  2.7425 -2.3753
   94MOL   H12735653   2.005   7.611   1.100  0.6474 -0.2181  1.5727
   94MOL   H12835654   2.101   0.058   1.152  1.1212  0.7398 -0.6886
   94MOL   H12935655   2.181   7.502   1.002 -3.5911  2.0883 -1.1931
   94MOL   H13035656   2.278   7.582   1.126 -0.6136 -0.2577  0.7284
   94MOL   H13135657   2.400   0.005   0.971 -0.3934 -1.7843  2.9211
   94MOL   H13235658   2.295   7.606   0.845 -2.2161  1.5962 -0.4875
   94MOL   H13335659   2.115   0.110   0.645 -0.4435 -0.4081  1.9617
   94MOL   H13435660   2.250   0.011   0.669  4.1251  1.0351  1.9668
   94MOL   C13535661   2.290   0.154   0.534 -0.2993 -0.6385 -0.4130
   94MOL   C13635662   2.449   0.163   0.554 -0.5954  0.1449  0.1785
   94MOL   C13735663   2.538   0.174   0.427  0.0537  0.0406 -0.3515
   94MOL   C13835664   2.676   0.128   0.468  0.6830  0.6783  0.7568
   94MOL   C13935665   2.657   0.037   0.584  0.2869 -0.2137 -0.6989
   94MOL   C14035666   2.510   0.035   0.618 -0.0533  0.4753  0.4093
   94MOL   C14135667   2.234   0.283   0.457 -0.2621 -0.1568  0.1411
   94MOL   H14235668   2.273   0.084   0.453 -1.3506  0.6202 -1.2930
   94MOL   H14335669   2.477   0.248   0.615 -0.5595 -0.4818  1.0483
   94MOL   H14435670   2.507   0.114   0.342 -0.8444  1.5528 -1.1058
   94MOL   H14535671   2.557   0.275   0.392 -0.7970 -0.1503 -1.3804
   94MOL   H14635672   2.727   0.221   0.493  1.1346  0.9212 -0.9709
   94MOL   H14735673   2.731   0.071   0.393 -0.3322  0.7866 -0.0781
   94MOL   H14835674   2.714   0.079   0.668  0.6003  0.7158 -1.3723
   94MOL   H14935675   2.693   7.629   0.552  2.1836 -0.2488  1.3744
   94MOL   H15035676   2.461   7.639   0.571 -0.6155  0.0429  1.7685
   94MOL   H15135677   2.485   0.029   0.724 -1.8668 -0.1675 -0.0169
   94MOL   H15235678   2.293   0.304   0.369  1.7840  0.8504  1.7084
   94MOL   H15335679   2.243   0.373   0.518 -1.5352  0.3294 -0.3746
   94MOL   C15435680   2.089   0.269   0.414 -0.1384  0.0120 -0.0610
   94MOL   C15535681   1.994   0.333   0.512  0.2032 -0.2807  0.0022
   94MOL   C15635682   1.847   0.286   0.488  0.1791 -0.1701 -0.2408
   94MOL   C15735683   1.761   0.402   0.538 -0.2332 -0.2156 -0.5990
   94MOL   C15835684   1.855   0.521   0.576 -0.2017 -0.4162 -0.0388
   94MOL   C15935685   1.990   0.483   0.515  0.3947 -0.4093  0.6355
   94MOL   C16035686   2.075   0.332   0.268 -0.0068  0.1760 -0.3625
   94MOL   H16135687   2.077   0.161   0.413  2.5472 -0.3085 -0.8588
   94MOL   H16235688   2.010   0.308   0.617  1.1486  0.4689  0.0539
   94MOL   H16335689   1.815   0.265   0.385 -0.6300  0.9086 -0.2091
   94MOL   H16435690   1.831   0.196   0.548 -0.6938  0.6792  0.8063
   94MOL   H16535691   1.698   0.426   0.452 -1.5912 -0.0893  0.4092
   94MOL   H16635692   1.703   0.371   0.625  0.6683  0.8814  0.4179
   94MOL   H16735693   1.870   0.538   0.683 -0.0062  0.4914 -0.2021
   94MOL   H16835694   1.818   0.613   0.529  0.0210  0.7584  2.0138
   94MOL   H16935695   2.069   0.527   0.575  0.9694 -1.9847  1.0509
   94MOL   H17035696   2.009   0.526   0.417  0.6282  0.7464  1.1798
   94MOL   H17135697   2.148   0.413   0.263  0.5722 -0.3570 -0.6758
   94MOL   H17235698   1.980   0.381   0.248 -1.1845 -1.8317  0.1544
   94MOL   C17335699   2.093   0.233   0.150  0.3166 -0.6134 -0.1784
   94MOL   C17435700   2.160   0.295   0.024 -0.5630  0.2346 -0.5716
   94MOL   C17535701   2.311   0.301   0.031 -0.9946  0.6457  0.1230
   94MOL   C17635702   2.345   0.398   7.604 -0.6581  0.1957 -0.2952
   94MOL   C17735703   2.230   0.499   7.589  0.3216  0.2956 -1.1274
   94MOL   C17835704   2.111   0.438   7.673 -0.3142 -0.1228  0.1280
   94MOL   C17935705   1.971   0.149   0.112 -0.0620  0.4520  0.6589
   94MOL   H18035706   2.171   0.164   0.182 -0.2485 -0.0996  2.4068
   94MOL   H18135707   2.134   0.231   7.630 -1.8367 -2.1929  1.6071
   94MOL   H18235708   2.351   0.200   0.027  0.8362  1.3946 -1.0879
   94MOL   H18335709   2.342   0.347   0.125 -1.9810  3.2312 -0.7678
   94MOL   H18435710   2.446   0.439   7.600 -0.4809 -0.3058 -1.0541
   94MOL   H18535711   2.349   0.338   7.513  1.4002  2.2514 -1.6220
   94MOL   H18635712   2.205   0.512   7.484  1.1114  1.3645 -1.1893
   94MOL   H18735713   2.255   0.594   7.637 -1.8708  0.8682 -1.0757
   94MOL   H18835714   2.088   0.503   0.068  0.5306  0.1435  0.1662
   94MOL   H18935715   2.020   0.425   7.615  0.0689 -1.3995 -0.2234
   94MOL   H19035716   1.909   0.151   0.202  0.2760  2.5774  0.8717
   94MOL   H19135717   1.913   0.207   0.039  1.4442  1.6899  0.4167
   94MOL   C19235718   1.994   0.004   0.060 -0.1101 -0.1102  0.3804
   94MOL   C19335719   1.891   7.653   7.631 -0.2653  0.0445 -0.2140
   94MOL   C19435720   1.900   0.037   7.504 -0.1147  0.2767  0.0027
   94MOL   C19535721   1.754   0.029   7.446 -0.4327 -0.1283  0.1221
   94MOL   C19635722   1.663   0.048   7.570 -0.0826 -0.1222  0.2556
   94MOL   C19735723   1.744   7.659   7.673  0.3924  0.3818 -0.1969
   94MOL   C19835724   2.001   7.595   0.181  0.3710 -0.4264 -0.1079
   94MOL   H19935725   2.089   7.686   0.007  0.2104 -0.7550  1.0458
   94MOL   H20035726   1.897   7.548   7.603 -2.2110 -0.5552  1.5378
   94MOL   H20135727   1.970   7.680   7.433 -1.1578 -1.2949 -0.0103
   94MOL   H20235728   1.926   0.142   7.517  0.3418  0.1919 -0.1996
   94MOL   H20335729   1.734   0.107   7.373 -0.5725  0.5133  0.8340
   94MOL   H20435730   1.728   7.627   7.394 -1.1362 -0.1639  0.5311
   94MOL   H20535731   1.566   7.689   7.562 -0.1747 -0.1608  1.5012
   94MOL   H20635732   1.649   0.152   7.598  0.2431  0.0821 -0.3275
   94MOL   H20735733   1.707   7.558   7.688  0.6643  0.0141 -1.8850
   94MOL   H20835734   1.732   0.018   0.080  2.7822  1.5254 -0.4540
   94MOL   H20935735   2.044   7.647   0.266 -2.3437  0.8467  0.5320
   94MOL   H21035736   1.898   7.579   0.212  0.3488 -0.0267  0.0260
   94MOL   C21135737   2.095   7.474   0.170  0.2952 -0.5652 -0.4390
   94MOL   C21235738   2.244   7.502   0.110  0.0500 -0.1846 -0.3785
   94MOL   C21335739   2.326   7.598   0.199  0.7304  0.0795 -0.1123
   94MOL   C21435740   2.413   7.508   0.289  0.1980  1.2476 -0.4296
   94MOL   C21535741   2.455   7.398   0.191 -0.0164 -0.0538 -0.3711
   94MOL   C21635742   2.338   7.379   0.097  0.4582  0.1145  0.1804
   94MOL   C21735743   2.102   7.394   0.305  0.3785 -0.0967  0.0831
   94MOL   H21835744   2.046   7.417   0.092 -1.4814 -0.5065  0.6094
   94MOL   H21935745   2.237   7.530   0.005 -0.0931 -1.4861 -0.7178
   94MOL   H22035746   2.398   7.654   0.140  1.5703 -0.1762  0.6531
   94MOL   H22135747   2.266   7.659   0.266 -0.2935 -0.4749 -0.5213
   94MOL   H22235748   2.499   7.563   0.328 -1.3501  1.7738  2.4334
   94MOL   H22335749   2.350   7.472   0.370  1.7386 -0.5335  0.0229
   94MOL   H22435750   2.459   7.298   0.234 -1.0732  0.3154  0.6066
   94MOL   H22535751   2.541   7.423   0.128  0.1277  0.0144 -0.1462
   94MOL   H22635752   2.381   7.367   7.687 -1.4761 -0.2020 -0.6266
   94MOL   H22735753   2.279   7.289   0.107 -0.3286  0.8088  1.7931
   94MOL   H22835754   2.136   7.463   0.382  4.2176 -3.0512  1.1763
   94MOL   H22935755   2.181   7.320   0.296  1.2149  0.5119  2.0562
   94MOL   C23035756   1.967   7.340   0.354 -0.2727 -0.1928 -0.0534
   94MOL   C23135757   1.979   7.307   0.513  0.1153 -0.0237  0.4249
   94MOL   C23235758   2.106   7.222   0.553  0.1695  0.3264  0.1436
   94MOL   C23335759   2.197   7.325   0.618  0.6025  0.2496 -0.4056
   94MOL   C23435760   2.100   7.412   0.702  0.4799  0.6414 -0.1324
   94MOL   C23535761   1.986   7.435   0.604  0.2383  0.4389  0.0480
   94MOL   C23635762   1.914   7.221   0.272 -0.2060  0.4211  0.4031
   94MOL   H23735763   1.883   7.409   0.355 -0.1768 -0.0767 -0.1625
   94MOL   H23835764   1.893   7.251   0.548 -0.4202 -0.4038 -1.4594
   94MOL   H23935765   2.081   7.150   0.631 -0.3100  2.0356  1.6219
   94MOL   H24035766   2.145   7.155   0.476  1.6013  0.2905  0.8861
   94MOL   H24135767   2.281   7.274   0.665 -0.8352 -1.1262  0.7157
   94MOL   H24235768   2.246   7.390   0.545 -1.6024  2.0557 -0.3440
   94MOL   H24335769   2.162   7.495   0.734  0.6311  0.6137 -0.3504
   94MOL   H24435770   2.060   7.369   0.794 -0.0937  0.3962 -0.4921
   94MOL   H24535771   1.990   7.526   0.545  0.4110 -1.3200 -2.7561
   94MOL   H24635772   1.895   7.445   0.662  0.3367  0.1286  0.2592
   94MOL   H24735773   1.977   7.137   0.303  1.2406  1.1849 -0.3898
   94MOL   H24835774   1.922   7.225   0.164  3.6636  0.4995  0.6177
   94MOL   C24935775   1.770   7.182   0.293  0.2482  0.5161 -0.3275
   94MOL   C25035776   1.732   7.035   0.251 -0.2951  0.0626 -0.2288
   94MOL   C25135777   1.792   6.932   0.343 -0.3171 -0.3415  0.9604
   94MOL   C25235778   1.852   6.824   0.261  0.3969  0.3033  0.4353
   94MOL   C25335779   1.797   6.839   0.126 -0.0238 -0.9195 -0.0476
   94MOL   C25435780   1.759   6.986   0.113 -0.7785 -0.3449  0.5182
   94MOL   C25535781   1.673   7.278   0.226 -0.1339 -0.1864 -0.1835
   94MOL   H25635782   1.744   7.176   0.399  0.1092  1.4962 -0.3064
   94MOL   H25735783   1.625   7.016   0.260 -0.4931  1.0696 -0.3631
   94MOL   H25835784   1.708   6.895   0.402  0.0386  0.0279  1.7037
   94MOL   H25935785   1.874   6.969   0.405  0.4957 -1.7916  0.7816
   94MOL   H26035786   1.831   6.721   0.291 -0.9081  0.2689 -0.5646
   94MOL   H26135787   1.960   6.835   0.255  0.4360 -0.2849  0.0617
   94MOL   H26235788   1.707   6.779   0.120 -0.5438 -0.1719  0.1807
   94MOL   H26335789   1.872   6.825   0.048  2.0081  1.6955  1.3307
   94MOL   H26435790   1.671   6.986   0.050 -0.6458  0.5178  0.3262
   94MOL   H26535791   1.831   7.049   0.062 -3.0670  0.7929 -1.3806
   94MOL   H26635792   1.712   7.380   0.229  0.1393 -0.2811 -0.3926
   94MOL   H26735793   1.669   7.240   0.124 -3.5604  0.1873 -0.2448
   94MOL   C26835794   1.531   7.294   0.273 -0.9635  0.0736  0.9396
   94MOL   C26935795   1.432   7.299   0.152 -0.8492  0.5272  0.0717
   94MOL   C27035796   1.426   7.449   0.089  0.3283  0.1331 -0.2097
   94MOL   C27135797   1.296   7.445   0.003  0.0805 -0.1609 -0.2924
   94MOL   C27235798   1.208   7.339   0.060  0.0855 -0.2384 -0.5923
   94MOL   C27335799   1.287   7.276   0.178  0.2064 -0.3549 -0.4322
   94MOL   C27435800   1.499   7.400   0.383  0.2944  0.3331 -0.2528
   94MOL   H27535801   1.506   7.193   0.308  2.1963 -1.1763 -0.2077
   94MOL   H27635802   1.454   7.231   0.069  0.5043  3.2470 -1.8561
   94MOL   H27735803   1.421   7.527   0.165  0.9586  0.0663 -0.0976
   94MOL   H27835804   1.509   7.465   0.021  1.9469  2.7214  2.2619
   94MOL   H27935805   1.245   7.541   0.017 -1.3377 -0.3506 -3.5870
   94MOL   H28035806   1.315   7.422   7.588 -1.0461 -1.2730 -0.2718
   94MOL   H28135807   1.186   7.270   7.668 -0.2584 -0.2518 -0.4889
   94MOL   H28235808   1.109   7.382   0.077  0.3941  1.2303 -2.3270
   94MOL   H28335809   1.272   7.168   0.173 -1.9474 -0.1614  0.8486
   94MOL   H28435810   1.246   7.301   0.276  2.2028  0.4604  0.2174
   94MOL   H28535811   1.390   7.403   0.384  0.2645  0.0270 -1.6610
   94MOL   H28635812   1.524   7.503   0.355 -1.5018  1.0784  0.7306
   94MOL   C28735813   1.542   7.380   0.534 -0.7634  0.1828  0.2915
   94MOL   C28835814   1.528   7.508   0.617 -0.6961 -0.2935 -0.1072
   94MOL   C28935815   1.618   7.626   0.585 -0.3671 -0.5709  0.6531
   94MOL   C29035816   1.550   0.053   0.648 -0.2005  0.1422  0.2413
   94MOL   C29135817   1.411   0.010   0.704  0.0020  0.4472  0.3022
   94MOL   C29235818   1.387   7.566   0.634  0.2155 -0.5266 -0.0947
   94MOL   C29335819   1.477   7.249   0.583  0.2602 -0.3193 -0.7027
   94MOL   H29435820   1.647   7.352   0.532 -1.0733 -0.9765 -0.1988
   94MOL   H29535821   1.542   7.477   0.721 -2.6392  0.7951  0.5081
   94MOL   H29635822   1.724   7.614   0.608  0.0527 -1.0644 -1.4293
   94MOL   H29735823   1.616   7.643   0.477  1.2704 -1.9406  0.3852
   94MOL   H29835824   1.623   0.084   0.722  0.3393  0.2106 -0.3182
   94MOL   H29935825   1.553   0.141   0.583  0.7446 -1.3746 -1.8392
   94MOL   H30035826   1.345   0.089   0.667 -0.0011  0.1835 -0.2713
   94MOL   H30135827   1.406   0.004   0.813 -0.7908 -0.1944  0.2420
   94MOL   H30235828   1.344   7.565   0.534  0.4730  0.1291 -0.2115
   94MOL   H30335829   1.316   7.499   0.682 -0.8349  0.8565  0.3177
   94MOL   H30435830   1.511   7.168   0.519  0.4639 -2.5230  2.0840
   94MOL   H30535831   1.371   7.265   0.561  0.7786  3.7470 -0.6734
   94MOL   C30635832   1.502   7.209   0.733 -0.5033 -0.0245  0.1815
   94MOL   C30735833   1.405   7.090   0.754  0.4671 -0.1764 -0.2685
   94MOL   C30835834   1.443   6.955   0.689  0.3923  0.1564 -0.7037
   94MOL   C30935835   1.348   6.850   0.749 -0.1380  0.3178  0.3005
   94MOL   C31035836   1.314   6.908   0.890 -0.1328 -0.5165  0.5690
   94MOL   C31135837   1.361   7.058   0.893  0.6328  0.7002  0.1981
   94MOL   C31235838   1.652   7.179   0.758 -0.9593 -0.5606  0.0960
   94MOL   H31335839   1.463   7.281   0.805 -0.0915  0.4643 -0.0845
   94MOL   H31435840   1.313   7.111   0.699 -0.5040  0.3846  1.5435
   94MOL   H31535841   1.540   6.918   0.725  0.5107  0.2392 -0.9422
   94MOL   H31635842   1.449   6.955   0.581  0.0630 -0.0656 -0.7229
   94MOL   H31735843   1.259   6.850   0.687 -0.0702 -0.5715  0.2077
   94MOL   H31835844   1.393   6.751   0.750 -0.0695  0.3478  0.0557
   94MOL   H31935845   1.369   6.857   0.969  0.0333 -0.2256  0.6415
   94MOL   H32035846   1.207   6.900   0.910 -0.3785 -0.4732 -0.6671
   94MOL   H32135847   1.272   7.115   0.919  0.0856 -0.0086 -0.0815
   94MOL   H32235848   1.426   7.080   0.977 -1.0612 -0.8362  1.9734
   94MOL   H32335849   1.700   7.273   0.730 -2.0680  0.5217  1.7516
   94MOL   H32435850   1.680   7.100   0.688 -1.5275 -1.5290  0.9411
   94MOL   C32535851   1.707   7.140   0.899  0.2703 -0.3725 -0.1618
   94MOL   C32635852   1.665   7.236   1.015  0.2740  0.5913  0.2502
   94MOL   C32735853   1.721   7.373   1.000  0.3479  0.6196  0.1688
   94MOL   C32835854   1.695   7.448   1.135  0.3590  0.4792  0.6034
   94MOL   C32935855   1.694   7.332   1.238 -0.6378 -0.5957  0.3620
   94MOL   C33035856   1.721   7.203   1.155  0.6393  0.1102 -0.2497
   94MOL   C33135857   1.866   7.120   0.901  0.3460 -0.2551 -0.1462
   94MOL   H33235858   1.662   7.045   0.924 -1.8969  1.0100  1.3386
   94MOL   H33335859   1.558   7.254   1.014 -0.1439 -1.7167  0.2552
   94MOL   H33435860   1.657   7.421   0.926 -1.2625 -0.4233  0.8680
   94MOL   H33535861   1.820   7.391   0.959 -0.3347  1.4943 -1.1324
   94MOL   H33635862   1.598   7.496   1.137  0.6094  1.2011 -2.5063
   94MOL   H33735863   1.783   7.507   1.158  3.6965 -4.6078  1.9285
   94MOL   H33835864   1.596   7.324   1.285 -1.3342  0.2262 -0.9092
   94MOL   H33935865   1.760   7.361   1.319 -0.9143  1.6146 -0.1642
   94MOL   H34035866   1.673   7.118   1.202  0.1968  1.4409  1.7461
   94MOL   H34135867   1.827   7.179   1.147  0.6038 -1.5328  3.3949
   94MOL   H34235868   1.924   7.195   0.955  1.7395 -1.8108  0.5616
   94MOL   H34335869   1.898   7.148   0.801 -0.0760 -0.1310 -0.2465
   94MOL   C34435870   1.908   6.980   0.930 -0.1954  0.5158 -0.2689
   94MOL   C34535871   2.056   6.983   0.986 -0.5018  0.2944  0.0913
   94MOL   C34635872   2.164   7.020   0.881 -0.1724  0.5492 -1.0550
   94MOL   C34735873   2.297   6.984   0.946  0.6241  0.0339  0.0973
   94MOL   C34835874   2.265   6.892   1.062  0.4120 -0.0132  0.2688
   94MOL   C34935875   2.110   6.858   1.053  0.3794 -0.0728 -0.0725
   94MOL   C35035876   1.874   6.883   0.820 -0.3763  0.0167 -0.2276
   94MOL   H35135877   1.848   6.954   1.017  0.8731 -3.5749 -0.6458
   94MOL   H35235878   2.071   7.060   1.061 -1.4021  0.0242  0.5480
   94MOL   H35335879   2.162   7.127   0.857  0.2274  1.3228  2.2087
   94MOL   H35435880   2.154   6.961   0.790 -0.4136 -1.1335  0.0572
   94MOL   H35535881   2.351   6.940   0.862  1.8556  2.7921 -0.6172
   94MOL   H35635882   2.357   7.067   0.984  0.9155  0.1112 -0.5287
   94MOL   H35735883   2.274   6.949   1.155  0.2328  1.0295 -0.3491
   94MOL   H35835884   2.330   6.804   1.059 -1.1407 -1.1374 -0.5363
   94MOL   H35935885   2.096   6.776   0.982 -0.2833  1.0640 -1.2723
   94MOL   H36035886   2.064   6.824   1.146  0.3809 -0.5900 -0.2556
   94MOL   H36135887   1.947   6.907   0.742 -2.1547  2.7105 -1.1485
   94MOL   H36235888   1.784   6.920   0.772 -0.4314  1.3869  0.8966
   94MOL   C36335889   1.846   6.737   0.856  0.5544  0.4217  0.2474
   94MOL   C36435890   1.782   6.701   0.993 -0.0694  0.0215 -0.7027
   94MOL   C36535891   1.774   6.554   1.039 -0.3184  0.3125  0.4823
   94MOL   C36635892   1.641   6.538   1.120 -0.5898  0.3245 -0.3934
   94MOL   C36735893   1.591   6.681   1.135 -0.3655 -0.1972  0.3092
   94MOL   C36835894   1.637   6.753   1.012 -0.4396 -0.6795  0.0694
   94MOL   C36935895   1.787   6.667   0.736  0.3045 -0.7146  0.8692
   94MOL   H37035896   1.949   6.702   0.870  0.4048  0.6956  2.1768
   94MOL   H37135897   1.837   6.746   1.075 -1.6430  0.3670  0.1821
   94MOL   H37235898   1.763   6.476   0.963  0.4075  1.1121 -0.4636
   94MOL   H37335899   1.860   6.536   1.103 -0.1599  1.2356  0.5340
   94MOL   H37435900   1.558   6.475   1.087 -2.7658  2.5827  0.6127
   94MOL   H37535901   1.677   6.503   1.217  1.9344  0.6940 -1.1653
   94MOL   H37635902   1.486   6.693   1.161 -0.2046  0.8235  0.5095
   94MOL   H37735903   1.638   6.728   1.221  0.0788  1.0148 -0.5798
   94MOL   H37835904   1.639   6.860   1.034  0.8990 -0.9630  1.4361
   94MOL   H37935905   1.568   6.732   0.930  0.7842  0.8382 -1.4030
   94MOL   H38035906   1.688   6.706   0.711  1.5503  2.5409  0.6403
   94MOL   H38135907   1.783   6.561   0.761  0.8235 -0.6678  1.1662
   94MOL   H38235908   1.854   6.684   0.652 -0.3639  2.3029  0.8675
   95MOL     C135909   2.298   2.726   2.694  0.6089  0.3789  0.6024
   95MOL     C235910   2.206   2.759   2.815  0.7713  0.5404 -0.0237
   95MOL     C335911   2.077   2.842   2.801 -0.2750  0.1652  0.7928
   95MOL     C435912   2.043   2.899   2.937  0.1706 -0.1149 -0.7011
   95MOL     C535913   2.174   2.891   3.024 -0.4994  0.3181  0.0092
   95MOL     C635914   2.280   2.841   2.925 -0.0131  0.0703  0.3516
   95MOL     C735915   2.339   2.847   2.614 -0.2452 -0.0766  0.4716
   95MOL     H835916   2.378   2.656   2.720  0.7303  0.1629 -0.3242
   95MOL     H935917   2.166   2.665   2.852  0.6910  0.1082 -1.2086
   95MOL    H1035918   2.078   2.917   2.723 -1.7404  1.0730  1.6280
   95MOL    H1135919   1.999   2.769   2.776 -2.3867  2.4444  0.5796
   95MOL    H1235920   2.002   2.999   2.942 -3.0806 -1.4476  0.4840
   95MOL    H1335921   1.969   2.830   2.976 -0.6657  0.8496 -0.5730
   95MOL    H1435922   2.202   2.985   3.070 -0.0149  0.7619 -1.1804
   95MOL    H1535923   2.157   2.816   3.102 -2.4831  1.1120  0.3864
   95MOL    H1635924   2.353   2.775   2.972  0.6288 -0.6623 -1.6153
   95MOL    H1735925   2.321   2.930   2.878 -0.1214  1.2417  2.4248
   95MOL    H1835926   2.247   2.900   2.590  1.5351  1.8225 -2.5064
   95MOL    H1935927   2.390   2.912   2.686  0.2012  0.9460 -0.7481
   95MOL    H2035928   2.225   2.674   2.631 -0.0722 -0.2216  1.8567
   95MOL    C2135929   2.411   2.816   2.484 -0.6042  0.1126 -0.3098
   95MOL    C2235930   2.333   2.889   2.369 -0.6464 -0.0005 -0.0967
   95MOL    C2335931   2.182   2.847   2.335  0.3153 -0.7447 -0.3344
   95MOL    C2435932   2.160   2.909   2.191  0.0555  0.5686 -0.1733
   95MOL    C2535933   2.293   2.902   2.126  0.3674  0.5347 -0.3349
   95MOL    C2635934   2.397   2.896   2.238 -0.2767  0.8238 -0.1536
   95MOL    C2735935   2.561   2.860   2.503  0.1448  0.9566 -0.2997
   95MOL    H2835936   2.407   2.709   2.465 -0.3160  0.1648 -0.6871
   95MOL    H2935937   2.309   2.989   2.405  0.7912  0.0378  0.7945
   95MOL    H3035938   2.111   2.892   2.405 -0.9276 -0.6117 -1.6666
   95MOL    H3135939   2.169   2.739   2.334 -0.9859 -0.5952 -0.0759
   95MOL    H3235940   2.095   2.849   2.127  2.1449 -0.5448 -1.2896
   95MOL    H3335941   2.125   3.012   2.186 -0.6948  0.2109 -2.9486
   95MOL    H3435942   2.316   2.988   2.063 -2.4383  0.5624 -1.3820
   95MOL    H3535943   2.304   2.812   2.066 -1.9095 -0.5997  0.8873
   95MOL    H3635944   2.463   2.982   2.242  0.1039  0.4941  0.7497
   95MOL    H3735945   2.461   2.809   2.220 -0.5932  0.4666  0.4275
   95MOL    H3835946   2.603   2.887   2.406  0.0880  0.1165 -0.5556
   95MOL    H3935947   2.565   2.953   2.560 -1.0666 -0.8689  2.9393
   95MOL    C4035948   2.659   2.754   2.554 -0.3163 -0.1165  0.9789
   95MOL    C4135949   2.687   2.640   2.448  0.5108  0.6543  0.6495
   95MOL    C4235950   2.761   2.524   2.510 -0.2080  0.1957 -0.3071
   95MOL    C4335951   2.833   2.450   2.398 -0.0136 -0.6881  0.1122
   95MOL    C4435952   2.852   2.558   2.295  0.3284 -0.2683 -0.5865
   95MOL    C4535953   2.770   2.672   2.328 -0.7929  0.0414  0.4396
   95MOL    C4635954   2.787   2.825   2.613  0.1976  0.3724  0.0882
   95MOL    H4735955   2.604   2.712   2.638  0.1027  1.0244  1.8414
   95MOL    H4835956   2.593   2.592   2.421 -0.1165  1.4157  1.4668
   95MOL    H4935957   2.690   2.471   2.573 -0.3238  0.1325 -0.4901
   95MOL    H5035958   2.842   2.546   2.579  0.0260 -1.5261 -0.0158
   95MOL    H5135959   2.763   2.378   2.356 -2.2983  1.6790 -0.2846
   95MOL    H5235960   2.922   2.394   2.426  0.9882  1.0800  0.5283
   95MOL    H5335961   2.960   2.575   2.285  0.2533  0.3823 -0.3395
   95MOL    H5435962   2.824   2.523   2.195  0.5996 -2.8322  0.1979
   95MOL    H5535963   2.823   2.767   2.334  0.0210 -0.1957 -2.3918
   95MOL    H5635964   2.696   2.680   2.248  0.5810 -0.9429 -0.9413
   95MOL    H5735965   2.870   2.757   2.629  1.4651  1.9271  0.3214
   95MOL    H5835966   2.821   2.900   2.541  0.4591  1.3349  1.1893
   95MOL    C5935967   2.759   2.907   2.743  0.1525  0.0233  0.6631
   95MOL    C6035968   2.740   2.814   2.864 -0.6365  0.1776 -0.5142
   95MOL    C6135969   2.697   2.873   2.992 -0.3480 -0.1679  0.2087
   95MOL    C6235970   2.728   2.788   3.109 -0.3918  0.7040 -0.3513
   95MOL    C6335971   2.824   2.680   3.061  0.5487  0.5893  0.4058
   95MOL    C6435972   2.853   2.723   2.915  0.3265 -0.5762  0.0948
   95MOL    C6535973   2.868   3.016   2.744 -0.2147  0.1770 -0.0033
   95MOL    H6635974   2.666   2.965   2.742 -1.4559 -2.4771 -1.5652
   95MOL    H6735975   2.657   2.750   2.836  0.4328 -1.1050 -0.8133
   95MOL    H6835976   2.596   2.912   2.997  0.1845  1.5077 -1.2593
   95MOL    H6935977   2.764   2.959   3.001 -1.4598  0.7381  0.0312
   95MOL    H7035978   2.636   2.737   3.140  0.6286 -0.7253  0.3796
   95MOL    H7135979   2.769   2.839   3.196 -0.6890  0.9373 -0.3488
   95MOL    H7235980   2.789   2.577   3.068 -3.3888  1.8677  0.9097
   95MOL    H7335981   2.923   2.687   3.108  0.8822  0.1243 -0.2204
   95MOL    H7435982   2.941   2.787   2.919  0.7573 -1.1514 -0.0858
   95MOL    H7535983   2.889   2.642   2.851  1.1003 -1.0769  1.1683
   95MOL    H7635984   2.964   2.973   2.714  0.9877  0.3399  3.3363
   95MOL    H7735985   2.891   3.054   2.843  1.3664 -0.1235 -0.2425
   95MOL    C7835986   2.847   3.146   2.661  0.3624  0.4319 -0.4768
   95MOL    C7935987   2.835   3.274   2.755 -0.8537  0.1105 -0.0276
   95MOL    C8035988   2.969   3.308   2.825  0.3171 -0.4255  0.3425
   95MOL    C8135989   2.917   3.389   2.944  0.1565 -0.1243  0.1864
   95MOL    C8235990   2.795   3.312   2.995  0.4538 -0.4013  0.0942
   95MOL    C8335991   2.722   3.276   2.863  0.1983 -0.0815 -0.6628
   95MOL    C8435992   2.954   3.158   2.549  0.5254  0.1369 -0.5092
   95MOL    H8535993   2.754   3.120   2.609 -0.2652 -0.7118  1.1934
   95MOL    H8635994   2.820   3.363   2.694 -1.0041 -0.7122 -1.2135
   95MOL    H8735995   3.050   3.340   2.760  0.5925 -2.6930 -0.4778
   95MOL    H8835996   3.015   3.219   2.868  0.1588 -0.9451 -0.5674
   95MOL    H8935997   2.894   3.486   2.899  2.1339 -1.3629 -3.7457
   95MOL    H9035998   3.002   3.396   3.011 -0.9900  0.2855  1.6227
   95MOL    H9135999   2.804   3.217   3.047 -1.3052 -1.0962 -0.8254
   95MOL    H9236000   2.738   3.380   3.059  1.5699  0.2429  0.4161
   95MOL    H9336001   2.682   3.176   2.879 -1.0288  0.4887 -0.0990
   95MOL    H9436002   2.646   3.352   2.841  0.3090  0.7682  1.7245
   95MOL    H9536003   2.944   3.070   2.485  0.7824 -1.1075  1.1417
   95MOL    H9636004   3.054   3.159   2.591  0.4438 -0.3516 -0.2960
   95MOL    C9736005   2.936   3.278   2.456  0.1820  0.0495 -0.4637
   95MOL    C9836006   2.787   3.304   2.414 -0.5803 -0.0814  0.2556
   95MOL    C9936007   2.768   3.447   2.354  0.0904 -0.0353  0.0784
   95MOL   C10036008   2.648   3.425   2.253 -0.0254  0.4406 -0.1559
   95MOL   C10136009   2.661   3.273   2.209 -0.3643  0.1706 -0.0336
   95MOL   C10236010   2.705   3.197   2.335  0.2325 -0.3594 -0.3867
   95MOL   C10336011   3.022   3.271   2.324 -0.3083 -0.5148  0.0275
   95MOL   H10436012   2.971   3.366   2.509  0.4381 -0.7426  0.7112
   95MOL   H10536013   2.739   3.327   2.509  0.4870 -0.4768  0.8984
   95MOL   H10636014   2.728   3.512   2.431  0.0280  1.8858 -1.5487
   95MOL   H10736015   2.852   3.501   2.310  0.9047 -2.6648 -1.7854
   95MOL   H10836016   2.642   3.500   2.175 -1.5081  1.9186  1.3446
   95MOL   H10936017   2.558   3.428   2.315  0.7267 -1.5353  1.1035
   95MOL   H11036018   2.742   3.260   2.137  0.5005  1.6382  0.6424
   95MOL   H11136019   2.568   3.229   2.172 -0.8430  4.0375 -3.7337
   95MOL   H11236020   2.612   3.163   2.382  0.1426 -0.0404 -0.3309
   95MOL   H11336021   2.762   3.108   2.309  2.2891  0.7176  0.2978
   95MOL   H11436022   2.974   3.194   2.265 -0.2791 -1.9059  1.7693
   95MOL   H11536023   3.006   3.359   2.261 -3.0850 -1.1545 -0.2302
   95MOL   C11636024   3.181   3.255   2.333  0.0721 -0.2191 -0.5747
   95MOL   C11736025   3.239   3.369   2.419  0.4700 -0.7220 -0.1313
   95MOL   C11836026   3.389   3.377   2.398  0.7767 -0.6480  0.2479
   95MOL   C11936027   3.423   3.517   2.453  0.1530  0.1250  0.1984
   95MOL   C12036028   3.314   3.612   2.398 -0.0024 -0.3619 -0.2532
   95MOL   C12136029   3.190   3.514   2.385 -0.1564 -0.2808  0.1352
   95MOL   C12236030   3.228   3.107   2.365  0.2758 -0.2428 -0.9459
   95MOL   H12336031   3.216   3.275   2.232 -0.3902 -1.7236 -1.0552
   95MOL   H12436032   3.226   3.351   2.526  0.2982 -0.8784 -0.1777
   95MOL   H12536033   3.440   3.298   2.453  1.5614  1.2838  2.3971
   95MOL   H12636034   3.417   3.385   2.293  2.1144 -0.7995  0.5816
   95MOL   H12736035   3.521   3.544   2.413  0.7530  2.5191  3.0733
   95MOL   H12836036   3.433   3.528   2.561 -1.9849 -2.0561  0.6423
   95MOL   H12936037   3.351   3.645   2.300 -1.1179  2.2186  0.1434
   95MOL   H13036038   3.289   3.694   2.464 -1.2592 -2.6586  2.2091
   95MOL   H13136039   3.109   3.556   2.445  1.2266  1.4125  0.8725
   95MOL   H13236040   3.153   3.524   2.284  0.5234 -0.0559 -0.0995
   95MOL   H13336041   3.201   3.081   2.467 -3.7211 -0.4815 -1.9850
   95MOL   H13436042   3.336   3.113   2.358  0.2699  2.1364  0.4492
   95MOL   C13536043   3.162   2.991   2.277  0.0688 -0.5255  0.5057
   95MOL   C13636044   3.197   2.849   2.326 -0.9076  0.4019 -0.2600
   95MOL   C13736045   3.140   2.807   2.453  0.0371  0.1736 -0.3591
   95MOL   C13836046   3.212   2.679   2.497 -0.4746  0.5887  0.0109
   95MOL   C13936047   3.355   2.688   2.445 -0.0306  0.4189  0.2905
   95MOL   C14036048   3.347   2.810   2.349  0.3487  0.2511 -0.6898
   95MOL   C14136049   3.195   3.015   2.121  0.6219  0.4704  0.6896
   95MOL   H14236050   3.054   2.994   2.296 -0.0590  4.7792 -0.1164
   95MOL   H14336051   3.151   2.782   2.253 -3.2604  2.7131 -1.0006
   95MOL   H14436052   3.161   2.879   2.532  2.2498 -0.9858  0.1581
   95MOL   H14536053   3.033   2.790   2.445 -0.2959  1.8527  0.2491
   95MOL   H14636054   3.166   2.588   2.458 -1.4667  1.6343 -1.3463
   95MOL   H14736055   3.221   2.686   2.605  1.8666  2.1420 -0.2550
   95MOL   H14836056   3.381   2.593   2.398  1.1049  0.9121 -0.1127
   95MOL   H14936057   3.437   2.698   2.517 -1.7265 -1.1117  2.4934
   95MOL   H15036058   3.403   2.884   2.406 -0.4908 -0.1448  0.6920
   95MOL   H15136059   3.401   2.795   2.256  2.1013 -0.7549  0.4546
   95MOL   H15236060   3.303   3.024   2.122  0.7124 -0.3971  0.0097
   95MOL   H15336061   3.162   3.113   2.088  1.9648  0.6907 -0.0324
   95MOL   C15436062   3.134   2.916   2.017  0.7509  0.4966 -0.2218
   95MOL   C15536063   2.977   2.904   2.021 -0.9512 -0.3966  0.2883
   95MOL   C15636064   2.906   2.801   1.935  0.7495  0.1525  0.2557
   95MOL   C15736065   2.758   2.844   1.929 -0.7795 -0.3917 -0.2534
   95MOL   C15836066   2.756   2.984   1.988  0.2132  0.2182  0.2983
   95MOL   C15936067   2.899   3.032   1.990 -0.4687 -0.8308  0.7304
   95MOL   C16036068   3.189   2.943   1.868  0.2579  0.2831  0.0365
   95MOL   H16136069   3.166   2.815   2.040  0.2384  0.8418  2.1501
   95MOL   H16236070   2.962   2.877   2.126 -0.8271  1.2845  0.7536
   95MOL   H16336071   2.941   2.776   1.835  0.4231  0.8950 -0.0493
   95MOL   H16436072   2.914   2.707   1.990 -2.4815  0.3341  1.0955
   95MOL   H16536073   2.718   2.841   1.827 -0.1483 -0.5509 -0.4972
   95MOL   H16636074   2.698   2.773   1.986 -1.0777  0.7631  0.8789
   95MOL   H16736075   2.718   2.989   2.090 -0.1805  1.1182  0.1126
   95MOL   H16836076   2.689   3.047   1.929  2.4664  0.5704 -1.9596
   95MOL   H16936077   2.920   3.112   2.061  1.6990 -1.2629  0.5979
   95MOL   H17036078   2.929   3.074   1.894  2.2213 -2.4216  0.8355
   95MOL   H17136079   3.127   3.015   1.816 -1.3783 -1.8664 -1.1041
   95MOL   H17236080   3.166   2.852   1.811 -1.3174 -0.2290  1.4610
   95MOL   C17336081   3.337   2.994   1.837  0.4244  0.0558  0.3192
   95MOL   C17436082   3.442   2.909   1.905 -0.0462 -0.1763 -0.1170
   95MOL   C17536083   3.587   2.933   1.853  0.3925  0.4388 -0.9682
   95MOL   C17636084   3.676   2.820   1.922  0.2521 -0.8778  0.1164
   95MOL   C17736085   3.571   2.713   1.961  0.1890  0.7201 -0.6534
   95MOL   C17836086   3.434   2.761   1.913  0.3750  0.8381  0.4378
   95MOL   C17936087   3.348   3.151   1.864 -0.3691  1.1332  0.3982
   95MOL   H18036088   3.335   2.970   1.731 -1.4493  1.0163  0.1153
   95MOL   H18136089   3.454   2.944   2.008  2.5871 -2.7027  0.5073
   95MOL   H18236090   3.619   3.034   1.879 -2.6622  0.5905  2.7322
   95MOL   H18336091   3.594   2.928   1.744 -0.7182  1.6310 -1.1098
   95MOL   H18436092   3.747   2.784   1.847  0.4412  1.0680 -0.6788
   95MOL   H18536093   3.741   2.850   2.004 -1.0616  2.4953  0.0160
   95MOL   H18636094   3.573   2.696   2.069 -0.7890 -1.6640 -0.9796
   95MOL   H18736095   3.592   2.612   1.924 -0.2782  0.7633 -1.0289
   95MOL   H18836096   3.400   2.714   1.820  2.7863  2.9325 -1.5779
   95MOL   H18936097   3.364   2.735   1.992 -0.4139  1.4936 -0.0402
   95MOL   H19036098   3.245   3.178   1.890 -1.0738 -0.1218 -0.9952
   95MOL   H19136099   3.411   3.157   1.952 -1.0751  0.7720  0.9369
   95MOL   C19236100   3.411   3.246   1.749 -0.1597  0.7692 -0.6328
   95MOL   C19336101   3.446   3.388   1.788  0.2904  0.3227  0.1616
   95MOL   C19436102   3.518   3.399   1.920 -0.3305 -0.1462  0.1066
   95MOL   C19536103   3.414   3.447   2.020  0.0362  0.5951 -0.4627
   95MOL   C19636104   3.313   3.535   1.943 -0.1098  0.4372 -0.1037
   95MOL   C19736105   3.333   3.486   1.802  0.0560  0.0215  0.4265
   95MOL   C19836106   3.330   3.230   1.613 -0.8417 -0.3406 -0.0732
   95MOL   H19936107   3.506   3.198   1.729  0.6202  2.5942 -1.4150
   95MOL   H20036108   3.499   3.427   1.701  0.8407 -1.4379 -0.3021
   95MOL   H20136109   3.591   3.479   1.908 -1.0612  0.1605 -2.5757
   95MOL   H20236110   3.575   3.311   1.949  0.8959  0.8172  0.6769
   95MOL   H20336111   3.354   3.360   2.050 -2.5027  2.5319  0.2526
   95MOL   H20436112   3.472   3.484   2.104  2.6294  0.0946 -1.9878
   95MOL   H20536113   3.329   3.642   1.959  0.1077  0.2423  1.0320
   95MOL   H20636114   3.209   3.522   1.971  0.0037 -1.5397 -0.5077
   95MOL   H20736115   3.372   3.574   1.750  0.1961 -1.8414 -2.7319
   95MOL   H20836116   3.244   3.484   1.739 -0.3914  1.8864  0.9454
   95MOL   H20936117   3.300   3.126   1.599 -0.3468 -0.4500 -0.3464
   95MOL   H21036118   3.236   3.284   1.623 -1.5355 -1.5167 -0.1212
   95MOL   C21136119   3.395   3.278   1.493  0.1652 -0.8278  0.4508
   95MOL   C21236120   3.531   3.201   1.456  0.7445 -0.3212 -0.0787
   95MOL   C21336121   3.528   3.045   1.446  0.1805 -0.0015  0.4338
   95MOL   C21436122   3.653   3.008   1.376 -0.3523  0.3419 -0.3351
   95MOL   C21536123   3.663   3.112   1.263 -0.1819  0.3744 -0.0862
   95MOL   C21636124   3.583   3.239   1.316  0.8103  0.0967 -0.3421
   95MOL   C21736125   3.294   3.303   1.371 -0.3667  0.5183 -0.4787
   95MOL   H21836126   3.436   3.377   1.510  0.2491 -0.4976 -1.5550
   95MOL   H21936127   3.602   3.248   1.525  1.3274  0.8174 -1.4106
   95MOL   H22036128   3.512   2.993   1.540  3.4361  1.4669  1.8646
   95MOL   H22136129   3.443   3.027   1.380 -1.1421  0.6940  1.9170
   95MOL   H22236130   3.742   3.009   1.439 -0.1451 -0.1457 -0.6241
   95MOL   H22336131   3.649   2.909   1.332  2.6410  0.3623 -0.7289
   95MOL   H22436132   3.605   3.068   1.182 -1.4866  0.1064  0.9824
   95MOL   H22536133   3.763   3.133   1.225  0.7013 -2.9316  0.2055
   95MOL   H22636134   3.643   3.330   1.321  1.1261 -0.0696 -0.9876
   95MOL   H22736135   3.509   3.252   1.237  0.5595  0.9526  0.0272
   95MOL   H22836136   3.192   3.290   1.405  0.2646  0.0200  1.2948
   95MOL   H22936137   3.306   3.221   1.299 -0.9805 -0.5290  0.5954
   95MOL   C23036138   3.293   3.446   1.308  0.5381 -0.4651 -0.0373
   95MOL   C23136139   3.232   3.554   1.408 -0.1371  0.4127  0.6215
   95MOL   C23236140   3.281   3.695   1.380  0.1381 -0.0505  0.2245
   95MOL   C23336141   3.187   3.782   1.467 -0.5975  0.2521 -0.6452
   95MOL   C23436142   3.048   3.722   1.435  0.5634 -0.1974  0.2314
   95MOL   C23536143   3.080   3.567   1.412  0.1844 -0.0194  0.6727
   95MOL   C23636144   3.224   3.443   1.169 -0.1669 -0.3062  1.2703
   95MOL   H23736145   3.400   3.466   1.300 -0.0590  2.5751 -0.9453
   95MOL   H23836146   3.276   3.541   1.506  0.2517 -0.7653  0.3004
   95MOL   H23936147   3.385   3.717   1.405 -0.2947  2.2487  0.1846
   95MOL   H24036148   3.267   3.729   1.277  1.7447 -0.1378 -0.0435
   95MOL   H24136149   3.218   3.778   1.571 -2.2341  1.1165 -0.1134
   95MOL   H24236150   3.192   3.888   1.440  2.5983  0.6975  1.3643
   95MOL   H24336151   3.017   3.767   1.341 -2.2785 -0.1778  1.1160
   95MOL   H24436152   2.967   3.751   1.502  0.1823  0.8281 -0.6623
   95MOL   H24536153   3.022   3.529   1.328 -0.1027 -2.7097  2.0507
   95MOL   H24636154   3.040   3.521   1.502 -2.7391 -0.1820 -0.6621
   95MOL   H24736155   3.181   3.540   1.145  0.9468 -0.2202 -0.4623
   95MOL   H24836156   3.135   3.379   1.169  0.8206 -1.7187 -0.7263
   95MOL   C24936157   3.306   3.400   1.039 -0.2012 -0.0279 -0.1456
   95MOL   C25036158   3.378   3.529   0.991 -0.8829 -0.2778 -0.3811
   95MOL   C25136159   3.449   3.507   0.855  0.2933  0.1286  0.1648
   95MOL   C25236160   3.571   3.608   0.846  0.0255  0.1345  0.1092
   95MOL   C25336161   3.572   3.673   0.985  0.1497  0.2382 -0.1816
   95MOL   C25436162   3.506   3.578   1.074 -0.1576 -0.7835 -0.3092
   95MOL   C25536163   3.219   3.328   0.927  0.2222  0.2668 -0.8485
   95MOL   H25636164   3.380   3.326   1.067 -0.4441  0.2714  1.3376
   95MOL   H25736165   3.309   3.612   0.987  0.3627  0.8288  0.7060
   95MOL   H25836166   3.394   3.506   0.761  1.5969  0.3064 -0.6175
   95MOL   H25936167   3.488   3.405   0.856 -2.0393 -0.8003  1.1708
   95MOL   H26036168   3.550   3.682   0.769  0.0858 -2.3368 -2.3726
   95MOL   H26136169   3.661   3.558   0.810  0.9036  0.3864  1.8995
   95MOL   H26236170   3.524   3.771   0.985 -0.8132 -0.2304 -1.1331
   95MOL   H26336171   3.675   3.699   1.011  0.0903 -0.1472  0.4416
   95MOL   H26436172   3.478   3.627   1.167  0.0973  0.5919 -0.9331
   95MOL   H26536173   3.558   3.486   1.100  0.8233  0.0294  0.6853
   95MOL   H26636174   3.136   3.392   0.899 -0.4282 -1.0268 -1.9226
   95MOL   H26736175   3.275   3.333   0.834  2.2195 -2.5992  0.1263
   95MOL   C26836176   3.184   3.182   0.962  0.7095  0.4400  0.1564
   95MOL   C26936177   3.262   3.083   0.873  0.0216 -0.4532  0.3301
   95MOL   C27036178   3.414   3.108   0.858 -0.1277  0.0998  0.5601
   95MOL   C27136179   3.450   3.011   0.739 -0.0302 -0.1958 -0.2699
   95MOL   C27236180   3.321   2.988   0.659 -0.1142 -0.6352 -0.4857
   95MOL   C27336181   3.215   3.077   0.719 -0.4057  0.3757  0.0340
   95MOL   C27436182   3.030   3.152   0.935  0.1204 -0.8243 -0.2410
   95MOL   H27536183   3.194   3.159   1.068  0.1227 -0.2315  0.0665
   95MOL   H27636184   3.255   2.984   0.919  0.2623 -0.5169  0.2273
   95MOL   H27736185   3.455   3.205   0.829 -0.1759  0.1183  0.5542
   95MOL   H27836186   3.458   3.075   0.952 -0.7234  1.5160  1.3438
   95MOL   H27936187   3.528   3.057   0.678  0.6799 -0.4797  0.4114
   95MOL   H28036188   3.491   2.915   0.769 -0.5797 -0.8051 -1.4228
   95MOL   H28136189   3.292   2.883   0.666 -2.5633 -0.0703 -1.6582
   95MOL   H28236190   3.324   2.998   0.551 -1.8313  1.0304 -0.4033
   95MOL   H28336191   3.110   3.053   0.701  0.2284 -1.5707 -1.2726
   95MOL   H28436192   3.217   3.175   0.671 -0.3647 -0.5329 -1.8392
   95MOL   H28536193   3.027   3.043   0.927 -0.5196 -0.9576  1.5944
   95MOL   H28636194   3.013   3.197   0.838  0.4079 -1.4283 -0.5771
   95MOL   C28736195   2.931   3.210   1.036  0.3325 -0.5236  0.1241
   95MOL   C28836196   2.844   3.322   0.973 -0.1129  0.4778 -0.1155
   95MOL   C28936197   2.736   3.265   0.869 -0.2128  0.4661  0.0271
   95MOL   C29036198   2.657   3.390   0.845  1.1059 -1.0999 -0.3950
   95MOL   C29136199   2.650   3.473   0.975  0.4875 -0.3539 -0.6349
   95MOL   C29236200   2.761   3.413   1.063  0.4062 -0.3775 -0.1463
   95MOL   C29336201   2.841   3.099   1.101  0.2369 -0.4413 -0.3336
   95MOL   H29436202   2.977   3.263   1.119 -1.7214  0.1381  0.8763
   95MOL   H29536203   2.911   3.388   0.916 -0.2482  0.7626  0.0545
   95MOL   H29636204   2.776   3.209   0.784 -1.5586  0.1606 -0.4100
   95MOL   H29736205   2.668   3.189   0.906  0.1474 -1.2053 -2.5875
   95MOL   H29836206   2.706   3.446   0.765  0.0021  1.1100  0.4157
   95MOL   H29936207   2.560   3.366   0.801 -1.1916  4.2169  1.2487
   95MOL   H30036208   2.560   3.467   1.037  1.0402 -1.2929  0.1083
   95MOL   H30136209   2.670   3.580   0.975 -1.0262 -0.0271  1.5832
   95MOL   H30236210   2.721   3.346   1.139 -0.5735 -1.0906 -1.2780
   95MOL   H30336211   2.830   3.484   1.109 -1.2228  2.9948 -2.7232
   95MOL   H30436212   2.816   3.032   1.019  0.7586  1.6399 -2.2430
   95MOL   H30536213   2.739   3.132   1.122  0.3089 -0.6359  0.3097
   95MOL   C30636214   2.908   3.010   1.208 -0.1080 -0.7450 -0.2162
   95MOL   C30736215   2.913   3.081   1.347  0.8438  0.1262  0.0443
   95MOL   C30836216   2.768   3.106   1.414 -0.1554  0.2718  0.1871
   95MOL   C30936217   2.781   3.056   1.557  0.3283 -0.2756  0.0467
   95MOL   C31036218   2.896   2.961   1.550  0.3388  0.1353  0.0972
   95MOL   C31136219   2.999   3.018   1.453  0.0844  0.0752 -0.0491
   95MOL   C31236220   2.827   2.874   1.218 -0.0018  0.4710  0.1455
   95MOL   H31336221   3.008   2.983   1.172 -0.2494 -1.7564  0.1296
   95MOL   H31436222   2.946   3.185   1.333  1.2648 -0.2233 -1.6706
   95MOL   H31536223   2.698   3.038   1.365  2.4693  0.4042 -3.9956
   95MOL   H31636224   2.721   3.202   1.393  0.5576  0.3670 -0.9950
   95MOL   H31736225   2.795   3.139   1.627  0.4560 -1.2978  1.2665
   95MOL   H31836226   2.689   3.014   1.597  0.0630  0.6712  0.4435
   95MOL   H31936227   2.867   2.860   1.520  0.0076 -0.2384  1.5928
   95MOL   H32036228   2.932   2.941   1.651 -1.1396 -0.6918  0.4909
   95MOL   H32136229   3.062   3.097   1.493  1.5538 -0.8780 -0.4578
   95MOL   H32236230   3.070   2.943   1.418 -1.0037 -1.6786  1.4353
   95MOL   H32336231   2.724   2.904   1.201  0.2126  1.3865  0.4634
   95MOL   H32436232   2.843   2.828   1.315 -0.2886 -1.6255 -0.7770
   95MOL   C32536233   2.873   2.770   1.112  0.6153  0.3521 -0.8422
   95MOL   C32636234   2.748   2.705   1.031  0.2894  0.0569  0.0832
   95MOL   C32736235   2.793   2.579   0.946  0.4612 -0.1904  0.0164
   95MOL   C32836236   2.692   2.587   0.826 -0.5890 -0.2061  0.3595
   95MOL   C32936237   2.636   2.726   0.818  0.0975 -0.9131  0.0064
   95MOL   C33036238   2.698   2.807   0.920 -0.0539 -0.1862  0.5400
   95MOL   C33136239   2.942   2.651   1.182  0.2654  0.9165  0.3281
   95MOL   H33236240   2.938   2.826   1.045 -0.0323  3.0727  0.7030
   95MOL   H33336241   2.669   2.688   1.103  1.1618 -3.3992  0.3162
   95MOL   H33436242   2.778   2.484   0.997 -1.3493  0.0759  0.0038
   95MOL   H33536243   2.896   2.601   0.916  0.2085 -0.3371 -0.9930
   95MOL   H33636244   2.608   2.518   0.837 -0.7856 -0.1472 -0.7875
   95MOL   H33736245   2.745   2.564   0.734 -0.3130 -1.2623  0.7731
   95MOL   H33836246   2.530   2.727   0.845 -0.1797 -0.3578 -1.0751
   95MOL   H33936247   2.656   2.768   0.719  3.4024  2.3013  1.9058
   95MOL   H34036248   2.620   2.872   0.961 -1.8281 -1.9088  0.0142
   95MOL   H34136249   2.780   2.863   0.876 -0.0939 -1.0552 -0.6767
   95MOL   H34236250   2.963   2.569   1.113 -0.3681  1.9168 -1.0674
   95MOL   H34336251   2.863   2.611   1.246  1.0586  0.0520  0.7767
   95MOL   C34436252   3.085   2.663   1.244 -0.4012  0.1543 -0.6056
   95MOL   C34536253   3.198   2.709   1.148  0.4244  0.5101  0.3479
   95MOL   C34636254   3.250   2.604   1.049  0.0634  0.2581 -0.3626
   95MOL   C34736255   3.383   2.676   1.019  0.2714 -0.6323 -0.7827
   95MOL   C34836256   3.444   2.721   1.155  0.2813  0.3993 -0.5950
   95MOL   C34936257   3.319   2.763   1.222 -0.4311  0.0455  0.5303
   95MOL   C35036258   3.128   2.532   1.327  0.0790  0.2102  0.5475
   95MOL   H35136259   3.069   2.747   1.311 -0.0501 -0.2191 -0.0560
   95MOL   H35236260   3.155   2.794   1.095 -0.3842 -0.6434 -0.8567
   95MOL   H35336261   3.201   2.582   0.954 -1.2148  0.2452  0.2871
   95MOL   H35436262   3.277   2.511   1.099 -0.8127  0.3454  0.2964
   95MOL   H35536263   3.448   2.611   0.961 -0.8315 -2.0215 -0.4793
   95MOL   H35636264   3.355   2.759   0.954  0.2693 -0.2791 -0.3291
   95MOL   H35736265   3.523   2.796   1.149  2.4034 -1.9009 -2.7116
   95MOL   H35836266   3.492   2.640   1.210 -1.1244  1.2276  1.9826
   95MOL   H35936267   3.335   2.730   1.324 -3.3843  1.1421  1.4249
   95MOL   H36036268   3.313   2.872   1.223  3.2691  0.3151 -0.7726
   95MOL   H36136269   3.228   2.541   1.368  0.6039  1.4082 -0.9739
   95MOL   H36236270   3.126   2.451   1.254 -0.3528  2.2773 -1.8068
   95MOL   C36336271   3.040   2.496   1.449 -0.5602  0.6124 -0.4342
   95MOL   C36436272   2.999   2.345   1.446 -0.1346  0.1403  0.0948
   95MOL   C36536273   3.112   2.244   1.454 -0.9524  0.5005 -0.1944
   95MOL   C36636274   3.085   2.123   1.373 -0.3562 -0.2787 -0.3413
   95MOL   C36736275   2.983   2.168   1.274  0.7770 -0.4890  0.1784
   95MOL   C36836276   2.915   2.298   1.326  0.4139  0.3837  0.7792
   95MOL   C36936277   3.106   2.547   1.577 -0.5515  1.4255 -0.2607
   95MOL   H37036278   2.945   2.549   1.435 -0.1674  2.4224  3.1758
   95MOL   H37136279   2.940   2.335   1.537 -1.0813  2.9891 -0.1610
   95MOL   H37236280   3.206   2.296   1.433 -0.1964 -0.7007  0.1687
   95MOL   H37336281   3.135   2.213   1.556  1.0426  2.8968  0.1311
   95MOL   H37436282   3.178   2.093   1.324 -0.6945 -2.5176  0.2983
   95MOL   H37536283   3.035   2.040   1.423  0.4671 -0.1842  0.6333
   95MOL   H37636284   3.042   2.192   1.185 -0.5556  1.5934 -0.1668
   95MOL   H37736285   2.915   2.090   1.239  0.3027 -0.1809  0.4145
   95MOL   H37836286   2.812   2.276   1.353  0.5620  2.2293  2.9514
   95MOL   H37936287   2.914   2.381   1.255  0.1785 -0.5578 -0.3282
   95MOL   H38036288   3.154   2.643   1.558  0.9790  0.8120  0.4793
   95MOL   H38136289   3.180   2.476   1.615 -1.9853 -0.4202 -0.8482
   95MOL   H38236290   3.041   2.543   1.664 -1.2805 -0.5974 -0.8603
   96MOL     C136291   1.590   5.081   5.178 -0.0965 -0.3837  0.2384
   96MOL     C236292   1.498   5.003   5.080 -0.3857  0.5782 -0.3694
   96MOL     C336293   1.547   5.006   4.939 -0.2415  0.9215  0.6895
   96MOL     C436294   1.422   4.974   4.864  0.1609 -0.4372  0.0160
   96MOL     C536295   1.305   5.039   4.933  0.3425 -0.7800 -0.5048
   96MOL     C636296   1.359   5.061   5.079 -0.2130 -0.5717  0.7583
   96MOL     C736297   1.733   5.021   5.192  0.0752 -0.3895 -0.2550
   96MOL     H836298   1.598   5.188   5.160 -0.9387 -0.4863 -0.8063
   96MOL     H936299   1.489   4.899   5.111 -1.4442  0.2193 -1.8137
   96MOL    H1036300   1.585   5.105   4.914 -1.1435  0.8947 -0.8432
   96MOL    H1136301   1.623   4.930   4.923 -2.9525 -1.9636  1.0066
   96MOL    H1236302   1.430   5.015   4.763 -1.7917  1.1700  0.4757
   96MOL    H1336303   1.413   4.866   4.854  0.9327 -0.4828 -0.2323
   96MOL    H1436304   1.296   5.140   4.891 -0.3571 -0.2351  0.9343
   96MOL    H1536305   1.205   4.996   4.927 -0.6864  1.6259 -1.9569
   96MOL    H1636306   1.288   5.027   5.155 -3.0342  1.1594 -0.9999
   96MOL    H1736307   1.361   5.169   5.091  0.9535 -0.2977 -1.6815
   96MOL    H1836308   1.727   4.926   5.244 -0.1150  1.2085  2.7464
   96MOL    H1936309   1.769   4.991   5.094 -0.1782  0.4155 -0.6059
   96MOL    H2036310   1.548   5.078   5.278  1.6120 -2.8806  0.9233
   96MOL    C2136311   1.836   5.130   5.255 -0.7038 -0.2121 -0.0045
   96MOL    C2236312   1.864   5.252   5.161 -0.5590 -0.0968 -0.0929
   96MOL    C2336313   1.893   5.214   5.012  0.5488 -0.5724  0.6285
   96MOL    C2436314   1.956   5.340   4.958 -0.7474  0.1466  0.4057
   96MOL    C2536315   2.024   5.420   5.074  0.1362  0.2459 -0.6642
   96MOL    C2636316   1.981   5.344   5.206  0.3075  0.5857 -0.7458
   96MOL    C2736317   1.796   5.176   5.407  0.3170 -0.4641 -0.1133
   96MOL    H2836318   1.930   5.074   5.251 -1.9618 -2.5585  1.8449
   96MOL    H2936319   1.783   5.325   5.159  0.0117  0.5246 -0.6407
   96MOL    H3036320   1.805   5.179   4.957  0.1971 -1.2982  1.6225
   96MOL    H3136321   1.962   5.129   5.012 -0.2432 -1.2375  1.8485
   96MOL    H3236322   2.035   5.315   4.887 -0.7915  1.2761 -0.0527
   96MOL    H3336323   1.874   5.389   4.905  0.7341  0.7703 -1.3470
   96MOL    H3436324   1.983   5.520   5.083  0.7427  0.5151 -0.8349
   96MOL    H3536325   2.131   5.433   5.054  1.3331 -3.1683  2.8924
   96MOL    H3636326   1.937   5.397   5.291  0.9029 -2.4946  1.5754
   96MOL    H3736327   2.061   5.278   5.240 -0.9397  0.0285  1.2166
   96MOL    H3836328   1.826   5.276   5.439 -0.8746  0.2966 -1.3080
   96MOL    H3936329   1.687   5.178   5.409  0.3471  0.6020  1.2417
   96MOL    C4036330   1.843   5.070   5.516 -0.5200  0.1478  0.4991
   96MOL    C4136331   1.987   5.103   5.569  0.1362  0.2349 -0.2681
   96MOL    C4236332   2.070   4.975   5.610  0.6773 -0.2262  0.6522
   96MOL    C4336333   2.135   5.009   5.745 -0.3547 -0.0696 -0.2669
   96MOL    C4436334   2.139   5.165   5.754  0.3910  0.1232  0.0792
   96MOL    C4536335   2.011   5.206   5.687  0.3976 -0.7322  0.4277
   96MOL    C4636336   1.750   5.047   5.637 -0.0101 -1.2546 -0.2856
   96MOL    H4736337   1.839   4.971   5.472 -1.4606  0.1702  0.5217
   96MOL    H4836338   2.040   5.145   5.483 -1.1080  1.3905 -0.5029
   96MOL    H4936339   2.136   4.951   5.526  0.1327 -0.5850  0.3205
   96MOL    H5036340   2.004   4.888   5.610 -0.7335  0.7323 -3.1763
   96MOL    H5136341   2.234   4.965   5.759  1.2333  2.3556 -3.2089
   96MOL    H5236342   2.075   4.974   5.829  0.2823 -3.3897 -1.0930
   96MOL    H5336343   2.143   5.198   5.858  0.7302 -0.0400  0.1187
   96MOL    H5436344   2.224   5.211   5.704  0.5860 -0.3107  0.0105
   96MOL    H5536345   1.926   5.215   5.755 -1.1014  0.0659 -1.4978
   96MOL    H5636346   2.018   5.303   5.638  1.7722 -1.0530 -0.0294
   96MOL    H5736347   1.809   5.000   5.717 -0.3756  1.9794  1.9834
   96MOL    H5836348   1.718   5.144   5.675  0.2024 -1.2905 -0.0070
   96MOL    C5936349   1.615   4.974   5.593  0.4902  0.1293  0.1326
   96MOL    C6036350   1.619   4.821   5.626  0.5861  0.5664  0.2187
   96MOL    C6136351   1.724   4.737   5.557 -0.7274 -0.0926  0.1173
   96MOL    C6236352   1.678   4.590   5.587  0.1215  0.3497 -0.9917
   96MOL    C6336353   1.532   4.614   5.535  0.4922 -0.5606 -0.1218
   96MOL    C6436354   1.488   4.743   5.598 -0.2455  0.6057 -0.6221
   96MOL    C6536355   1.487   5.057   5.626 -0.3639 -0.4446 -0.2007
   96MOL    H6636356   1.607   4.977   5.485 -0.1011  3.1583  0.2076
   96MOL    H6736357   1.647   4.806   5.730  0.4295  2.7717  0.6046
   96MOL    H6836358   1.827   4.747   5.592 -0.4377  0.1834 -0.8020
   96MOL    H6936359   1.728   4.764   5.452  1.2937 -0.2769  0.1153
   96MOL    H7036360   1.678   4.559   5.691 -1.2728 -0.8394 -1.3282
   96MOL    H7136361   1.734   4.521   5.525 -0.9435  0.1801 -1.7902
   96MOL    H7236362   1.469   4.529   5.561  0.4197 -0.7319 -0.8677
   96MOL    H7336363   1.514   4.624   5.428 -1.1414  0.4546  0.2244
   96MOL    H7436364   1.415   4.792   5.534 -0.5557 -0.1959 -0.8898
   96MOL    H7536365   1.443   4.713   5.693 -0.0054  0.3743 -0.5788
   96MOL    H7636366   1.423   5.020   5.546  0.2196 -0.4002 -0.6932
   96MOL    H7736367   1.505   5.163   5.609  0.4143 -0.7986 -1.6225
   96MOL    C7836368   1.408   5.041   5.767  0.4458  0.3010 -0.3578
   96MOL    C7936369   1.505   5.051   5.890 -0.0622  1.6972 -0.2337
   96MOL    C8036370   1.445   4.991   6.019 -0.0606  0.3614  0.3910
   96MOL    C8136371   1.510   5.071   6.132 -0.1560  0.2683  0.0067
   96MOL    C8236372   1.538   5.211   6.075  0.6085 -0.4068 -0.3377
   96MOL    C8336373   1.555   5.188   5.927  0.1219 -0.1554 -0.5727
   96MOL    C8436374   1.293   5.141   5.770  0.2650 -0.0133 -0.1847
   96MOL    H8536375   1.362   4.942   5.771  2.5259 -0.6405  1.0851
   96MOL    H8636376   1.593   4.989   5.873 -1.8599 -0.8249 -0.7697
   96MOL    H8736377   1.448   4.883   6.036 -0.5007  0.2872 -0.0077
   96MOL    H8836378   1.337   5.004   6.025 -0.1381  0.3613 -0.9166
   96MOL    H8936379   1.596   5.022   6.176 -0.8065  0.4094  1.4825
   96MOL    H9036380   1.444   5.085   6.218 -0.4269 -0.4272 -0.0865
   96MOL    H9136381   1.447   5.267   6.096 -0.3228 -1.8674 -0.4080
   96MOL    H9236382   1.624   5.245   6.133  0.1227 -1.4617  1.0158
   96MOL    H9336383   1.501   5.272   5.883 -0.0891 -0.7111 -1.4020
   96MOL    H9436384   1.660   5.208   5.908  0.0659  2.2141  1.4118
   96MOL    H9536385   1.343   5.237   5.754 -1.3087  0.9872  0.8000
   96MOL    H9636386   1.240   5.142   5.866 -0.2553  0.1696 -0.4728
   96MOL    C9736387   1.183   5.118   5.668  0.2309  0.6761  0.5642
   96MOL    C9836388   1.103   5.251   5.645  0.4393 -0.2482 -0.2404
   96MOL    C9936389   1.008   5.290   5.755 -0.1401 -0.1995 -0.1184
   96MOL   C10036390   1.023   5.441   5.761  0.8225  0.0377  0.7303
   96MOL   C10136391   1.163   5.472   5.724  0.1035 -0.0098 -0.0924
   96MOL   C10236392   1.182   5.373   5.603  0.0299 -0.2377 -0.4965
   96MOL   C10336393   1.094   5.003   5.708 -0.5670  0.4074 -0.4599
   96MOL   H10436394   1.220   5.093   5.569 -0.2046  0.4306  0.4617
   96MOL   H10536395   1.042   5.239   5.556  1.3522 -0.7423 -0.8069
   96MOL   H10636396   0.907   5.255   5.737 -0.4973  0.7553  0.0030
   96MOL   H10736397   1.038   5.240   5.847 -0.1686  1.0310  0.5815
   96MOL   H10836398   1.004   5.488   5.858  0.7084 -0.6720  1.0582
   96MOL   H10936399   0.947   5.478   5.692 -1.2380 -1.9355  1.8637
   96MOL   H11036400   1.238   5.445   5.798  0.3431 -0.0134 -0.3351
   96MOL   H11136401   1.183   5.579   5.710 -3.0742  0.8633  1.6585
   96MOL   H11236402   1.146   5.408   5.507 -3.3916 -0.9014  0.4667
   96MOL   H11336403   1.288   5.360   5.583  0.5843  3.0297  0.0875
   96MOL   H11436404   1.152   4.910   5.701  0.0360  0.4696  2.6980
   96MOL   H11536405   1.065   5.014   5.812 -0.8815 -1.0404 -0.3858
   96MOL   C11636406   0.971   4.967   5.623 -0.0853  0.1276  0.3794
   96MOL   C11736407   1.002   4.856   5.512 -0.2375  0.5523 -0.2824
   96MOL   C11836408   0.884   4.832   5.410  0.2182  0.1607  0.1343
   96MOL   C11936409   0.950   4.756   5.302 -0.0873 -0.3112  0.3710
   96MOL   C12036410   1.098   4.801   5.287  0.4671  0.1607  0.1554
   96MOL   C12136411   1.127   4.880   5.414 -0.1363 -0.1926 -0.2420
   96MOL   C12236412   0.839   4.949   5.702 -0.1652 -0.8388  0.3392
   96MOL   H12336413   0.949   5.056   5.563 -1.4877 -0.7979 -0.5087
   96MOL   H12436414   1.023   4.760   5.559 -0.7985  0.6496  0.1710
   96MOL   H12536415   0.795   4.784   5.450 -0.0328  0.1547 -0.4172
   96MOL   H12636416   0.858   4.931   5.371  0.0716  0.1776  0.2734
   96MOL   H12736417   0.897   4.766   5.207 -1.2830 -1.0503  0.9528
   96MOL   H12836418   0.953   4.647   5.314 -0.2558 -0.4005 -0.3455
   96MOL   H12936419   1.108   4.864   5.199  3.5341  1.4970  1.4027
   96MOL   H13036420   1.167   4.720   5.264  1.2588  1.3466 -1.6850
   96MOL   H13136421   1.220   4.849   5.461 -0.7380 -1.0532  0.3818
   96MOL   H13236422   1.148   4.985   5.391  0.5391  0.2153  2.1372
   96MOL   H13336423   0.765   4.957   5.622  2.3522 -1.2415 -2.0987
   96MOL   H13436424   0.837   5.038   5.766  3.3560 -1.1298  0.9681
   96MOL   C13536425   0.819   4.816   5.776  0.6829 -0.7109 -0.2237
   96MOL   C13636426   0.668   4.799   5.825  0.0946 -0.1303 -0.3968
   96MOL   C13736427   0.562   4.792   5.707  0.1052  0.1689 -0.5040
   96MOL   C13836428   0.427   4.814   5.769  0.2787 -0.2924 -0.2099
   96MOL   C13936429   0.458   4.923   5.882 -0.3892 -0.1787  0.9100
   96MOL   C14036430   0.605   4.903   5.926 -0.1675 -0.4601  0.1933
   96MOL   C14136431   0.928   4.805   5.887 -1.3461  0.3942 -0.0038
   96MOL   H14236432   0.838   4.742   5.697  1.2517 -0.3889 -0.3873
   96MOL   H14336433   0.658   4.697   5.863 -0.1510 -0.2196 -0.7013
   96MOL   H14436434   0.578   4.873   5.637  1.2894  0.4172  0.0478
   96MOL   H14536435   0.570   4.700   5.648  1.3923  1.1812 -1.9563
   96MOL   H14636436   0.408   4.721   5.822 -0.4682  0.9999  1.8602
   96MOL   H14736437   0.340   4.833   5.706  0.8853 -2.1619 -1.6361
   96MOL   H14836438   0.385   4.921   5.962 -0.9541 -1.6458  0.3643
   96MOL   H14936439   0.447   5.020   5.833 -3.8347 -0.0479  1.8262
   96MOL   H15036440   0.655   5.000   5.914 -0.5032 -0.2091  0.7929
   96MOL   H15136441   0.599   4.871   6.030  1.8556 -0.6312  0.2790
   96MOL   H15236442   0.932   4.904   5.932  1.4410  0.1673  0.3522
   96MOL   H15336443   1.021   4.781   5.835 -1.1183  0.0035  0.5762
   96MOL   C15436444   0.923   4.694   5.997  0.4108 -0.4408  0.0835
   96MOL   C15536445   1.057   4.607   6.001 -0.0113  0.1548  0.6693
   96MOL   C15636446   1.182   4.705   6.025 -0.5502 -0.0541  0.1565
   96MOL   C15736447   1.259   4.683   5.898 -0.1479 -0.4074  0.1686
   96MOL   C15836448   1.230   4.543   5.844  0.2725  0.5141 -0.3563
   96MOL   C15936449   1.073   4.520   5.872 -0.1156  0.5002 -0.2425
   96MOL   C16036450   0.886   4.753   6.144  1.0525 -0.0798  0.1491
   96MOL   H16136451   0.844   4.621   5.980  1.1967 -1.6842  1.5624
   96MOL   H16236452   1.052   4.538   6.086 -2.1146 -0.1626  0.3280
   96MOL   H16336453   1.158   4.807   6.055  1.7663 -0.1688  2.5689
   96MOL   H16436454   1.234   4.660   6.109  1.7960  0.3048 -1.0606
   96MOL   H16536455   1.228   4.755   5.821  0.1352 -1.5230 -1.0141
   96MOL   H16636456   1.364   4.700   5.918 -0.0945 -0.1009 -0.3516
   96MOL   H16736457   1.279   4.467   5.904  1.1400  1.4442  0.1301
   96MOL   H16836458   1.255   4.534   5.738  2.2142 -2.8958  0.3400
   96MOL   H16936459   1.049   4.414   5.881  0.9390  0.2607 -0.2357
   96MOL   H17036460   1.018   4.568   5.790 -1.6325 -1.0303 -0.1516
   96MOL   H17136461   0.852   4.855   6.127  1.2837  0.0208  0.2900
   96MOL   H17236462   0.977   4.763   6.204  2.2383 -1.8947 -1.2643
   96MOL   C17336463   0.775   4.662   6.221 -0.2380  0.2007  0.3489
   96MOL   C17436464   0.725   4.718   6.357 -0.2414 -0.4471 -0.0030
   96MOL   C17536465   0.681   4.863   6.354 -0.7456  0.2492  0.6068
   96MOL   C17636466   0.667   4.915   6.501  0.4000  0.4325  0.0422
   96MOL   C17736467   0.770   4.831   6.574  0.4262 -0.0732  0.1059
   96MOL   C17836468   0.819   4.726   6.474  0.1115  0.5670  0.1647
   96MOL   C17936469   0.821   4.514   6.235  0.2069  0.1972 -0.1641
   96MOL   H18036470   0.688   4.654   6.155 -1.0591  1.7411  1.2221
   96MOL   H18136471   0.635   4.666   6.389 -0.4278 -0.7006 -0.9218
   96MOL   H18236472   0.585   4.881   6.306  0.0474 -0.3403 -1.2690
   96MOL   H18336473   0.745   4.928   6.293 -0.6389 -0.2859  0.1490
   96MOL   H18436474   0.705   5.016   6.520 -0.5411  1.1750 -1.8485
   96MOL   H18536475   0.564   4.911   6.538  0.6036  0.1623  0.5808
   96MOL   H18636476   0.731   4.795   6.669 -0.8060 -0.9580 -0.7239
   96MOL   H18736477   0.861   4.885   6.600 -0.0684  0.7369  0.2070
   96MOL   H18836478   0.923   4.742   6.443 -0.5315 -2.0787 -3.6594
   96MOL   H18936479   0.834   4.633   6.531  0.4299  0.3185 -0.3197
   96MOL   H19036480   0.858   4.474   6.141  0.2740  0.0583 -0.0807
   96MOL   H19136481   0.910   4.516   6.298 -1.3200 -1.3645  2.1310
   96MOL   C19236482   0.725   4.396   6.269  0.1117 -0.0791 -0.3409
   96MOL   C19336483   0.808   4.313   6.368  0.2051 -0.0811 -0.1307
   96MOL   C19436484   0.932   4.242   6.303  0.4870 -1.0261 -0.2189
   96MOL   C19536485   0.951   4.122   6.397 -0.5615 -0.4143  0.1741
   96MOL   C19636486   0.813   4.079   6.441  0.0007  0.1536  0.5755
   96MOL   C19736487   0.722   4.198   6.423  0.8292 -0.6471  0.6311
   96MOL   C19836488   0.675   4.318   6.145  0.4079 -0.1975 -0.0636
   96MOL   H19936489   0.638   4.442   6.315  1.3809  0.0126  2.0719
   96MOL   H20036490   0.845   4.375   6.450  0.4994 -0.1205 -0.2349
   96MOL   H20136491   1.022   4.302   6.293 -0.7324  0.6378 -1.3192
   96MOL   H20236492   0.913   4.211   6.200 -1.7936  1.3070 -0.5528
   96MOL   H20336493   0.998   4.038   6.346  0.4899  1.7079 -2.4874
   96MOL   H20436494   1.004   4.144   6.490 -3.5558 -3.0660  2.6186
   96MOL   H20536495   0.806   4.044   6.544 -0.7951 -0.8091  0.1990
   96MOL   H20636496   0.779   3.993   6.384  0.2953 -0.2258  0.9703
   96MOL   H20736497   0.674   4.224   6.517  0.4581 -1.8480  0.7784
   96MOL   H20836498   0.637   4.167   6.361 -0.5231 -0.0683  2.1715
   96MOL   H20936499   0.761   4.282   6.088 -1.6908 -4.1232 -0.9625
   96MOL   H21036500   0.633   4.222   6.175 -2.1672  0.4048 -1.5889
   96MOL   C21136501   0.568   4.395   6.062  0.4436  0.7816 -0.1725
   96MOL   C21236502   0.577   4.372   5.916 -0.4351 -0.2530 -0.0286
   96MOL   C21336503   0.707   4.400   5.838 -0.0597  0.8788 -0.4568
   96MOL   C21436504   0.701   4.323   5.710 -0.0714 -0.4774 -0.5560
   96MOL   C21536505   0.631   4.195   5.747 -0.2541 -0.1918 -0.5381
   96MOL   C21636506   0.546   4.229   5.870  0.0421 -0.1196  0.1884
   96MOL   C21736507   0.430   4.366   6.135 -0.4451  0.0196  0.2081
   96MOL   H21836508   0.572   4.502   6.078 -0.4789  0.8472 -0.3496
   96MOL   H21936509   0.503   4.431   5.861 -0.2720 -0.3022 -0.3003
   96MOL   H22036510   0.716   4.507   5.817  3.3759  0.9177  0.8864
   96MOL   H22136511   0.791   4.371   5.900  1.4172  0.5146 -2.5895
   96MOL   H22236512   0.633   4.373   5.642  0.8262  2.2672  0.5175
   96MOL   H22336513   0.800   4.306   5.666  0.8947 -0.2387  1.4879
   96MOL   H22436514   0.698   4.112   5.765  0.4817  0.2605 -1.1635
   96MOL   H22536515   0.557   4.169   5.671 -1.4510 -0.2161  0.6133
   96MOL   H22636516   0.440   4.203   5.863 -0.8540  3.0720  1.3727
   96MOL   H22736517   0.593   4.167   5.947 -0.2376  0.5994  0.9478
   96MOL   H22836518   0.448   4.336   6.238 -0.4285  0.3778  0.3117
   96MOL   H22936519   0.374   4.287   6.085  1.3246  0.7684 -3.1092
   96MOL   C23036520   0.326   4.483   6.151 -0.9707  0.8831 -0.3097
   96MOL   C23136521   0.365   4.577   6.264  0.2201  0.1148  0.9518
   96MOL   C23236522   0.306   4.716   6.271  0.1866  0.0718 -0.0076
   96MOL   C23336523   0.308   4.750   6.418  0.5105  0.8750 -0.5379
   96MOL   C23436524   0.339   4.632   6.499 -0.3347 -0.2768 -0.5623
   96MOL   C23536525   0.334   4.516   6.400 -0.1274  0.8417 -0.3161
   96MOL   C23636526   0.184   4.433   6.137 -0.1853  0.4075 -0.1312
   96MOL   H23736527   0.350   4.548   6.067 -0.8830  1.1039 -0.1146
   96MOL   H23836528   0.471   4.597   6.256  0.1807 -0.2543 -0.6365
   96MOL   H23936529   0.360   4.782   6.203 -1.7533  1.2948 -0.3977
   96MOL   H24036530   0.204   4.720   6.235  0.0930  0.4570  0.2926
   96MOL   H24136531   0.377   4.830   6.448  0.7271  0.8008 -0.8321
   96MOL   H24236532   0.208   4.781   6.449  0.9595 -0.6108  2.6234
   96MOL   H24336533   0.280   4.603   6.586 -0.3484 -0.9365 -0.7922
   96MOL   H24436534   0.441   4.649   6.535 -0.6384  0.1962  0.1051
   96MOL   H24536535   0.233   4.475   6.406  0.6911 -1.3009 -0.8338
   96MOL   H24636536   0.399   4.429   6.416  1.0916  1.7658 -0.1775
   96MOL   H24736537   0.120   4.493   6.201  1.1797  1.3101  0.4025
   96MOL   H24836538   0.166   4.330   6.167 -0.5798  0.3428 -0.5819
   96MOL   C24936539   0.115   4.453   6.001  0.0761  0.5357 -0.0641
   96MOL   C25036540   7.648   4.451   6.010  0.5751 -0.0191 -0.0177
   96MOL   C25136541   7.589   4.586   6.053 -0.0897  0.5415 -0.2413
   96MOL   C25236542   7.450   4.553   6.114 -0.0666  0.1245 -0.4270
   96MOL   C25336543   7.473   4.418   6.183  0.0714  0.6090 -0.4524
   96MOL   C25436544   7.579   4.338   6.095  0.3333  0.3193  0.0666
   96MOL   C25536545   0.158   4.336   5.907 -0.5851  0.2224 -0.8684
   96MOL   H25636546   0.147   4.544   5.951  1.6896  0.0849  0.1311
   96MOL   H25736547   7.613   4.436   5.908 -1.6384 -0.2848  0.7522
   96MOL   H25836548   7.589   4.650   5.964  2.3182 -1.7170 -1.9127
   96MOL   H25936549   7.653   4.637   6.124  0.4809  1.5548 -1.4563
   96MOL   H26036550   7.366   4.554   6.045 -1.2113  1.5496  0.9622
   96MOL   H26136551   7.421   4.627   6.189  0.9855  0.0017  0.1177
   96MOL   H26236552   7.379   4.363   6.186  1.1918 -1.3555 -0.9833
   96MOL   H26336553   7.511   4.419   6.285 -2.3553  1.3865  0.4825
   96MOL   H26436554   7.521   4.279   6.023  0.0481  0.2786  0.3272
   96MOL   H26536555   7.646   4.273   6.149  1.8826  1.9227  0.1062
   96MOL   H26636556   0.261   4.364   5.883  0.0295 -1.9610 -0.8744
   96MOL   H26736557   0.151   4.236   5.949 -0.1868  0.3359 -0.5335
   96MOL   C26836558   0.093   4.323   5.769 -0.3347  0.2118 -0.1933
   96MOL   C26936559   0.174   4.215   5.700  0.4857 -0.2053 -0.6726
   96MOL   C27036560   0.112   4.177   5.560  0.6698  0.3083 -0.6347
   96MOL   C27136561   0.153   4.034   5.521 -0.7190 -0.0766  0.4475
   96MOL   C27236562   0.200   3.980   5.647 -1.1178 -0.2786  0.4390
   96MOL   C27336563   0.187   4.079   5.768 -0.1370 -0.4956 -0.4109
   96MOL   C27436564   0.086   4.454   5.691  0.7346  0.4398  0.7070
   96MOL   H27536565   7.681   4.290   5.790 -0.6882 -0.5640 -2.9344
   96MOL   H27636566   0.276   4.251   5.687  0.7660 -0.2857  1.2073
   96MOL   H27736567   0.003   4.181   5.562  0.6149 -0.9886 -0.9028
   96MOL   H27836568   0.153   4.237   5.479  0.5918  0.5750 -0.4775
   96MOL   H27936569   0.070   3.975   5.484 -1.4297  0.9183  0.4349
   96MOL   H28036570   0.223   4.027   5.438  0.6835  1.1304  1.4919
   96MOL   H28136571   0.308   3.968   5.658 -1.2532 -1.1393  0.9555
   96MOL   H28236572   0.158   3.884   5.676 -1.6154  0.1441  1.1264
   96MOL   H28336573   0.273   4.083   5.834  0.1833  0.1748 -0.8591
   96MOL   H28436574   0.097   4.056   5.825  0.8351 -0.1149  1.3011
   96MOL   H28536575   0.183   4.466   5.644  0.3213  0.1447 -0.2443
   96MOL   H28636576   0.069   4.535   5.761 -0.7753 -0.2989  1.2162
   96MOL   C28736577   7.663   4.468   5.588  0.5484  0.2759  0.1863
   96MOL   C28836578   7.516   4.430   5.626  0.0506 -0.4514 -0.0084
   96MOL   C28936579   7.434   4.553   5.678 -0.1520 -0.8733 -0.5815
   96MOL   C29036580   7.288   4.509   5.653 -0.5237  0.4371 -0.5106
   96MOL   C29136581   7.283   4.415   5.530  0.5717 -0.1421  0.2770
   96MOL   C29236582   7.435   4.373   5.508  0.3379  0.4400  0.0084
   96MOL   C29336583   7.671   4.605   5.513 -0.1355 -0.3999 -0.2967
   96MOL   H29436584   7.689   4.398   5.509  3.2265  2.1051 -0.6073
   96MOL   H29536585   7.511   4.349   5.699 -1.1785 -0.9950 -0.6806
   96MOL   H29636586   7.462   4.586   5.777 -0.4003  0.0230 -0.8051
   96MOL   H29736587   7.434   4.642   5.615  2.3534  1.4175  2.5303
   96MOL   H29836588   7.248   4.465   5.745  1.7122 -3.3134 -1.2356
   96MOL   H29936589   7.226   4.594   5.625 -0.6649  0.0230 -1.4592
   96MOL   H30036590   7.248   4.462   5.438  0.8402 -1.3357 -0.4492
   96MOL   H30136591   7.210   4.337   5.549 -0.2860  0.9132  1.4132
   96MOL   H30236592   7.462   4.417   5.413 -2.7636  0.0581 -1.1014
   96MOL   H30336593   7.442   4.264   5.499 -1.8601  0.2387  0.5388
   96MOL   H30436594   7.672   4.692   5.578 -3.1731  0.2716 -1.0422
   96MOL   H30536595   7.575   4.603   5.460 -0.9659 -0.9432  1.1962
   96MOL   C30636596   0.097   4.615   5.407  0.0525  0.1002  1.5133
   96MOL   C30736597   0.039   4.681   5.277  0.1378 -0.3011 -0.1569
   96MOL   C30836598   7.635   4.602   5.179  0.9663  0.1235  0.2428
   96MOL   C30936599   7.525   4.708   5.119  0.2496  0.0772 -0.2083
   96MOL   C31036600   7.574   4.841   5.166  0.5654 -0.7453 -0.4994
   96MOL   C31136601   7.653   4.808   5.297  0.1984 -0.3246 -0.8761
   96MOL   C31236602   0.227   4.686   5.459 -0.4090  0.1780 -0.4905
   96MOL   H31336603   0.118   4.512   5.377  1.3055  0.6629  0.4246
   96MOL   H31436604   0.120   4.717   5.213  0.0475 -0.1058 -0.1631
   96MOL   H31536605   7.581   4.527   5.235  1.5776 -0.5779 -0.1025
   96MOL   H31636606   7.676   4.538   5.102 -0.7510  0.5251 -1.0350
   96MOL   H31736607   7.519   4.700   5.011  1.8148 -0.4152 -0.2794
   96MOL   H31836608   7.432   4.682   5.170 -0.5258 -1.6076 -2.3791
   96MOL   H31936609   7.488   4.906   5.185  0.2815 -1.8640  2.2936
   96MOL   H32036610   7.635   4.895   5.094  0.8304  0.2525  0.4502
   96MOL   H32136611   0.030   4.888   5.325 -0.3907 -0.6371  1.4861
   96MOL   H32236612   7.581   4.802   5.378  1.2740  1.9401  0.2770
   96MOL   H32336613   0.256   4.651   5.558 -1.5638 -0.1483 -0.2651
   96MOL   H32436614   0.206   4.792   5.474  2.4137  0.9352 -1.4428
   96MOL   C32536615   0.348   4.671   5.371  0.4793 -0.3137 -0.2196
   96MOL   C32636616   0.428   4.544   5.411  0.7307  0.5297  0.2967
   96MOL   C32736617   0.556   4.521   5.327 -0.1235  0.4508  0.7294
   96MOL   C32836618   0.603   4.375   5.341  0.1425 -0.0746  1.1591
   96MOL   C32936619   0.477   4.308   5.389 -0.2564 -0.6451 -0.4053
   96MOL   C33036620   0.359   4.410   5.400  0.1759 -0.7760 -0.2830
   96MOL   C33136621   0.440   4.799   5.364  0.5652 -0.5145  0.8001
   96MOL   H33236622   0.320   4.642   5.269  1.8694 -0.7164 -0.5112
   96MOL   H33336623   0.439   4.562   5.518  0.1887 -0.1082  0.4645
   96MOL   H33436624   0.640   4.587   5.349  1.4103 -0.7772 -1.2467
   96MOL   H33536625   0.535   4.531   5.220  1.5782  1.2648  0.4512
   96MOL   H33636626   0.686   4.369   5.411 -0.8056  1.2645  2.4224
   96MOL   H33736627   0.632   4.328   5.247  0.7481  0.7420  0.9284
   96MOL   H33836628   0.516   4.271   5.484 -0.8823  0.4385  0.2886
   96MOL   H33936629   0.447   4.221   5.331 -1.0162  0.1714 -1.2515
   96MOL   H34036630   0.291   4.398   5.485  2.4399 -2.3470  1.3484
   96MOL   H34136631   0.297   4.396   5.311  1.6217  0.9996 -1.6119
   96MOL   H34236632   0.544   4.780   5.340 -0.0494 -0.8394 -1.8292
   96MOL   H34336633   0.439   4.850   5.460  0.5771  1.6725 -0.3194
   96MOL   C34436634   0.387   4.909   5.260 -1.2819  0.1144  0.4043
   96MOL   C34536635   0.428   4.878   5.118 -0.2760 -0.5612 -0.0640
   96MOL   C34636636   0.585   4.873   5.095 -0.1803 -0.1108 -0.4779
   96MOL   C34736637   0.610   4.924   4.953 -0.1988  0.2898  0.2443
   96MOL   C34836638   0.500   5.038   4.934 -0.1540  0.1889 -0.2807
   96MOL   C34936639   0.372   4.976   5.011 -0.2695 -0.5576  0.5846
   96MOL   C35036640   0.436   5.045   5.316 -0.6865  0.0045 -0.8537
   96MOL   H35136641   0.279   4.897   5.267 -1.1333 -0.7158  1.3720
   96MOL   H35236642   0.384   4.783   5.090 -1.2045 -0.0253 -0.4211
   96MOL   H35336643   0.634   4.778   5.114 -0.1622  0.0340  0.2058
   96MOL   H35436644   0.625   4.939   5.172 -0.2508  0.5121 -0.9723
   96MOL   H35536645   0.708   4.968   4.933  1.1486 -2.4910  0.5829
   96MOL   H35636646   0.597   4.856   4.868  1.8896 -1.9737  1.6969
   96MOL   H35736647   0.472   5.058   4.830  0.5904 -0.8993 -0.6935
   96MOL   H35836648   0.530   5.130   4.984  3.1167 -1.5938  1.1952
   96MOL   H35936649   0.330   5.056   5.072 -1.1602  0.4049 -1.2276
   96MOL   H36036650   0.294   4.945   4.940 -0.3707  0.8473  0.0623
   96MOL   H36136651   0.477   5.119   5.247 -0.9074  0.7851 -0.1550
   96MOL   H36236652   0.524   5.036   5.381  1.1798  0.1323 -3.2903
   96MOL   C36336653   0.336   5.120   5.392 -0.5439  0.0250  0.5885
   96MOL   C36436654   0.391   5.227   5.480 -0.1944  0.0964 -0.3290
   96MOL   C36536655   0.507   5.183   5.580  0.1834  0.5708 -0.1867
   96MOL   C36636656   0.502   5.280   5.700 -0.0184  0.4200  0.5133
   96MOL   C36736657   0.350   5.326   5.703 -0.5892  0.4674 -0.4686
   96MOL   C36836658   0.281   5.271   5.578 -0.4639 -0.6657 -0.4794
   96MOL   C36936659   0.215   5.159   5.307 -0.1926  0.3233 -0.5196
   96MOL   H37036660   0.292   5.056   5.468  0.7500 -1.6277 -0.0221
   96MOL   H37136661   0.417   5.318   5.425  0.0840  0.0154 -0.3346
   96MOL   H37236662   0.485   5.082   5.614 -0.5251  1.8350  3.2775
   96MOL   H37336663   0.601   5.184   5.525  0.3451 -1.4657  0.0124
   96MOL   H37436664   0.539   5.240   5.794  2.5266  2.0796  0.2882
   96MOL   H37536665   0.572   5.361   5.680  1.1078 -0.8949 -1.1217
   96MOL   H37636666   0.300   5.292   5.793  0.6212 -0.4470 -0.1229
   96MOL   H37736667   0.356   5.435   5.694  1.4511  0.2088 -2.5987
   96MOL   H37836668   0.207   5.339   5.536 -0.0493 -0.3083 -0.6362
   96MOL   H37936669   0.220   5.186   5.607  0.1796 -1.0781 -0.3252
   96MOL   H38036670   0.174   5.075   5.251  0.7133  1.0725 -2.3689
   96MOL   H38136671   0.253   5.231   5.235  2.6482 -0.4364  0.1756
   96MOL   H38236672   0.138   5.204   5.370  0.9147  0.0455  1.0656
   97MOL     C136673   7.584   4.828   3.923 -0.1963 -0.1000 -0.0272
   97MOL     C236674   0.017   4.750   3.989 -0.8261 -0.2534 -0.2701
   97MOL     C336675   0.132   4.716   3.892  0.4937 -0.4501  0.1355
   97MOL     C436676   0.189   4.584   3.935 -0.0170  0.2226 -0.0098
   97MOL     C536677   0.063   4.508   3.986 -0.3683 -0.2703 -0.2099
   97MOL     C636678   7.660   4.613   4.048  0.1250 -0.4914  0.4338
   97MOL     C736679   7.632   4.969   3.874 -0.0387  0.3692 -0.3685
   97MOL     H836680   7.530   4.782   3.840  3.7894 -1.8296 -1.7890
   97MOL     H936681   0.059   4.808   4.071  1.2396 -0.7302 -0.9609
   97MOL    H1036682   0.099   4.705   3.789  0.6697 -0.8511  0.1243
   97MOL    H1136683   0.206   4.796   3.881  0.8577 -0.7321  0.5267
   97MOL    H1236684   0.240   4.538   3.850  0.6094  1.2286 -0.1898
   97MOL    H1336685   0.262   4.602   4.014  1.0092  0.4810 -0.9895
   97MOL    H1436686   0.009   4.463   3.903 -1.5280  0.3248  0.2168
   97MOL    H1536687   0.098   4.428   4.051 -0.4749 -0.2537 -0.1335
   97MOL    H1636688   7.659   4.614   4.157 -1.8591  1.5946  0.4530
   97MOL    H1736689   7.560   4.584   4.015 -0.8590  2.5850  0.5087
   97MOL    H1836690   7.681   5.019   3.957  1.6015 -1.4936 -0.1947
   97MOL    H1936691   0.019   4.961   3.797  0.9834  1.5155  0.5214
   97MOL    H2036692   7.520   4.841   4.010  0.5733  0.0791  0.5166
   97MOL    C2136693   7.533   5.066   3.818  0.5300 -0.2091 -0.9430
   97MOL    C2236694   7.422   5.095   3.915  0.0990  0.3024 -0.9097
   97MOL    C2336695   7.282   5.124   3.860 -0.3136 -0.1247  0.2744
   97MOL    C2436696   7.236   5.258   3.931  0.4258 -0.2861 -0.1228
   97MOL    C2536697   7.321   5.261   4.058 -0.9236 -0.1262 -0.2749
   97MOL    C2636698   7.452   5.200   4.016  0.1654 -0.4567  0.3115
   97MOL    C2736699   7.588   5.200   3.749 -0.9983  0.8061 -0.3289
   97MOL    H2836700   7.484   5.016   3.735  0.5814 -2.4136  0.3231
   97MOL    H2936701   7.407   4.997   3.961  1.6629  0.3750 -0.2355
   97MOL    H3036702   7.200   5.053   3.869  0.2429 -0.9176 -0.8748
   97MOL    H3136703   7.289   5.140   3.753 -0.5553  0.7329  0.3831
   97MOL    H3236704   7.252   5.347   3.870  2.1263 -0.0128  0.6794
   97MOL    H3336705   7.131   5.252   3.960  0.7425  0.4355  1.2229
   97MOL    H3436706   7.281   5.187   4.127  0.0950 -0.2865  0.1482
   97MOL    H3536707   7.334   5.355   4.112  0.4455 -1.0234  0.9821
   97MOL    H3636708   7.508   5.164   4.103  2.0421  0.6549 -0.4044
   97MOL    H3736709   7.510   5.280   3.969  0.0952  0.7285  2.1546
   97MOL    H3836710   7.501   5.266   3.746  0.4215  2.7002 -1.1016
   97MOL    H3936711   7.661   5.257   3.806  0.3858  0.6190 -1.8860
   97MOL    C4036712   7.644   5.182   3.607  0.0990  0.5758 -1.5369
   97MOL    C4136713   7.617   5.310   3.527 -0.2205 -0.5263  0.1169
   97MOL    C4236714   7.472   5.326   3.477 -0.4777 -0.0383  0.0833
   97MOL    C4336715   7.472   5.438   3.379  0.2407 -0.4991  0.1217
   97MOL    C4436716   7.608   5.440   3.312  0.6456  0.4517  0.4231
   97MOL    C4536717   0.006   5.343   3.397 -0.1703  0.0943  0.7515
   97MOL    C4636718   0.101   5.150   3.614 -0.7094 -0.1300  0.5318
   97MOL    H4736719   7.587   5.106   3.554  0.7668  0.0950 -1.5726
   97MOL    H4836720   7.626   5.392   3.598  0.3739 -1.2822  0.9275
   97MOL    H4936721   7.398   5.346   3.555 -0.4647 -0.7515  0.2787
   97MOL    H5036722   7.438   5.232   3.433 -0.1961  0.0505 -0.3166
   97MOL    H5136723   7.468   5.537   3.424  0.8881 -0.4502  0.0854
   97MOL    H5236724   7.386   5.455   3.314  0.8836  0.2885 -0.5388
   97MOL    H5336725   7.601   5.409   3.208 -1.5698 -3.3525  1.6333
   97MOL    H5436726   7.644   5.543   3.315  0.3922  0.5305  0.9721
   97MOL    H5536727   0.007   5.250   3.339  0.5875 -0.6798  1.9981
   97MOL    H5636728   0.110   5.369   3.413 -0.4816  1.2191  0.9730
   97MOL    H5736729   0.150   5.246   3.635 -0.1014 -0.5233  0.9530
   97MOL    H5836730   0.124   5.094   3.705  1.4941  1.1047  0.7814
   97MOL    C5936731   0.176   5.070   3.498 -0.4127 -0.3769 -0.4428
   97MOL    C6036732   0.332   5.086   3.494 -0.8044 -0.0792 -0.6234
   97MOL    C6136733   0.406   5.045   3.625  0.4358 -0.3286 -0.8544
   97MOL    C6236734   0.543   5.116   3.613 -0.1844 -0.9325  0.1391
   97MOL    C6336735   0.534   5.226   3.508 -0.1601 -0.2632  0.8577
   97MOL    C6436736   0.384   5.229   3.476  0.6959 -0.3376  0.3570
   97MOL    C6536737   0.142   4.926   3.506  0.0916 -0.2538  0.2534
   97MOL    H6636738   0.131   5.106   3.405 -1.2811  2.4665  1.0285
   97MOL    H6736739   0.378   5.045   3.404 -0.0877  0.7359 -0.6432
   97MOL    H6836740   0.400   4.936   3.622 -2.8740 -0.2156 -0.3224
   97MOL    H6936741   0.355   5.093   3.708 -0.0377 -2.3772  0.0765
   97MOL    H7036742   0.614   5.041   3.581  0.7415 -0.8679  1.9657
   97MOL    H7136743   0.574   5.141   3.715 -0.4279  0.2835 -0.0781
   97MOL    H7236744   0.602   5.211   3.425 -1.0327 -0.3537  0.1579
   97MOL    H7336745   0.580   5.317   3.548  0.7369  0.3822 -1.5771
   97MOL    H7436746   0.345   5.298   3.551  1.3316 -0.5125  0.8600
   97MOL    H7536747   0.359   5.279   3.382  0.6025  2.0114  1.6031
   97MOL    H7636748   0.033   4.922   3.505  0.1224 -1.6383  0.5881
   97MOL    H7736749   0.169   4.880   3.602  1.8422  0.6129  0.1888
   97MOL    C7836750   0.193   4.834   3.388  0.8973 -0.8604  0.2334
   97MOL    C7936751   0.104   4.705   3.398 -0.1204 -0.5174 -0.9140
   97MOL    C8036752   0.111   4.621   3.534 -0.2786 -0.6542  0.1529
   97MOL    C8136753   0.134   4.472   3.493  0.0394 -0.2745  0.0379
   97MOL    C8236754   0.071   4.475   3.351  0.6612  0.1611  0.6639
   97MOL    C8336755   0.111   4.602   3.287 -0.5269 -0.6432  0.3037
   97MOL    C8436756   0.175   4.895   3.243 -0.3365 -0.6824 -0.3848
   97MOL    H8536757   0.294   4.798   3.411 -0.1945 -2.7493  2.2520
   97MOL    H8636758   0.004   4.747   3.387  0.2541  0.1036 -2.0487
   97MOL    H8736759   0.017   4.620   3.589 -1.4440  1.6131 -1.6979
   97MOL    H8836760   0.189   4.658   3.600 -1.6974  1.4626  0.6846
   97MOL    H8936761   0.098   4.395   3.560  0.7266 -0.8900 -0.2938
   97MOL    H9036762   0.239   4.444   3.479 -0.1543 -0.7907 -0.3520
   97MOL    H9136763   0.106   4.395   3.286 -0.3401  0.3004 -0.0580
   97MOL    H9236764   7.654   4.463   3.371  0.0987  1.1492 -1.6074
   97MOL    H9336765   0.209   4.600   3.240 -0.0817  0.4084  1.1711
   97MOL    H9436766   0.037   4.630   3.211 -0.5731  1.1446  0.9712
   97MOL    H9536767   0.162   5.003   3.241 -1.1985 -0.8124 -2.3003
   97MOL    H9636768   0.071   4.869   3.223 -0.9798  1.3238  0.2868
   97MOL    C9736769   0.268   4.845   3.122  0.2379 -0.5706 -0.7138
   97MOL    C9836770   0.420   4.870   3.126  0.2288  0.2231  0.5105
   97MOL    C9936771   0.499   4.809   3.244  0.0387 -0.0759  0.2847
   97MOL   C10036772   0.643   4.808   3.200 -0.6776 -0.0514 -0.0776
   97MOL   C10136773   0.642   4.813   3.041 -0.6639  0.1916 -0.1285
   97MOL   C10236774   0.498   4.821   3.004 -0.7333 -0.9536 -0.1246
   97MOL   C10336775   0.200   4.906   3.000  0.1908 -1.0921  0.2719
   97MOL   H10436776   0.266   4.737   3.114  1.0482 -0.7149  0.8367
   97MOL   H10536777   0.423   4.979   3.129 -1.7224  0.3080 -0.1745
   97MOL   H10636778   0.485   4.872   3.332  3.1489 -0.2044  0.9348
   97MOL   H10736779   0.457   4.715   3.278  1.0724 -0.2995  0.9699
   97MOL   H10836780   0.696   4.724   3.245 -0.1908  1.2670  1.8381
   97MOL   H10936781   0.697   4.892   3.242 -0.8005  0.3771 -0.7731
   97MOL   H11036782   0.683   4.728   2.986  0.1866  0.5681 -0.0960
   97MOL   H11136783   0.701   4.898   3.005  1.0305 -0.3704  1.2295
   97MOL   H11236784   0.471   4.868   2.910 -4.4516  0.1000  1.3858
   97MOL   H11336785   0.464   4.720   2.982 -3.9465 -0.3728  1.8819
   97MOL   H11436786   0.186   5.013   3.018 -0.2244 -1.3864  1.7871
   97MOL   H11536787   0.265   4.893   2.914  0.3485  0.2916  0.1730
   97MOL   C11636788   0.068   4.838   2.949 -0.1875 -1.1575  0.0963
   97MOL   C11736789   7.664   4.929   2.870 -0.0050  0.2472 -1.0959
   97MOL   C11836790   7.595   5.047   2.950 -0.0492  0.3595  0.2389
   97MOL   C11936791   7.526   5.129   2.834  0.0895  0.0973 -0.6583
   97MOL   C12036792   7.622   5.109   2.708  0.1246 -0.1279 -0.3724
   97MOL   C12136793   0.033   4.996   2.748  0.3003 -0.0882  0.3430
   97MOL   C12236794   0.111   4.711   2.870 -0.1277  0.4006  0.6820
   97MOL   H12336795   0.020   4.792   3.035  1.7293 -1.3656  1.0868
   97MOL   H12436796   7.582   4.862   2.841 -0.0213  0.3618 -1.3189
   97MOL   H12536797   7.524   5.014   3.026  0.6475  0.5223  0.9664
   97MOL   H12636798   7.673   5.100   3.004 -0.8589  3.2400 -1.3086
   97MOL   H12736799   7.519   5.236   2.857 -1.3313 -0.4153  1.4433
   97MOL   H12836800   7.428   5.097   2.798 -0.4435  0.2879  0.6031
   97MOL   H12936801   7.677   5.202   2.688  0.2776  0.0208  0.7010
   97MOL   H13036802   7.577   5.083   2.613 -1.7814 -0.9144  0.7345
   97MOL   H13136803   0.060   4.929   2.667  0.3754 -0.8114  0.9527
   97MOL   H13236804   0.128   5.046   2.767 -0.1939  0.3779  1.6931
   97MOL   H13336805   0.184   4.656   2.931 -1.1909 -0.3031  1.3282
   97MOL   H13436806   0.169   4.736   2.781 -0.6089  1.1022  0.5672
   97MOL   C13536807   0.002   4.608   2.826 -0.1589 -0.1526  0.2204
   97MOL   C13636808   0.040   4.465   2.834 -0.0352 -0.0839 -0.6212
   97MOL   C13736809   0.057   4.425   2.976 -0.1413 -0.3258 -0.0144
   97MOL   C13836810   0.125   4.290   2.963 -0.2741  0.2120  0.0822
   97MOL   C13936811   0.213   4.297   2.841 -0.0976  0.0829 -0.0662
   97MOL   C14036812   0.161   4.419   2.760 -0.1555 -1.1209 -0.4986
   97MOL   C14136813   7.642   4.632   2.678  0.0871  0.1773 -0.1494
   97MOL   H14236814   7.608   4.626   2.892 -1.5681 -1.8333 -1.0617
   97MOL   H14336815   7.641   4.418   2.791 -0.2681 -1.8079  1.6258
   97MOL   H14436816   0.120   4.493   3.033  0.3836 -0.5417 -0.3240
   97MOL   H14536817   7.653   4.431   3.030  1.0474  4.0053  1.7607
   97MOL   H14636818   0.048   4.213   2.976  1.8041 -1.6582  1.6129
   97MOL   H14736819   0.186   4.277   3.052  0.5289 -0.8034 -0.6114
   97MOL   H14836820   0.220   4.203   2.786 -0.2026  0.6595 -1.0622
   97MOL   H14936821   0.315   4.322   2.869  0.7537 -1.8667 -1.2644
   97MOL   H15036822   0.225   4.504   2.735 -1.4439 -0.0038 -0.0971
   97MOL   H15136823   0.136   4.386   2.659 -2.3629 -1.1994  0.0422
   97MOL   H15236824   0.020   4.589   2.603 -1.2183  0.7422 -1.6797
   97MOL   H15336825   7.645   4.740   2.667  1.3270  0.2604  0.9177
   97MOL   C15436826   7.497   4.580   2.638  0.3139 -0.2106 -0.2234
   97MOL   C15536827   7.384   4.653   2.719 -0.9297 -0.8813 -0.1605
   97MOL   C15636828   7.244   4.584   2.694 -0.5489 -0.6151 -0.2061
   97MOL   C15736829   7.153   4.693   2.648 -0.0938  0.0328  0.2653
   97MOL   C15836830   7.227   4.817   2.603  0.8779  0.0239  0.1367
   97MOL   C15936831   7.366   4.799   2.673  0.1555 -0.4408 -0.2185
   97MOL   C16036832   7.476   4.585   2.479  0.2526  0.1327 -0.1563
   97MOL   H16136833   7.490   4.474   2.659  2.6927 -0.9691 -2.9524
   97MOL   H16236834   7.399   4.641   2.826  0.5536 -3.2438 -0.5834
   97MOL   H16336835   7.253   4.502   2.623  0.1515  0.9072 -1.9091
   97MOL   H16436836   7.212   4.534   2.786 -1.6365  0.5467  0.0569
   97MOL   H16536837   7.080   4.667   2.571  0.5098 -0.0088 -0.2937
   97MOL   H16636838   7.104   4.733   2.737  0.7329 -0.7091  1.0625
   97MOL   H16736839   7.175   4.906   2.637  1.4498 -0.2383  1.7412
   97MOL   H16836840   7.245   4.813   2.495 -2.5857  1.1100 -0.5405
   97MOL   H16936841   7.377   4.877   2.749  1.1696  0.2775 -1.0896
   97MOL   H17036842   7.447   4.832   2.608 -0.3507 -0.8387 -1.0566
   97MOL   H17136843   7.500   4.685   2.442  0.2798  0.3848  0.5413
   97MOL   H17236844   7.372   4.579   2.448 -0.2956 -0.6924  1.7562
   97MOL   C17336845   7.551   4.476   2.399 -0.0724 -0.1689  0.2465
   97MOL   C17436846   7.620   4.521   2.276  0.6006 -0.6546  0.4042
   97MOL   C17536847   0.048   4.610   2.293  0.9180 -0.4485  0.0033
   97MOL   C17636848   0.078   4.657   2.149 -0.1727 -0.5946 -0.7060
   97MOL   C17736849   7.639   4.639   2.070  0.3060  0.4797  0.4066
   97MOL   C17836850   7.535   4.575   2.160 -1.0278  0.1275  0.3170
   97MOL   C17936851   7.453   4.349   2.379 -0.0467  0.5709  0.5304
   97MOL   H18036852   7.636   4.440   2.458  0.4463  0.3128 -0.1993
   97MOL   H18136853   7.663   4.429   2.237  0.3341 -0.7253  0.2725
   97MOL   H18236854   0.131   4.560   2.343  1.9526  2.0048  0.8601
   97MOL   H18336855   0.022   4.693   2.359 -0.2226 -1.2105  0.5204
   97MOL   H18436856   0.116   4.759   2.143  1.9404 -1.3325 -0.4018
   97MOL   H18536857   0.165   4.603   2.113  2.0615  0.4952  2.7998
   97MOL   H18636858   7.656   4.569   1.988 -2.1819  0.6016 -0.2679
   97MOL   H18736859   7.608   4.731   2.019 -1.9854 -0.8690 -0.7242
   97MOL   H18836860   7.472   4.657   2.195 -0.3215 -0.8578  4.1236
   97MOL   H18936861   7.468   4.500   2.118 -2.4810  1.4084  0.2946
   97MOL   H19036862   7.390   4.343   2.468 -0.5125 -1.5717  0.1055
   97MOL   H19136863   7.376   4.377   2.306 -0.1001  0.2110  0.4435
   97MOL   C19236864   7.505   4.208   2.330 -1.3059  0.3325  0.3505
   97MOL   C19336865   7.404   4.112   2.276 -0.1203  0.0864  0.1237
   97MOL   C19436866   7.321   4.162   2.157  0.2774  0.4236 -0.9476
   97MOL   C19536867   7.187   4.086   2.162 -0.0149 -0.3531  0.0035
   97MOL   C19636868   7.187   4.002   2.282  0.6607 -0.3031 -0.5242
   97MOL   C19736869   7.286   4.081   2.370  0.0335 -0.1772  0.0209
   97MOL   C19836870   7.603   4.141   2.429  0.2296 -1.1741  0.0380
   97MOL   H19936871   7.564   4.236   2.243  1.5244  0.2488  2.1495
   97MOL   H20036872   7.458   4.021   2.252  0.9219  1.0716 -1.3368
   97MOL   H20136873   7.375   4.135   2.067  2.1181 -0.7498  0.4498
   97MOL   H20236874   7.304   4.269   2.146 -0.3698  0.3963 -0.2576
   97MOL   H20336875   7.101   4.152   2.176  0.1974 -0.2883  1.0989
   97MOL   H20436876   7.159   4.026   2.076 -0.2810 -1.1360  0.6200
   97MOL   H20536877   7.235   3.906   2.267 -1.6828 -1.7701  1.1056
   97MOL   H20636878   7.089   3.985   2.326  2.3423 -2.0464  2.6780
   97MOL   H20736879   7.321   4.016   2.450 -0.1789 -0.2660  0.0410
   97MOL   H20836880   7.227   4.165   2.405  1.1992  0.2970  0.8642
   97MOL   H20936881   7.653   4.224   2.478 -0.0982 -0.4439 -0.8421
   97MOL   H21036882   7.534   4.091   2.497 -1.4932  0.3816 -0.5265
   97MOL   C21136883   0.021   4.050   2.388 -0.0228 -0.6225  0.3916
   97MOL   C21236884   0.132   4.134   2.313  0.5838 -0.3212  0.3007
   97MOL   C21336885   0.211   4.241   2.396  0.2950  0.0878 -0.5344
   97MOL   C21436886   0.352   4.246   2.334 -0.3754 -0.3554 -0.2044
   97MOL   C21536887   0.360   4.137   2.223 -0.0134 -0.0419 -0.0646
   97MOL   C21636888   0.241   4.054   2.242  0.3553  0.1847  0.4746
   97MOL   C21736889   0.073   3.984   2.519  0.3640  0.5342 -0.5551
   97MOL   H21836890   7.660   3.975   2.328 -1.5490  0.5409  0.1862
   97MOL   H21936891   0.089   4.190   2.230  0.8580 -0.3314  0.1506
   97MOL   H22036892   0.158   4.336   2.398 -3.4561 -1.9075  0.6015
   97MOL   H22136893   0.242   4.217   2.498  0.1736 -1.4492 -0.8507
   97MOL   H22236894   0.365   4.344   2.288  0.7527  0.1748  1.1922
   97MOL   H22336895   0.429   4.223   2.409 -0.1642 -2.9039 -1.1404
   97MOL   H22436896   0.450   4.076   2.225  2.5413  3.4968 -1.6966
   97MOL   H22536897   0.356   4.192   2.129 -3.3213 -1.5116 -0.8560
   97MOL   H22636898   0.204   4.009   2.150  1.0687  1.1521 -0.2897
   97MOL   H22736899   0.263   3.966   2.302  0.5392 -0.4924 -0.5911
   97MOL   H22836900   0.101   4.054   2.598  0.4477 -2.1306  1.8695
   97MOL   H22936901   0.170   3.940   2.495  1.3885  0.2603  3.6587
   97MOL   C23036902   7.682   3.869   2.590 -0.1573  0.7854 -0.3968
   97MOL   C23136903   0.058   3.827   2.730 -0.1395  0.5438 -0.2930
   97MOL   C23236904   0.094   3.949   2.812  0.2379 -0.4770  0.0899
   97MOL   C23336905   0.078   3.906   2.956 -0.1959 -0.4761 -0.2619
   97MOL   C23436906   0.052   3.757   2.950  0.3949 -0.0791  0.5055
   97MOL   C23536907   7.686   3.717   2.815  0.8595 -0.1646 -0.4202
   97MOL   C23636908   7.676   3.745   2.493 -0.5112  0.3755  0.3860
   97MOL   H23736909   7.587   3.920   2.605 -1.3234 -0.9402 -1.7439
   97MOL   H23836910   0.156   3.787   2.706 -0.2186  1.3784 -2.1432
   97MOL   H23936911   0.197   3.968   2.783  0.9084 -0.0934  2.5515
   97MOL   H24036912   0.040   4.044   2.802 -0.7253 -1.0921 -0.5899
   97MOL   H24136913   0.168   3.922   3.016  0.5019  0.0228 -1.4363
   97MOL   H24236914   0.001   3.966   3.005  0.8030 -0.3368  1.1824
   97MOL   H24336915   7.675   3.715   3.025 -0.3222  1.7914  0.9482
   97MOL   H24436916   0.144   3.701   2.968  1.1817  0.7680 -0.8063
   97MOL   H24536917   7.580   3.743   2.822  1.1867  0.3466  3.6966
   97MOL   H24636918   0.023   3.615   2.789  3.2829  0.1134  0.8835
   97MOL   H24736919   0.010   3.652   2.546  0.8889 -0.6757 -2.0165
   97MOL   H24836920   0.068   3.754   2.421 -0.9605 -0.0103 -0.1753
   97MOL   C24936921   7.538   3.724   2.429 -0.2097  0.2496 -0.7563
   97MOL   C25036922   7.418   3.695   2.532  0.4183  0.1836  0.6059
   97MOL   C25136923   7.431   3.570   2.611  0.4132  0.3452  0.0988
   97MOL   C25236924   7.339   3.466   2.550 -0.0548 -0.5547 -0.2239
   97MOL   C25336925   7.225   3.551   2.493 -0.2135 -0.4156 -0.5561
   97MOL   C25436926   7.276   3.693   2.465  0.1746 -1.0507 -0.2353
   97MOL   C25536927   7.541   3.609   2.328 -0.1316 -0.0047 -0.0169
   97MOL   H25636928   7.504   3.816   2.381  1.5624  0.9185 -0.7826
   97MOL   H25736929   7.425   3.779   2.600  2.1607  0.4397  0.1374
   97MOL   H25836930   7.412   3.579   2.717  0.3677 -1.2240  0.2457
   97MOL   H25936931   7.533   3.533   2.622  0.3684 -0.0017 -0.6012
   97MOL   H26036932   7.307   3.392   2.624 -0.0649  0.5895  0.9332
   97MOL   H26136933   7.402   3.422   2.472 -0.8661 -2.1605  0.0031
   97MOL   H26236934   7.148   3.565   2.569  0.9393  1.2405  0.3401
   97MOL   H26336935   7.180   3.505   2.405 -3.4862 -0.1670  0.9002
   97MOL   H26436936   7.211   3.770   2.506 -0.8204 -2.4939  0.9058
   97MOL   H26536937   7.288   3.722   2.360 -1.6148  0.2008 -0.1150
   97MOL   H26636938   7.590   3.524   2.374  0.6481  0.0880 -0.6616
   97MOL   H26736939   7.441   3.566   2.317  0.1289 -0.1225 -2.1327
   97MOL   C26836940   7.604   3.647   2.193 -0.0739  0.2362 -0.1117
   97MOL   C26936941   7.492   3.711   2.112 -0.2599  0.1243  0.6899
   97MOL   C27036942   7.365   3.634   2.056 -0.3686  0.4816  0.7642
   97MOL   C27136943   7.325   3.707   1.921  0.0656  0.1612 -0.0055
   97MOL   C27236944   7.429   3.821   1.895 -0.2529  0.4481  0.2679
   97MOL   C27336945   7.547   3.774   1.987 -0.3323 -0.1065 -0.5486
   97MOL   C27436946   7.667   3.520   2.125  0.4532  0.0434 -0.1185
   97MOL   H27536947   0.000   3.712   2.209  1.2238 -1.1078 -1.4781
   97MOL   H27636948   7.464   3.800   2.168  1.6045 -0.1013  2.0283
   97MOL   H27736949   7.390   3.535   2.018  0.4540  0.8458  0.3524
   97MOL   H27836950   7.292   3.640   2.137 -0.8198  0.5413  0.3558
   97MOL   H27936951   7.312   3.645   1.832  3.5354  1.0435 -1.2170
   97MOL   H28036952   7.230   3.757   1.941 -1.1358 -0.7862 -2.9955
   97MOL   H28136953   7.396   3.916   1.936  1.1590  1.0804 -0.0491
   97MOL   H28236954   7.459   3.851   1.795 -1.1434  1.5022  0.3142
   97MOL   H28336955   7.604   3.862   2.017  0.5807 -0.8846  0.0211
   97MOL   H28436956   7.611   3.706   1.930  0.3270  3.5055 -4.3133
   97MOL   H28536957   7.678   3.524   2.017 -2.4777  0.2434 -0.4482
   97MOL   H28636958   7.596   3.437   2.130  1.1930 -0.5630  0.5126
   97MOL   C28736959   0.120   3.475   2.172  0.5890 -0.4493 -0.0982
   97MOL   C28836960   0.243   3.562   2.131 -0.4364  0.5549 -0.5665
   97MOL   C28936961   0.285   3.552   1.984  0.2184 -0.3842  0.1474
   97MOL   C29036962   0.393   3.660   1.964  0.0191  0.8274  0.3558
   97MOL   C29136963   0.370   3.762   2.076  0.4440  0.4642 -0.8629
   97MOL   C29236964   0.243   3.714   2.149  0.7189  0.2841 -0.2865
   97MOL   C29336965   0.121   3.431   2.319 -0.2786 -0.0894 -0.6455
   97MOL   H29436966   0.130   3.381   2.118  2.3972 -1.3725  1.7402
   97MOL   H29536967   0.331   3.535   2.190 -0.9080  0.5883  0.1605
   97MOL   H29636968   0.311   3.453   1.947  1.6768  0.0895 -0.1166
   97MOL   H29736969   0.195   3.579   1.928 -0.8791  1.3213  2.6555
   97MOL   H29836970   0.489   3.608   1.969  0.1702  1.0776  0.1003
   97MOL   H29936971   0.379   3.703   1.865 -1.2641 -1.2766 -0.4305
   97MOL   H30036972   0.346   3.861   2.037 -2.7451 -0.3186 -1.0043
   97MOL   H30136973   0.448   3.758   2.152 -0.5036 -1.4211  0.0551
   97MOL   H30236974   0.171   3.770   2.090 -0.1660  1.1424  1.5714
   97MOL   H30336975   0.239   3.749   2.252  1.7726  0.5340 -0.3203
   97MOL   H30436976   0.038   3.363   2.337  0.3702 -0.7472 -0.1288
   97MOL   H30536977   0.111   3.523   2.376  3.6463  0.2625 -0.3982
   97MOL   C30636978   0.243   3.351   2.367 -0.3840 -0.6593 -0.4563
   97MOL   C30736979   0.255   3.343   2.526 -0.8719 -0.9961 -0.2835
   97MOL   C30836980   0.323   3.461   2.590 -0.1726 -0.3773 -0.2565
   97MOL   C30936981   0.297   3.437   2.742  0.2453 -0.1427 -0.2360
   97MOL   C31036982   0.170   3.364   2.749  0.4939 -0.1139 -0.4871
   97MOL   C31136983   0.134   3.309   2.612  0.0043 -0.2588 -0.2122
   97MOL   C31236984   0.238   3.215   2.297 -0.4799  0.2579 -0.0894
   97MOL   H31336985   0.332   3.408   2.340 -1.2609  0.1566 -1.6902
   97MOL   H31436986   0.331   3.270   2.555  0.3086  1.1796  2.3598
   97MOL   H31536987   0.262   3.546   2.561 -0.7546 -0.7284 -0.0712
   97MOL   H31636988   0.429   3.475   2.568 -0.0966 -0.6662 -0.0767
   97MOL   H31736989   0.381   3.374   2.771  2.3779  1.3473 -2.8537
   97MOL   H31836990   0.300   3.525   2.806 -2.9127 -0.1028 -0.0591
   97MOL   H31936991   0.094   3.424   2.799 -0.7737 -0.6308 -1.7706
   97MOL   H32036992   0.191   3.274   2.806  0.8701  0.4611  0.2877
   97MOL   H32136993   0.099   3.206   2.610 -0.4856 -0.0630 -2.3027
   97MOL   H32236994   0.047   3.359   2.571 -0.3718 -0.2933  0.5355
   97MOL   H32336995   0.169   3.203   2.213 -0.7587  2.3894 -0.1760
   97MOL   H32436996   0.193   3.146   2.368 -1.0057  0.9666  0.2760
   97MOL   C32536997   0.378   3.153   2.268  0.2933  0.4199  0.6447
   97MOL   C32636998   0.427   3.219   2.135  0.2266  0.2589 -1.1267
   97MOL   C32736999   0.356   3.169   2.006 -0.4519  0.5339  0.4731
   97MOL   C32837000   0.463   3.148   1.898 -0.0147  0.1674 -0.1021
   97MOL   C32937001   0.584   3.104   1.977  0.7031 -0.4587 -0.0497
   97MOL   C33037002   0.573   3.183   2.110 -0.0567  0.0329  0.0270
   97MOL   C33137003   0.384   3.000   2.281 -0.3352 -0.4593 -0.8387
   97MOL   H33237004   0.447   3.187   2.346 -0.1863  0.7117  0.9394
   97MOL   H33337005   0.432   3.327   2.142  1.4784  0.1452 -0.1658
   97MOL   H33437006   0.275   3.232   1.970 -1.1536 -0.5226  0.1625
   97MOL   H33537007   0.306   3.075   2.029  0.1310 -0.1114 -0.8413
   97MOL   H33637008   0.481   3.247   1.855  0.8834 -0.9762 -2.4170
   97MOL   H33737009   0.428   3.080   1.821 -1.4568  1.9612 -1.0857
   97MOL   H33837010   0.679   3.120   1.926  0.0017  0.5392 -1.0538
   97MOL   H33937011   0.583   2.996   1.988  1.3742 -0.8371 -3.2380
   97MOL   H34037012   0.635   3.272   2.106 -0.0282  0.1525  2.4503
   97MOL   H34137013   0.614   3.130   2.196 -0.9099  0.1750  0.5347
   97MOL   H34237014   0.456   2.962   2.209 -1.0497 -1.7124 -0.8989
   97MOL   H34337015   0.285   2.960   2.261 -0.8356 -0.3302  1.2222
   97MOL   C34437016   0.419   2.946   2.426 -0.5661 -0.0193  0.1130
   97MOL   C34537017   0.573   2.914   2.439 -0.8311 -0.0354 -0.1858
   97MOL   C34637018   0.625   2.774   2.407 -0.4709 -1.2584  0.5853
   97MOL   C34737019   0.751   2.762   2.496 -0.2113 -1.0899  0.4134
   97MOL   C34837020   0.756   2.879   2.593 -0.9223 -0.6463 -0.8138
   97MOL   C34937021   0.615   2.943   2.587  0.2286 -0.6413 -0.0100
   97MOL   C35037022   0.326   2.831   2.475  0.2564  0.5726  0.2463
   97MOL   H35137023   0.393   3.026   2.496  2.7684 -0.1747  1.6324
   97MOL   H35237024   0.619   2.982   2.367 -3.4358 -0.3389 -2.2032
   97MOL   H35337025   0.649   2.764   2.301  2.1915  0.8412  0.9300
   97MOL   H35437026   0.561   2.689   2.431 -0.3439 -1.9704 -1.4441
   97MOL   H35537027   0.751   2.673   2.558  3.1190 -0.4098  1.4760
   97MOL   H35637028   0.838   2.758   2.431 -0.5952 -2.7225 -0.0261
   97MOL   H35737029   0.830   2.950   2.556  0.3353 -1.2701  0.4700
   97MOL   H35837030   0.789   2.865   2.695  0.6777  3.3191 -0.7074
   97MOL   H35937031   0.560   2.892   2.666  0.4450  0.3626  0.7885
   97MOL   H36037032   0.613   3.050   2.605 -0.3982 -0.8500  1.2400
   97MOL   H36137033   0.389   2.775   2.543  0.0574  1.3804  1.1032
   97MOL   H36237034   0.293   2.763   2.396  2.0611 -0.0699  0.0246
   97MOL   C36337035   0.196   2.877   2.551  0.8480  1.0207  0.6497
   97MOL   C36437036   0.088   2.760   2.568 -0.4933  0.6809 -0.1718
   97MOL   C36537037   0.145   2.631   2.631 -0.1974  0.2027 -0.4615
   97MOL   C36637038   0.127   2.524   2.521 -0.4489 -0.2734 -0.3665
   97MOL   C36737039   0.000   2.574   2.453 -0.0742 -0.5792 -0.0667
   97MOL   C36837040   0.010   2.725   2.445  0.6793  0.7530  0.5555
   97MOL   C36937041   0.235   2.954   2.689  0.5017  0.6675  0.2687
   97MOL   H37037042   0.141   2.945   2.486  0.9104  0.3666 -0.0821
   97MOL   H37137043   0.020   2.779   2.651  0.3893 -0.1460  0.7600
   97MOL   H37237044   0.251   2.645   2.649 -0.2646 -0.9405  0.9289
   97MOL   H37337045   0.100   2.597   2.724 -0.8279  2.6340  0.1552
   97MOL   H37437046   0.217   2.515   2.460 -1.2376 -0.5505 -1.5017
   97MOL   H37537047   0.095   2.431   2.568 -0.9514  0.1740  0.1836
   97MOL   H37637048   7.675   2.520   2.359  0.4102  0.1691 -0.5837
   97MOL   H37737049   7.596   2.552   2.504 -1.2446  2.1202 -0.9843
   97MOL   H37837050   7.597   2.762   2.444  0.7513  0.9390 -0.0137
   97MOL   H37937051   0.067   2.758   2.358 -1.3051 -0.6623 -1.3497
   97MOL   H38037052   0.327   3.013   2.684  0.6425  0.3013 -2.1316
   97MOL   H38137053   0.264   2.878   2.761  0.0312  0.3776  0.1557
   97MOL   H38237054   0.158   3.016   2.736 -1.3461 -0.7598 -0.8208
   98MOL     C137055   6.647   4.909   4.392 -0.1061  0.1678 -0.1926
   98MOL     C237056   6.543   5.027   4.409  0.7638 -0.1483 -0.0766
   98MOL     C337057   6.580   5.151   4.327 -0.1363 -0.4785  0.8557
   98MOL     C437058   6.505   5.265   4.404 -0.0847  0.3684 -0.3548
   98MOL     C537059   6.484   5.223   4.551 -0.7287 -0.1065  0.1694
   98MOL     C637060   6.538   5.082   4.555 -0.0699 -0.2828 -1.4525
   98MOL     C737061   6.653   4.861   4.248  0.3765  0.3786 -0.1765
   98MOL     H837062   6.742   4.940   4.436 -0.2386 -0.6193  0.6575
   98MOL     H937063   6.444   4.988   4.384  0.6030  1.3242 -1.7991
   98MOL    H1037064   6.686   5.157   4.305  0.4051  0.1221  3.4003
   98MOL    H1137065   6.539   5.147   4.226  0.2518  2.6680  0.5284
   98MOL    H1237066   6.532   5.370   4.394  2.2103 -0.2895 -1.2632
   98MOL    H1337067   6.404   5.268   4.362  0.7736 -0.5776 -2.5829
   98MOL    H1437068   6.534   5.287   4.624 -1.5121  1.6088 -0.7722
   98MOL    H1537069   6.379   5.205   4.570 -0.5809 -2.3767 -1.0708
   98MOL    H1637070   6.476   5.008   4.605  1.9988 -1.2244 -0.2002
   98MOL    H1737071   6.636   5.071   4.603 -1.0200 -2.2605  0.0869
   98MOL    H1837072   6.556   4.822   4.219  0.4209  1.8091 -2.4604
   98MOL    H1937073   6.685   4.937   4.175  0.8456 -1.0071 -1.4468
   98MOL    H2037074   6.613   4.832   4.460 -0.3731 -0.1409 -0.6674
   98MOL    C2137075   6.767   4.754   4.226 -0.9325  0.2574 -0.0813
   98MOL    C2237076   6.912   4.807   4.255  0.6574 -0.0005 -0.5774
   98MOL    C2337077   6.962   4.927   4.171  0.6804 -0.4672  0.1016
   98MOL    C2437078   7.116   4.912   4.139  0.5111 -0.0101 -0.0459
   98MOL    C2537079   7.164   4.784   4.215  0.1475  0.8678 -0.4292
   98MOL    C2637080   7.029   4.699   4.234  0.2024 -0.9518 -0.6123
   98MOL    C2737081   6.733   4.619   4.300  0.3145  0.7406 -0.4692
   98MOL    H2837082   6.768   4.742   4.117 -2.0856 -0.2075 -0.0493
   98MOL    H2937083   6.920   4.827   4.362  0.2053  1.4373 -0.8032
   98MOL    H3037084   6.926   5.012   4.229 -0.3180  0.7073 -2.1629
   98MOL    H3137085   6.911   4.935   4.075  0.6723 -0.0230  0.1430
   98MOL    H3237086   7.144   4.916   4.034 -0.6519 -0.3164 -0.3704
   98MOL    H3337087   7.168   4.997   4.183  0.3524  0.5225 -0.9016
   98MOL    H3437088   7.217   4.816   4.305  1.7244 -0.0500 -1.0281
   98MOL    H3537089   7.231   4.721   4.157  0.7703 -0.8761  2.1402
   98MOL    H3637090   7.033   4.629   4.318  1.1735  1.2133  1.1770
   98MOL    H3737091   7.006   4.634   4.150  0.8827 -2.2309  0.1733
   98MOL    H3837092   6.810   4.552   4.262  0.1069  0.2243  0.0183
   98MOL    H3937093   6.756   4.629   4.406 -0.8973 -0.6442 -0.0619
   98MOL    C4037094   6.596   4.550   4.270  0.0674  0.0174  0.0607
   98MOL    C4137095   6.594   4.503   4.123  0.1165  0.3175 -0.2599
   98MOL    C4237096   6.463   4.471   4.054 -0.6431  0.2890  0.1112
   98MOL    C4337097   6.508   4.394   3.921  1.3616  0.7996  0.4396
   98MOL    C4437098   6.650   4.339   3.940  0.4605 -0.1368 -0.0591
   98MOL    C4537099   6.684   4.381   4.088  0.4654 -0.1546  0.1902
   98MOL    C4637100   6.564   4.451   4.382  0.1184 -0.1422  0.2495
   98MOL    H4737101   6.528   4.634   4.281  0.6623  0.3828  1.0097
   98MOL    H4837102   6.634   4.585   4.064  0.1672 -0.4654 -1.3229
   98MOL    H4937103   6.395   4.554   4.037 -1.7300 -0.3922  1.1131
   98MOL    H5037104   6.397   4.403   4.108 -1.4118 -1.0962 -2.4804
   98MOL    H5137105   6.506   4.464   3.838  3.1525  1.5721  1.0098
   98MOL    H5237106   6.441   4.312   3.895  1.4981  0.6742  0.4867
   98MOL    H5337107   6.669   4.232   3.927 -0.0037 -0.0819 -1.2876
   98MOL    H5437108   6.723   4.376   3.868  1.2343 -0.5004  0.5376
   98MOL    H5537109   6.653   4.305   4.160 -1.4580 -0.9642 -1.4647
   98MOL    H5637110   6.790   4.406   4.098 -0.2048  3.3853 -0.8797
   98MOL    H5737111   6.473   4.398   4.353 -0.3578  0.3278  0.8777
   98MOL    H5837112   6.647   4.381   4.378 -0.1625 -0.4573 -0.1369
   98MOL    C5937113   6.551   4.488   4.530 -0.3865 -0.3172 -0.0006
   98MOL    C6037114   6.432   4.585   4.557  0.2142  0.0135  0.1682
   98MOL    C6137115   6.451   4.658   4.688 -0.1660 -0.2945  0.2373
   98MOL    C6237116   6.307   4.684   4.735 -0.4790  0.3331 -0.3414
   98MOL    C6337117   6.226   4.568   4.688 -0.3537  0.2276 -0.0806
   98MOL    C6437118   6.287   4.526   4.552 -0.0362  0.1519  0.5860
   98MOL    C6537119   6.538   4.365   4.623 -1.0625 -0.5375 -0.5677
   98MOL    H6637120   6.641   4.546   4.553 -0.1455 -1.1579  1.1885
   98MOL    H6737121   6.438   4.666   4.484 -2.3446  0.2591  0.1876
   98MOL    H6837122   6.500   4.754   4.668 -1.0257 -0.5317 -3.2120
   98MOL    H6937123   6.513   4.611   4.764 -1.0500 -2.0769 -0.1302
   98MOL    H7037124   6.266   4.780   4.704 -3.2053  0.5056  3.4613
   98MOL    H7137125   6.283   4.695   4.841  0.0255 -0.2932 -0.1616
   98MOL    H7237126   6.123   4.602   4.680 -0.7103  0.1823  3.5216
   98MOL    H7337127   6.236   4.478   4.750 -0.6623 -0.3726 -0.9042
   98MOL    H7437128   6.278   4.421   4.524 -1.3567  0.2556  0.5670
   98MOL    H7537129   6.246   4.589   4.473  0.0587  1.0922  1.2702
   98MOL    H7637130   6.471   4.292   4.577 -2.6852 -0.8066  2.0944
   98MOL    H7737131   6.471   4.389   4.706  1.2312  0.4056  1.0796
   98MOL    C7837132   6.662   4.297   4.691 -0.3776  0.1374  0.1002
   98MOL    C7937133   6.622   4.196   4.807 -0.4000  0.5536 -0.1382
   98MOL    C8037134   6.525   4.083   4.775  0.6287 -0.5142 -1.0695
   98MOL    C8137135   6.496   4.024   4.913 -0.4629  0.6098 -0.1113
   98MOL    C8237136   6.484   4.152   5.004 -0.6035  0.1476  0.0757
   98MOL    C8337137   6.559   4.267   4.934  0.1969 -0.0403  0.6057
   98MOL    C8437138   6.762   4.220   4.596  0.5314 -0.7543  0.0588
   98MOL    H8537139   6.707   4.379   4.746 -1.3020  3.0909 -3.3501
   98MOL    H8637140   6.714   4.158   4.850 -1.1859 -1.2213  0.0054
   98MOL    H8737141   6.576   4.009   4.713  0.6680  0.8753 -2.7234
   98MOL    H8837142   6.442   4.126   4.719  0.2263  1.5228  0.9888
   98MOL    H8937143   6.575   3.961   4.955 -3.7589 -2.2443  2.1311
   98MOL    H9037144   6.404   3.965   4.907  1.0960 -1.9049  0.0838
   98MOL    H9137145   6.384   4.179   5.036  0.0055  1.4832  0.9020
   98MOL    H9237146   6.545   4.123   5.089  2.2628  2.4616 -1.0633
   98MOL    H9337147   6.480   4.341   4.923  0.8885  0.9182  1.8505
   98MOL    H9437148   6.632   4.315   4.999  1.9248 -0.7964 -0.7379
   98MOL    H9537149   6.715   4.179   4.507 -0.2625  0.4501 -0.0869
   98MOL    H9637150   6.785   4.122   4.638 -0.3475  0.3954  3.3658
   98MOL    C9737151   6.893   4.301   4.567  0.1130 -0.5191  0.3344
   98MOL    C9837152   6.991   4.239   4.458  0.5006 -0.5094  0.3867
   98MOL    C9937153   7.041   4.100   4.475 -0.3386 -0.0104 -0.4077
   98MOL   C10037154   7.100   4.064   4.335  0.3910  0.2736  0.3138
   98MOL   C10137155   7.018   4.143   4.229  0.5598 -0.2260 -0.3660
   98MOL   C10237156   6.937   4.242   4.314  0.1470  0.2944  0.1392
   98MOL   C10337157   6.976   4.322   4.698  0.6691 -0.2027 -0.2632
   98MOL   H10437158   6.857   4.395   4.525  1.9641 -0.1656 -0.5360
   98MOL   H10537159   7.076   4.307   4.456  0.0012  0.1458  1.3731
   98MOL   H10637160   7.113   4.085   4.555 -1.6722 -2.5218  0.3737
   98MOL   H10737161   6.960   4.029   4.493 -0.9116  0.6118 -0.5146
   98MOL   H10837162   7.118   3.958   4.318 -0.9502  0.1818 -0.6411
   98MOL   H10937163   7.204   4.097   4.325  0.1470  0.7968 -0.6497
   98MOL   H11037164   6.963   4.062   4.180  2.5186 -0.8348 -1.5866
   98MOL   H11137165   7.078   4.192   4.152 -1.5001  2.1336 -0.5395
   98MOL   H11237166   6.932   4.339   4.265 -2.0085 -0.3702 -1.0221
   98MOL   H11337167   6.834   4.205   4.316 -0.2530  1.2118 -1.8021
   98MOL   H11437168   6.918   4.341   4.789 -0.3143 -1.3841 -0.6337
   98MOL   H11537169   7.034   4.234   4.725  1.6953  0.9660  1.4107
   98MOL   C11637170   7.066   4.450   4.692 -0.2922  0.7691 -0.3329
   98MOL   C11737171   6.991   4.589   4.686  0.5735 -0.2572  0.6608
   98MOL   C11837172   6.891   4.622   4.794  0.6333  0.2393  0.0481
   98MOL   C11937173   6.843   4.764   4.754 -0.6273 -0.0212 -0.0119
   98MOL   C12037174   6.973   4.829   4.703  0.2794 -0.0681  0.1947
   98MOL   C12137175   7.068   4.714   4.657 -0.7413  0.4227  0.2278
   98MOL   C12237176   7.162   4.440   4.818 -1.1261  0.4127 -0.3444
   98MOL   H12337177   7.118   4.459   4.597  0.5161 -2.9245 -0.2991
   98MOL   H12437178   6.930   4.569   4.598  1.1537  0.2896  0.1242
   98MOL   H12537179   6.812   4.548   4.801  0.3245  0.4925 -0.7050
   98MOL   H12637180   6.938   4.621   4.893  1.3107  0.7125 -0.2599
   98MOL   H12737181   6.788   4.805   4.838 -2.4205 -1.2080 -0.5886
   98MOL   H12837182   6.764   4.757   4.679 -0.2127 -1.9658 -0.2899
   98MOL   H12937183   7.025   4.879   4.785  0.0985  0.2241  0.1301
   98MOL   H13037184   6.960   4.902   4.624  0.1882  1.0355  1.2167
   98MOL   H13137185   7.096   4.733   4.554 -0.5242 -1.3162 -0.0611
   98MOL   H13237186   7.171   4.725   4.690 -0.0576  0.5486 -1.9168
   98MOL   H13337187   7.109   4.391   4.899 -1.0190 -2.4742 -1.9565
   98MOL   H13437188   7.189   4.533   4.868 -0.5636  0.8434 -1.4337
   98MOL   C13537189   7.291   4.355   4.792 -0.5265  0.5970 -0.0874
   98MOL   C13637190   7.322   4.256   4.908 -0.3772  0.1189 -0.2404
   98MOL   C13737191   7.217   4.143   4.937  0.0537  0.3820 -0.1115
   98MOL   C13837192   7.259   4.089   5.077  0.2191 -0.0713 -0.4255
   98MOL   C13937193   7.326   4.205   5.148 -0.1299  0.3933 -0.2420
   98MOL   C14037194   7.346   4.313   5.046  0.2321 -0.7737  0.4160
   98MOL   C14137195   7.416   4.430   4.748 -0.5491  0.0040 -0.8366
   98MOL   H14237196   7.271   4.290   4.706 -1.6983  1.2452 -0.3174
   98MOL   H14337197   7.415   4.209   4.875 -1.4537 -0.1616 -3.0001
   98MOL   H14437198   7.121   4.194   4.950  1.1848  2.7589 -0.8244
   98MOL   H14537199   7.207   4.071   4.856 -0.7830 -0.3343  0.6079
   98MOL   H14637200   7.333   4.010   5.065  1.0078  0.4294  1.0725
   98MOL   H14737201   7.180   4.052   5.143 -0.2338  0.1332 -0.8461
   98MOL   H14837202   7.416   4.188   5.207  0.0400  1.6685 -0.1232
   98MOL   H14937203   7.243   4.246   5.206 -1.4974 -1.5621 -0.7654
   98MOL   H15037204   7.273   4.394   5.047  0.5294 -0.4982 -0.1326
   98MOL   H15137205   7.444   4.361   5.050 -0.2502  0.5366 -2.1672
   98MOL   H15237206   7.486   4.445   4.830 -0.4221 -1.2385 -0.7098
   98MOL   H15337207   7.385   4.525   4.705  5.0346  0.5941 -4.0671
   98MOL   C15437208   7.491   4.369   4.624  0.5344  0.5485 -0.1860
   98MOL   C15537209   7.414   4.375   4.492  0.1256 -0.1500 -0.4288
   98MOL   C15637210   7.475   4.306   4.380 -1.3926 -0.1063  0.6588
   98MOL   C15737211   7.520   4.415   4.291  0.5205  0.0833  0.4384
   98MOL   C15837212   7.399   4.514   4.299 -0.5435  0.0352  0.5279
   98MOL   C15937213   7.377   4.519   4.445  0.0405 -0.4186  0.4299
   98MOL   C16037214   7.635   4.426   4.621  0.1883  0.7413 -0.5362
   98MOL   H16137215   7.503   4.262   4.643  3.1976  0.5967 -1.2825
   98MOL   H16237216   7.321   4.323   4.512  0.1601  0.2082  0.6716
   98MOL   H16337217   7.555   4.233   4.399  0.2410  0.6852 -2.8222
   98MOL   H16437218   7.395   4.249   4.333 -2.6128  1.7824  0.4087
   98MOL   H16537219   7.616   4.456   4.322  0.5832 -0.2130  0.6448
   98MOL   H16637220   7.525   4.373   4.190 -1.4129  0.0671  0.3305
   98MOL   H16737221   7.315   4.479   4.239  2.1200  2.5585 -4.9947
   98MOL   H16837222   7.425   4.612   4.259 -1.0201  0.3512  0.9800
   98MOL   H16937223   7.274   4.552   4.459 -0.5030 -1.3206 -1.3931
   98MOL   H17037224   7.440   4.598   4.486 -0.5363  0.2477  0.0342
   98MOL   H17137225   7.626   4.529   4.657 -0.2488  0.2034  0.9620
   98MOL   H17237226   7.668   4.415   4.518 -0.1849 -0.8398 -0.4992
   98MOL   C17337227   0.052   4.356   4.708  0.2768  0.4923  0.3869
   98MOL   C17437228   0.171   4.457   4.725 -0.2163  0.5841 -0.0761
   98MOL   C17537229   0.299   4.405   4.787 -0.1369 -0.0799 -0.7774
   98MOL   C17637230   0.363   4.540   4.830 -0.0173 -0.4462  0.6388
   98MOL   C17737231   0.252   4.641   4.863 -0.5228 -0.1691  0.3321
   98MOL   C17837232   0.131   4.577   4.812  0.3456  0.4540  0.3881
   98MOL   C17937233   0.096   4.224   4.637 -0.3821 -0.0296  0.2448
   98MOL   H18037234   0.017   4.340   4.810  1.7354  0.2067  0.8627
   98MOL   H18137235   0.196   4.500   4.628  2.0493 -1.5347 -0.4743
   98MOL   H18237236   0.362   4.352   4.715  0.4964  1.2811 -1.2418
   98MOL   H18337237   0.295   4.352   4.881 -0.2634  0.9872 -0.1718
   98MOL   H18437238   0.430   4.545   4.916  2.8683  1.4097 -1.6028
   98MOL   H18537239   0.423   4.575   4.746  0.9112 -0.0259  1.4711
   98MOL   H18637240   0.269   4.741   4.823 -0.0847 -0.6022 -0.5822
   98MOL   H18737241   0.225   4.659   4.967  0.0508 -1.5193  0.7301
   98MOL   H18837242   0.078   4.543   4.900 -1.1899 -0.0262 -0.6911
   98MOL   H18937243   0.069   4.656   4.768 -1.2768  0.3124  2.3514
   98MOL   H19037244   0.012   4.183   4.582  0.6015  0.0899 -1.3643
   98MOL   H19137245   0.171   4.242   4.561 -0.9701 -1.3096 -0.6666
   98MOL   C19237246   0.148   4.113   4.736 -0.1048  0.5049  0.9310
   98MOL   C19337247   0.241   4.012   4.660 -0.8502 -0.5892 -0.0134
   98MOL   C19437248   0.378   4.072   4.628  0.4048  0.4156  0.2121
   98MOL   C19537249   0.422   3.991   4.505 -0.0031  0.3511 -0.7148
   98MOL   C19637250   0.310   3.896   4.452 -0.4834 -0.2331 -0.0514
   98MOL   C19737251   0.185   3.946   4.527 -0.0254 -0.1376 -1.0207
   98MOL   C19837252   0.041   4.043   4.818 -0.2057 -0.7091 -0.5728
   98MOL   H19937253   0.202   4.179   4.805  1.9224 -0.4565  0.2911
   98MOL   H20037254   0.271   3.937   4.733  0.6608  0.0290  0.0401
   98MOL   H20137255   0.462   4.068   4.697  0.0409 -1.2559  0.5796
   98MOL   H20237256   0.364   4.177   4.604 -1.7087 -0.0311 -0.6508
   98MOL   H20337257   0.463   4.052   4.424  1.9121 -0.0925 -0.0908
   98MOL   H20437258   0.498   3.919   4.534 -0.2109  0.6543  0.6193
   98MOL   H20537259   0.337   3.792   4.473 -0.4041 -0.1907  0.0626
   98MOL   H20637260   0.303   3.913   4.345  3.2530  0.0034 -0.3291
   98MOL   H20737261   0.112   3.867   4.544  0.5460 -0.6437 -0.9039
   98MOL   H20837262   0.137   4.024   4.467 -0.9000 -0.3381 -0.5888
   98MOL   H20937263   7.666   4.118   4.865  2.6766  0.1263  2.2380
   98MOL   H21037264   7.668   3.996   4.743  1.3056 -3.4123 -0.1893
   98MOL   C21137265   0.074   3.940   4.931 -0.1427 -0.0333  0.0488
   98MOL   C21237266   0.085   4.004   5.082 -0.0773 -0.0634 -0.0543
   98MOL   C21337267   0.199   4.110   5.082 -0.4067 -0.5625 -0.2203
   98MOL   C21437268   0.129   4.243   5.094 -0.1211 -0.5922  1.0028
   98MOL   C21537269   0.003   4.209   5.175  0.4515  0.0725 -0.0111
   98MOL   C21637270   7.647   4.072   5.140 -0.1968 -0.4514  0.7490
   98MOL   C21737271   7.665   3.822   4.937  0.3527  0.1312  0.2473
   98MOL   H21837272   0.166   3.886   4.911 -1.2807 -1.2253 -2.2030
   98MOL   H21937273   0.110   3.924   5.151 -1.5928  1.0972  1.8813
   98MOL   H22037274   0.259   4.099   5.172  2.3182 -0.8187 -2.0177
   98MOL   H22137275   0.260   4.099   4.993 -1.7614  0.2099 -1.2539
   98MOL   H22237276   0.187   4.316   5.149  1.6353 -1.3545  0.2064
   98MOL   H22337277   0.093   4.280   4.998 -1.9675  2.6688  2.8535
   98MOL   H22437278   7.627   4.296   5.163 -0.6739 -0.7450  0.0990
   98MOL   H22537279   0.027   4.214   5.282 -1.7801 -1.9194  0.6307
   98MOL   H22637280   7.609   4.023   5.229 -1.6140  1.3655  1.1672
   98MOL   H22737281   7.569   4.083   5.065 -0.9579 -0.5924  1.5169
   98MOL   H22837282   7.637   3.791   4.837  0.4264  0.9630 -0.0356
   98MOL   H22937283   7.581   3.861   4.996  1.1372  3.0479 -0.4639
   98MOL   C23037284   0.017   3.689   5.004 -0.7434 -0.3450 -0.2347
   98MOL   C23137285   0.076   3.586   4.913  0.1114 -0.3366 -0.5743
   98MOL   C23237286   0.209   3.642   4.842 -0.2630 -0.3340  0.6958
   98MOL   C23337287   0.280   3.521   4.793  0.6245  0.0336 -0.1754
   98MOL   C23437288   0.219   3.403   4.865  0.3147  0.4072 -0.1678
   98MOL   C23537289   0.130   3.457   4.967 -0.5814 -0.2058 -0.5547
   98MOL   C23637290   7.604   3.641   5.108  0.2281  0.1076  0.4817
   98MOL   H23737291   0.100   3.718   5.069  0.6815 -1.2958 -1.6063
   98MOL   H23837292   0.014   3.560   4.827 -0.9176  0.5739 -0.1300
   98MOL   H23937293   0.205   3.721   4.767 -0.9528 -1.7979 -0.8386
   98MOL   H24037294   0.267   3.697   4.915 -2.2636  2.8746 -0.0154
   98MOL   H24137295   0.266   3.508   4.686  1.7138 -0.9046 -0.2168
   98MOL   H24237296   0.387   3.521   4.815  0.4433  0.7084  0.7520
   98MOL   H24337297   0.295   3.341   4.913  1.2773  2.2796  0.7653
   98MOL   H24437298   0.161   3.334   4.803  1.1882 -0.9065  0.4593
   98MOL   H24537299   0.187   3.477   5.058 -0.1661 -1.4924 -0.5221
   98MOL   H24637300   0.051   3.383   4.983 -1.2189  0.8025  1.1017
   98MOL   H24737301   7.604   3.713   5.190 -0.3307  1.1038 -0.3833
   98MOL   H24837302   7.635   3.550   5.160 -0.9975 -0.0275  0.9878
   98MOL   C24937303   7.460   3.612   5.053 -0.2697 -0.6095  0.2132
   98MOL   C25037304   7.351   3.632   5.166  0.0588  0.4745  0.3872
   98MOL   C25137305   7.353   3.770   5.241 -0.7592 -0.4528 -1.1345
   98MOL   C25237306   7.371   3.744   5.385  0.7352  0.6846 -0.5313
   98MOL   C25337307   7.311   3.600   5.407 -0.0703  0.6571  0.4210
   98MOL   C25437308   7.353   3.523   5.274  0.9455 -0.6107 -0.0592
   98MOL   C25537309   7.452   3.476   4.972  0.1114 -0.3518 -0.5836
   98MOL   H25637310   7.436   3.687   4.977  1.5729 -0.9121 -0.6950
   98MOL   H25737311   7.254   3.624   5.118 -0.1311 -0.2180  0.8718
   98MOL   H25837312   7.263   3.827   5.216 -1.7322 -1.1766  0.6132
   98MOL   H25937313   7.430   3.840   5.210  0.4381 -0.5568  1.5060
   98MOL   H26037314   7.340   3.828   5.447  0.8863  0.7706 -0.5726
   98MOL   H26137315   7.478   3.733   5.403  0.4313 -1.8152  0.0057
   98MOL   H26237316   7.203   3.610   5.422 -0.6547 -0.9396 -2.3618
   98MOL   H26337317   7.347   3.541   5.492  0.2783  0.7644  0.3495
   98MOL   H26437318   7.286   3.444   5.242 -1.0172  1.1968 -0.5623
   98MOL   H26537319   7.452   3.479   5.277  0.6750 -1.2544 -0.6386
   98MOL   H26637320   7.539   3.452   4.910 -1.4415 -1.2399 -2.4659
   98MOL   H26737321   7.451   3.392   5.042  1.6496 -0.1042 -0.2399
   98MOL   C26837322   7.326   3.454   4.875 -0.4700  0.0610 -0.0166
   98MOL   C26937323   7.280   3.304   4.846 -0.0843 -0.3613 -0.9462
   98MOL   C27037324   7.231   3.228   4.973  0.3485  0.1743  0.5166
   98MOL   C27137325   7.345   3.134   5.007  0.6699  0.4146  0.5149
   98MOL   C27237326   7.390   3.089   4.873  1.1142 -0.6118 -0.3162
   98MOL   C27337327   7.400   3.221   4.796 -0.0071  0.1355  0.1513
   98MOL   C27437328   7.336   3.531   4.736  0.2597  0.0169  0.1698
   98MOL   H27537329   7.243   3.499   4.930  1.3082  0.7734  2.1415
   98MOL   H27637330   7.203   3.303   4.768 -1.0294  3.2947 -0.1687
   98MOL   H27737331   7.208   3.291   5.059  0.1184 -0.1779  0.7137
   98MOL   H27837332   7.153   3.156   4.948  1.0424  0.8441 -4.0607
   98MOL   H27937333   7.419   3.190   5.064 -0.3494  2.4012 -0.0923
   98MOL   H28037334   7.308   3.051   5.068  1.6330  0.3455  1.0266
   98MOL   H28137335   7.311   3.030   4.826 -0.9082  0.4047  1.6918
   98MOL   H28237336   7.483   3.032   4.875  0.1058 -2.2578  2.0104
   98MOL   H28337337   7.381   3.193   4.693  1.5670  1.8975 -0.6455
   98MOL   H28437338   7.491   3.278   4.812  0.2167 -0.1468 -0.1221
   98MOL   H28537339   7.289   3.485   4.650  3.2771  0.7198 -1.9250
   98MOL   H28637340   7.440   3.524   4.705  0.0070  0.8080 -0.8667
   98MOL   C28737341   7.288   3.685   4.729  0.5604 -0.4392 -0.0638
   98MOL   C28837342   7.381   3.771   4.643  0.0935 -0.5434  0.4773
   98MOL   C28937343   7.377   3.758   4.495 -0.9361 -0.1519 -0.3975
   98MOL   C29037344   7.468   3.867   4.438  0.5563 -0.4235 -0.0277
   98MOL   C29137345   7.446   3.981   4.537  0.2575  0.2623  0.2846
   98MOL   C29237346   7.380   3.922   4.667  0.3398 -0.0757  0.6381
   98MOL   C29337347   7.146   3.685   4.684 -1.2202 -0.5900  0.0105
   98MOL   H29437348   7.311   3.732   4.824 -1.7634  2.5671 -0.9085
   98MOL   H29537349   7.480   3.731   4.666  0.5688  1.2765  1.7003
   98MOL   H29637350   7.403   3.656   4.466 -0.0267  0.2341 -0.9724
   98MOL   H29737351   7.278   3.770   4.451 -0.8682  0.2228 -0.4488
   98MOL   H29837352   7.572   3.836   4.442  0.6491 -0.3398 -1.3495
   98MOL   H29937353   7.431   3.901   4.340  0.5158  1.9762  0.7759
   98MOL   H30037354   7.399   4.076   4.510 -0.3026  0.9491  3.4498
   98MOL   H30137355   7.549   4.011   4.553  0.4730 -0.5457  0.4228
   98MOL   H30237356   7.277   3.953   4.681 -0.1673 -1.3614 -0.1790
   98MOL   H30337357   7.435   3.947   4.758  0.8977  0.6235  0.1237
   98MOL   H30437358   7.156   3.637   4.587  2.3751  0.8789 -0.4107
   98MOL   H30537359   7.105   3.781   4.654  1.4105 -0.3623 -3.2093
   98MOL   C30637360   7.038   3.620   4.778  0.3087 -0.5187  0.9102
   98MOL   C30737361   7.021   3.700   4.916  0.2267  0.0160  0.5101
   98MOL   C30837362   6.946   3.828   4.902 -0.1164 -0.6265 -0.6323
   98MOL   C30937363   6.845   3.833   5.026  0.0272 -0.3158 -0.3510
   98MOL   C31037364   6.882   3.713   5.125  0.4192 -0.1968 -0.2221
   98MOL   C31137365   6.959   3.623   5.029  0.3922 -0.2316  0.7856
   98MOL   C31237366   6.906   3.586   4.711  0.2833  0.0994 -0.0823
   98MOL   H31337367   7.080   3.524   4.809  1.6865 -0.8682 -1.9537
   98MOL   H31437368   7.125   3.716   4.945  0.2326  1.8387 -0.4600
   98MOL   H31537369   6.895   3.835   4.806 -0.1122 -0.8093 -0.6480
   98MOL   H31637370   7.018   3.911   4.908  1.7680 -2.1808 -1.1251
   98MOL   H31737371   6.837   3.924   5.085  3.5468  0.1893 -0.5022
   98MOL   H31837372   6.743   3.817   4.993  0.0375 -0.6312 -0.2322
   98MOL   H31937373   6.795   3.661   5.166 -0.6254  0.9355 -0.9753
   98MOL   H32037374   6.941   3.749   5.210  0.1612  0.3839 -0.2841
   98MOL   H32137375   7.038   3.575   5.087  1.9631  2.8085  1.2644
   98MOL   H32237376   6.896   3.548   4.981 -0.5261  0.2253  1.2737
   98MOL   H32337377   6.879   3.639   4.620  3.4450  0.6711 -0.7355
   98MOL   H32437378   6.824   3.622   4.774 -0.1629  0.5474 -0.9193
   98MOL   C32537379   6.892   3.438   4.672  0.0210  0.4196  0.7770
   98MOL   C32637380   6.985   3.405   4.552 -0.4847  0.3805  0.2161
   98MOL   C32737381   6.947   3.472   4.422 -0.6638 -0.5999 -0.0677
   98MOL   C32837382   7.022   3.395   4.318  0.0969  0.0336 -0.0907
   98MOL   C32937383   6.992   3.249   4.356 -0.5833  0.4413  0.3438
   98MOL   C33037384   6.999   3.254   4.512 -0.0242  0.6129  0.6475
   98MOL   C33137385   6.751   3.380   4.671  0.0119  0.1044  0.0402
   98MOL   H33237386   6.944   3.384   4.752 -0.3242 -1.2033 -0.0622
   98MOL   H33337387   7.082   3.439   4.586  0.1913 -1.0125 -0.2699
   98MOL   H33437388   6.972   3.578   4.414  1.1415 -0.8895  1.3402
   98MOL   H33537389   6.842   3.474   4.395 -1.0508 -2.8230  1.1272
   98MOL   H33637390   7.131   3.400   4.321  0.0651  0.4502  0.3627
   98MOL   H33737391   6.989   3.416   4.216 -0.4578  2.0019  0.4682
   98MOL   H33837392   7.063   3.171   4.327 -0.2969  0.4776  0.9275
   98MOL   H33937393   6.890   3.224   4.328 -0.3191  1.1510 -1.3169
   98MOL   H34037394   7.102   3.225   4.537 -0.5768 -0.6492  1.4960
   98MOL   H34137395   6.925   3.183   4.549 -1.8687  1.2043 -1.8083
   98MOL   H34237396   6.754   3.286   4.615  1.7925  0.2966 -0.2042
   98MOL   H34337397   6.698   3.442   4.599  1.7512  0.9136 -0.5569
   98MOL   C34437398   6.684   3.353   4.807 -0.6852  0.4197  0.7192
   98MOL   C34537399   6.749   3.226   4.868  0.3662 -0.0459  0.2806
   98MOL   C34637400   6.731   3.093   4.791 -0.0144 -0.3744  0.3566
   98MOL   C34737401   6.717   2.987   4.900  0.0912  0.1142  0.5360
   98MOL   C34837402   6.753   3.053   5.032 -0.2595  0.9512 -0.8195
   98MOL   C34937403   6.715   3.199   5.014  0.1182  0.1583  0.8816
   98MOL   C35037404   6.526   3.357   4.795  0.3694 -0.2707  0.1299
   98MOL   H35137405   6.699   3.434   4.878  0.5686  0.3363  0.5637
   98MOL   H35237406   6.854   3.255   4.875  0.5534 -0.6204 -0.1970
   98MOL   H35337407   6.825   3.081   4.738  1.3589 -0.3601  2.7146
   98MOL   H35437408   6.646   3.090   4.722 -1.6647  0.6169  2.2936
   98MOL   H35537409   6.615   2.952   4.910  0.2764 -0.9188 -1.0693
   98MOL   H35637410   6.780   2.902   4.874 -2.9844 -2.2085  0.4734
   98MOL   H35737411   6.861   3.052   5.047 -0.1488 -1.1966 -1.5276
   98MOL   H35837412   6.695   3.029   5.121  0.6340 -0.6184 -0.6325
   98MOL   H35937413   6.610   3.218   5.037  0.1253  0.6782  0.4929
   98MOL   H36037414   6.767   3.271   5.077 -1.9478  0.4662  2.2905
   98MOL   H36137415   6.478   3.301   4.875 -2.5128  0.3914 -1.1062
   98MOL   H36237416   6.506   3.290   4.712 -0.7325 -0.9728  0.9455
   98MOL   C36337417   6.468   3.502   4.767  0.1720  0.8896  0.9295
   98MOL   C36437418   6.346   3.503   4.677  0.0183  0.3487 -0.0186
   98MOL   C36537419   6.372   3.439   4.536  0.0623  0.1177 -0.2789
   98MOL   C36637420   6.326   3.538   4.426  0.0916 -0.0784 -0.2505
   98MOL   C36737421   6.243   3.644   4.495  0.2709 -0.5028  0.1375
   98MOL   C36837422   6.304   3.644   4.637 -0.5194  0.3588 -0.9682
   98MOL   C36937423   6.450   3.586   4.899  0.1852 -0.1609  0.5298
   98MOL   H37037424   6.547   3.554   4.712  1.5136 -3.0136 -1.0614
   98MOL   H37137425   6.267   3.445   4.724  1.6772 -0.7647  1.4482
   98MOL   H37237426   6.479   3.424   4.522  0.1023  1.0194 -0.9571
   98MOL   H37337427   6.313   3.348   4.523  1.4058 -1.0088  1.2951
   98MOL   H37437428   6.420   3.564   4.376  1.2198 -3.0966  0.2082
   98MOL   H37537429   6.266   3.489   4.350  0.9097  1.5879 -2.0184
   98MOL   H37637430   6.259   3.740   4.445 -1.1689  0.3681  1.3215
   98MOL   H37737431   6.139   3.615   4.510 -0.7456  2.4877 -0.7241
   98MOL   H37837432   6.246   3.677   4.723  0.0697 -4.5531  1.5073
   98MOL   H37937433   6.384   3.718   4.635 -2.6971  2.7756 -1.1149
   98MOL   H38037434   6.527   3.566   4.973 -1.5295 -1.7841  1.9213
   98MOL   H38137435   6.355   3.566   4.948  0.5918 -1.3922  0.8363
   98MOL   H38237436   6.449   3.692   4.871  1.2918 -0.1838  0.3820
   99MOL     C137437   4.147   0.904   4.683  1.3595 -0.0968 -0.9757
   99MOL     C237438   4.127   0.951   4.540  0.5236  0.4544  0.3055
   99MOL     C337439   4.114   0.844   4.430 -0.1218  0.0801 -0.5634
   99MOL     C437440   4.121   0.916   4.299 -0.2946  0.2340 -0.0044
   99MOL     C537441   4.251   0.989   4.329  0.0037 -0.3581  0.9745
   99MOL     C637442   4.258   1.028   4.478  0.7243  0.5405 -0.4108
   99MOL     C737443   4.180   1.012   4.791  0.3040  0.0860  0.6942
   99MOL     H837444   4.061   0.842   4.709  0.9517  0.8475 -0.0376
   99MOL     H937445   4.044   1.020   4.524 -1.1555 -1.7767 -0.8326
   99MOL    H1037446   4.175   0.755   4.448  0.3159  0.5929  0.5640
   99MOL    H1137447   4.013   0.811   4.455  0.7563 -1.6262  0.8876
   99MOL    H1237448   4.121   0.828   4.235 -0.6661 -0.4980  0.9948
   99MOL    H1337449   4.033   0.977   4.275 -0.1713 -0.2505 -1.8298
   99MOL    H1437450   4.338   0.936   4.288  1.7368  1.9881  1.5314
   99MOL    H1537451   4.255   1.081   4.271 -0.0839 -0.5625  0.6398
   99MOL    H1637452   4.244   1.135   4.494  1.1219  0.3899  1.1015
   99MOL    H1737453   4.348   0.989   4.527  0.2553 -0.4410 -0.3180
   99MOL    H1837454   4.259   1.070   4.743  0.6647  0.2262  1.4514
   99MOL    H1937455   4.094   1.078   4.781  0.1508 -0.5251 -2.4922
   99MOL    H2037456   4.235   0.841   4.674  1.3306 -0.5351  1.5798
   99MOL    C2137457   4.221   0.968   4.926 -0.2346 -0.0345 -0.2532
   99MOL    C2237458   4.264   1.078   5.019  0.5444 -0.9736  0.7354
   99MOL    C2337459   4.165   1.192   5.037  0.0654  0.3360 -0.3252
   99MOL    C2437460   4.251   1.318   5.051  0.3723  0.1964  0.4968
   99MOL    C2537461   4.406   1.286   5.047  0.0515  0.3000 -0.0738
   99MOL    C2637462   4.396   1.142   4.987 -0.6922  0.3205  1.0251
   99MOL    C2737463   4.110   0.878   4.986  0.8036  0.0435  0.4390
   99MOL    H2837464   4.310   0.907   4.909 -1.4967 -1.6024 -1.3664
   99MOL    H2937465   4.281   1.037   5.118  2.8772 -1.0086  0.3518
   99MOL    H3037466   4.105   1.175   5.127  2.3866  1.6480  1.5383
   99MOL    H3137467   4.087   1.213   4.964 -1.5558 -0.5909  1.0857
   99MOL    H3237468   4.226   1.378   4.963 -0.6479 -0.9644 -0.0149
   99MOL    H3337469   4.216   1.383   5.132 -2.3463  2.2134 -2.1897
   99MOL    H3437470   4.445   1.290   5.149  2.9798  2.2825 -1.2094
   99MOL    H3537471   4.455   1.354   4.977  1.3503 -1.6211 -1.0708
   99MOL    H3637472   4.474   1.076   5.023  0.2395  0.7165 -0.2408
   99MOL    H3737473   4.408   1.142   4.879  1.1950 -3.0088  1.1904
   99MOL    H3837474   4.025   0.945   4.994  0.9057  0.0946  1.1470
   99MOL    H3937475   4.079   0.804   4.912  0.2831 -0.5875  1.2817
   99MOL    C4037476   4.131   0.802   5.122  0.5696 -0.9575  0.3140
   99MOL    C4137477   4.016   0.698   5.157 -0.8211 -0.4074  0.6521
   99MOL    C4237478   4.010   0.587   5.059  0.1206 -0.3223 -0.3439
   99MOL    C4337479   3.865   0.587   5.011  0.1760 -0.5602  0.2368
   99MOL    C4437480   3.785   0.654   5.127  0.3348 -0.2996 -0.5367
   99MOL    C4537481   3.879   0.757   5.184 -0.3616 -0.0313 -0.0332
   99MOL    C4637482   4.273   0.744   5.120 -0.0684  0.0628 -0.7164
   99MOL    H4737483   4.117   0.879   5.198 -2.3093  0.7283 -1.8374
   99MOL    H4837484   4.047   0.660   5.254  0.4399 -1.4270 -0.1374
   99MOL    H4937485   4.032   0.493   5.110  1.0240 -1.4704 -2.7937
   99MOL    H5037486   4.080   0.600   4.977 -1.0048  0.5027 -1.1992
   99MOL    H5137487   3.820   0.491   4.988  0.0853 -0.7354  1.1271
   99MOL    H5237488   3.857   0.654   4.925  0.3282  0.1037  0.7333
   99MOL    H5337489   3.686   0.691   5.100  0.6149  1.6931  0.9966
   99MOL    H5437490   3.764   0.580   5.205 -3.6719  2.2607  0.9379
   99MOL    H5537491   3.860   0.862   5.160 -0.9084 -0.3088 -0.8484
   99MOL    H5637492   3.873   0.764   5.292  1.9813 -0.7783  0.1665
   99MOL    H5737493   4.284   0.685   5.028 -0.2220  1.1414 -1.4399
   99MOL    H5837494   4.353   0.815   5.098 -1.0821  1.0674 -1.2396
   99MOL    C5937495   4.326   0.682   5.250 -0.3261 -0.3121 -0.0171
   99MOL    C6037496   4.290   0.775   5.372  0.3881 -0.0844  0.4069
   99MOL    C6137497   4.340   0.924   5.376 -0.5787 -0.0943  0.4498
   99MOL    C6237498   4.406   0.941   5.512  1.3121  0.3926  0.6392
   99MOL    C6337499   4.353   0.822   5.594 -0.4696  0.1761  0.2129
   99MOL    C6437500   4.360   0.707   5.493  0.5821 -0.3433  0.0029
   99MOL    C6537501   4.307   0.529   5.256  0.0459 -0.1953  0.3060
   99MOL    H6637502   4.435   0.686   5.241 -0.0583 -1.5144  2.2388
   99MOL    H6737503   4.185   0.776   5.401 -0.3480  1.6607 -2.1532
   99MOL    H6837504   4.261   0.998   5.364 -0.8051 -0.1172  1.7251
   99MOL    H6937505   4.412   0.939   5.295  0.0757  0.3620  1.1102
   99MOL    H7037506   4.381   1.033   5.565  0.2148  0.3040  0.2841
   99MOL    H7137507   4.513   0.923   5.500  0.9566 -1.4682  0.1938
   99MOL    H7237508   4.249   0.841   5.618 -0.2459  4.0811 -1.4865
   99MOL    H7337509   4.412   0.808   5.684 -0.4975  3.6828  0.8377
   99MOL    H7437510   4.463   0.684   5.467 -0.0536 -1.1978 -1.8458
   99MOL    H7537511   4.312   0.621   5.540  0.5913 -0.5306 -0.3291
   99MOL    H7637512   4.199   0.522   5.267 -0.0947  2.5648  1.0327
   99MOL    H7737513   4.351   0.499   5.352 -1.2860  0.0356  1.0085
   99MOL    C7837514   4.355   0.430   5.154  0.0255  0.2951 -0.0818
   99MOL    C7937515   4.509   0.436   5.124 -0.1157  1.1111 -0.8257
   99MOL    C8037516   4.555   0.376   4.987  0.3240  0.0331  0.6281
   99MOL    C8137517   4.705   0.415   5.002 -0.0182 -0.9518  0.1588
   99MOL    C8237518   4.745   0.382   5.149 -0.3869  0.0903 -0.2012
   99MOL    C8337519   4.606   0.388   5.230 -0.9880  0.3676 -0.3535
   99MOL    C8437520   4.302   0.296   5.205  0.0247 -0.5848 -0.3176
   99MOL    H8537521   4.309   0.445   5.057 -2.3856 -1.8408  0.6738
   99MOL    H8637522   4.528   0.541   5.106  0.4243  1.1523 -0.0089
   99MOL    H8737523   4.517   0.428   4.899  0.7439  1.1056  1.0726
   99MOL    H8837524   4.541   0.268   4.981  1.0289 -0.0791  0.9680
   99MOL    H8937525   4.732   0.519   4.981 -2.0102  0.0171  2.2425
   99MOL    H9037526   4.759   0.340   4.944 -2.2947 -2.1308 -0.4692
   99MOL    H9137527   4.812   0.296   5.153 -0.7080 -0.1722 -0.5453
   99MOL    H9237528   4.792   0.473   5.188 -1.0151  0.9372 -1.3965
   99MOL    H9337529   4.580   0.292   5.275  0.7691 -0.8712 -1.8953
   99MOL    H9437530   4.604   0.465   5.307 -0.3005 -1.2847  1.3589
   99MOL    H9537531   4.196   0.322   5.207 -0.0335 -0.8639  0.2411
   99MOL    H9637532   4.332   0.286   5.309 -1.9244  1.2014  0.4523
   99MOL    C9737533   4.312   0.164   5.124 -0.0997 -0.4394  0.3547
   99MOL    C9837534   4.241   0.183   4.985 -0.0414  0.1437 -0.2661
   99MOL    C9937535   4.282   0.078   4.884 -0.0814 -0.0294  0.1769
   99MOL   C10037536   4.149   0.033   4.824 -0.1934  0.6232 -0.3534
   99MOL   C10137537   4.035   0.093   4.899  0.4300  0.3285  0.8802
   99MOL   C10237538   4.088   0.194   4.994  0.0656  0.2431 -0.1520
   99MOL   C10337539   4.249   0.037   5.202  0.2368 -0.2878  0.7143
   99MOL   H10437540   4.418   0.145   5.106 -0.0126  2.2371 -2.2794
   99MOL   H10537541   4.272   0.275   4.935  0.5722 -0.1770 -0.4915
   99MOL   H10637542   4.345   0.118   4.804  2.5190 -1.2043  1.6114
   99MOL   H10737543   4.346   7.687   4.918 -1.8082 -0.9927  1.1872
   99MOL   H10837544   4.131   7.615   4.826 -2.4182  0.9973  0.7300
   99MOL   H10937545   4.144   0.050   4.717  0.4888 -0.1112 -0.5076
   99MOL   H11037546   3.987   0.010   4.952  0.4559 -1.6517 -2.1020
   99MOL   H11137547   3.960   0.148   4.842  0.2861 -0.5681  0.1985
   99MOL   H11237548   4.038   0.290   4.985  1.0183  0.7367 -0.2082
   99MOL   H11337549   4.066   0.158   5.094  0.7406  0.5623  0.1123
   99MOL   H11437550   4.169   0.072   5.266  1.1238  2.5155  0.3655
   99MOL   H11537551   4.200   7.664   5.128 -0.2177 -0.9710  1.5920
   99MOL   C11637552   4.344   7.634   5.292 -0.3079  0.6323 -0.3335
   99MOL   C11737553   4.438   7.552   5.192 -0.0030 -0.1118 -0.6325
   99MOL   C11837554   4.538   7.454   5.265 -0.5137 -1.1271  0.5497
   99MOL   C11937555   4.555   7.330   5.167 -0.8921 -0.1679  0.6788
   99MOL   C12037556   4.454   7.349   5.054  0.8785 -0.4405 -0.3741
   99MOL   C12137557   4.352   7.459   5.108 -0.0656  0.6822 -0.0768
   99MOL   C12237558   4.424   0.014   5.400 -0.2186 -0.0717  0.0345
   99MOL   H12337559   4.286   7.566   5.354 -0.3061  1.0189  0.0958
   99MOL   H12437560   4.495   7.614   5.123  0.2431  0.1274 -0.2210
   99MOL   H12537561   4.638   7.497   5.274 -1.9296  2.7628 -1.0860
   99MOL   H12637562   4.507   7.415   5.362 -2.1802 -0.8353  0.1521
   99MOL   H12737563   4.560   7.231   5.214  0.3100 -1.4838 -2.1276
   99MOL   H12837564   4.650   7.336   5.114 -0.1001  1.9762  2.2399
   99MOL   H12937565   4.407   7.255   5.026 -2.9929  1.2114  0.2902
   99MOL   H13037566   4.500   7.390   4.964  1.4263  0.4947  0.3253
   99MOL   H13137567   4.303   7.503   5.021  1.2225 -0.8989 -1.6545
   99MOL   H13237568   4.273   7.407   5.163  1.5367 -1.5564  0.2029
   99MOL   H13337569   4.485   0.093   5.356 -1.8195  0.8651 -0.5384
   99MOL   H13437570   4.491   7.634   5.450 -1.2270 -0.0567  1.4681
   99MOL   C13537571   4.326   0.066   5.515 -0.2579  0.1083  0.1485
   99MOL   C13637572   4.405   0.146   5.624 -0.6200  0.0139  0.5007
   99MOL   C13737573   4.322   0.243   5.700 -0.0364 -0.2726  0.1115
   99MOL   C13837574   4.425   0.344   5.754 -0.7549  0.1286  0.3066
   99MOL   C13937575   4.530   0.367   5.653  0.1539 -0.4542 -0.1108
   99MOL   C14037576   4.504   0.241   5.562 -0.5826  0.2635 -0.1489
   99MOL   C14137577   4.262   7.641   5.591 -0.0086  0.5749 -0.6891
   99MOL   H14237578   4.244   0.126   5.474 -0.2586 -0.2834 -0.4347
   99MOL   H14337579   4.471   0.088   5.688  0.1990  1.9118  1.4433
   99MOL   H14437580   4.256   0.301   5.635  2.2826 -0.7320 -2.7856
   99MOL   H14537581   4.265   0.196   5.780 -0.4156 -2.1025 -1.1924
   99MOL   H14637582   4.480   0.294   5.834  0.5966 -1.4636 -1.6053
   99MOL   H14737583   4.377   0.436   5.789  1.0579  0.8484  0.9936
   99MOL   H14837584   4.631   0.391   5.687  0.2512 -0.4595 -0.3955
   99MOL   H14937585   4.498   0.462   5.610 -0.2042 -0.7170 -0.4253
   99MOL   H15037586   4.469   0.291   5.472 -0.6210 -0.7539 -0.7039
   99MOL   H15137587   4.598   0.197   5.529 -0.5985  0.6464 -0.7207
   99MOL   H15237588   4.261   7.662   5.698 -1.5853 -0.1973 -0.5341
   99MOL   H15337589   4.318   7.548   5.586 -1.7015 -0.6296  1.3642
   99MOL   C15437590   4.117   7.609   5.553 -0.3257 -0.5651 -0.1291
   99MOL   C15537591   4.078   7.460   5.591  0.0809 -0.3257  0.9441
   99MOL   C15637592   4.122   7.403   5.727  0.9577 -0.2434  0.3461
   99MOL   C15737593   4.155   7.256   5.707 -0.5263 -0.4736 -0.0374
   99MOL   C15837594   4.112   7.228   5.558 -0.7532  0.2546 -0.8719
   99MOL   C15937595   4.116   7.360   5.488  0.4773 -0.0094 -0.1977
   99MOL   C16037596   4.018   0.021   5.612  0.9692 -0.1159  0.1325
   99MOL   H16137597   4.110   7.613   5.444 -0.5722  1.8130 -0.0648
   99MOL   H16237598   3.970   7.447   5.595 -0.2368  2.4471  2.0931
   99MOL   H16337599   4.223   7.442   5.744  0.2166  1.4968  0.9052
   99MOL   H16437600   4.056   7.423   5.811  1.0049 -0.0138  0.3309
   99MOL   H16537601   4.262   7.239   5.723 -0.7820 -0.3456  1.9406
   99MOL   H16637602   4.097   7.190   5.771 -1.7439 -0.2870 -0.9416
   99MOL   H16737603   4.011   7.188   5.567 -0.3450 -0.3911  0.8538
   99MOL   H16837604   4.174   7.153   5.509 -1.4230 -1.3154  0.6429
   99MOL   H16937605   4.053   7.361   5.399  1.1451 -1.9277 -0.7360
   99MOL   H17037606   4.213   7.376   5.442  0.7399 -1.2411 -0.0942
   99MOL   H17137607   4.051   0.125   5.603  1.0673 -0.1672 -0.0963
   99MOL   H17237608   4.007   0.007   5.720 -1.1585  1.3443  0.1203
   99MOL   C17337609   3.876   0.024   5.540  0.1090 -0.2696  0.5029
   99MOL   C17437610   3.888   0.079   5.392 -0.0207  0.2363  0.4092
   99MOL   C17537611   3.924   0.230   5.389  0.0203 -0.8956 -0.3486
   99MOL   C17637612   3.834   0.280   5.274  0.0238 -0.1019 -0.0191
   99MOL   C17737613   3.715   0.192   5.272  0.2608 -0.0227  0.8111
   99MOL   C17837614   3.761   0.055   5.310 -0.3199  0.5421 -0.1676
   99MOL   C17937615   3.768   0.101   5.627 -0.0921 -0.2209 -0.7285
   99MOL   H18037616   3.836   7.612   5.539  1.9114 -1.0062 -2.4219
   99MOL   H18137617   3.956   0.018   5.333 -2.3099  0.0906 -2.2073
   99MOL   H18237618   4.029   0.246   5.364  0.1683 -2.5544 -0.8714
   99MOL   H18337619   3.898   0.287   5.479 -1.0523 -0.9516 -0.6232
   99MOL   H18437620   3.803   0.384   5.286 -0.7682 -0.3660  0.2811
   99MOL   H18537621   3.886   0.265   5.180 -0.2422  3.2931 -0.7624
   99MOL   H18637622   3.678   0.194   5.170  0.2377 -1.1103  0.7953
   99MOL   H18737623   3.630   0.231   5.328  1.0574  1.4651  1.0043
   99MOL   H18837624   3.676   0.008   5.359 -1.1233  1.5163 -0.6233
   99MOL   H18937625   3.803   0.007   5.221  0.5886 -0.1740  0.6257
   99MOL   H19037626   3.811   0.184   5.683 -0.2758 -0.7038  0.1467
   99MOL   H19137627   3.702   0.159   5.563 -0.3143  1.5437  1.0532
   99MOL   C19237628   3.661   0.026   5.713 -0.1982  0.1565 -0.1665
   99MOL   C19337629   3.533   0.114   5.747  0.0457 -0.1783  0.5627
   99MOL   C19437630   3.431   0.107   5.631 -0.1190 -0.1122 -0.2555
   99MOL   C19537631   3.368   0.246   5.627 -0.4385  0.2848  0.6909
   99MOL   C19637632   3.418   0.327   5.747  0.2273  0.1091 -0.0784
   99MOL   C19737633   3.550   0.266   5.769  0.2451 -0.4272  0.0265
   99MOL   C19837634   3.734   7.670   5.846  0.7351 -0.0592  0.5491
   99MOL   H19937635   3.623   7.630   5.656 -2.0398  0.8689 -0.0334
   99MOL   H20037636   3.478   0.074   5.832  0.3547 -0.4478  0.6348
   99MOL   H20137637   3.363   0.023   5.645 -0.3649  0.2130  0.5321
   99MOL   H20237638   3.494   0.087   5.544  1.8266  0.7298  0.9360
   99MOL   H20337639   3.392   0.297   5.534 -1.3811 -1.1473 -0.3528
   99MOL   H20437640   3.259   0.246   5.632 -0.5145  1.5066 -0.6131
   99MOL   H20537641   3.354   0.312   5.834 -1.9047  0.2421 -1.6104
   99MOL   H20637642   3.434   0.434   5.736 -2.0089  0.6085  1.2406
   99MOL   H20737643   3.595   0.292   5.865 -0.8291  1.3849  0.0635
   99MOL   H20837644   3.620   0.307   5.697  1.3953 -2.0407  0.2150
   99MOL   H20937645   3.837   7.640   5.826 -0.0339 -1.5566 -1.4071
   99MOL   H21037646   3.763   0.071   5.898  1.4060 -1.3217  2.4140
   99MOL   C21137647   3.642   7.573   5.932  0.1976 -0.8111 -0.0557
   99MOL   C21237648   3.703   7.421   5.923  0.5415  0.2457  0.1451
   99MOL   C21337649   3.608   7.315   5.985 -0.0609  0.2781  0.4205
   99MOL   C21437650   3.617   7.189   5.895 -0.0019 -0.8199 -0.2177
   99MOL   C21537651   3.718   7.222   5.791  0.0837  0.5809 -0.3098
   99MOL   C21637652   3.714   7.375   5.780  0.3993 -0.3968 -0.7453
   99MOL   C21737653   3.634   7.621   6.085  0.0861 -0.1013  0.3693
   99MOL   H21837654   3.545   7.573   5.883  1.7800  0.7179 -3.3753
   99MOL   H21937655   3.799   7.411   5.974 -0.2480 -1.6972  1.3131
   99MOL   H22037656   3.622   7.295   6.091 -1.1166  1.8103  0.8654
   99MOL   H22137657   3.504   7.348   5.981 -0.1362  0.0774  0.7689
   99MOL   H22237658   3.647   7.106   5.959 -0.3644 -0.1669  0.8011
   99MOL   H22337659   3.514   7.176   5.861 -0.2276  0.1267  0.0907
   99MOL   H22437660   3.695   7.167   5.700 -1.3182 -1.4917  1.2069
   99MOL   H22537661   3.814   7.188   5.830  0.2956  0.9057 -0.5569
   99MOL   H22637662   3.804   7.425   5.742 -0.0576  0.1757 -1.0913
   99MOL   H22737663   3.625   7.407   5.726  0.4811  0.8274 -0.1644
   99MOL   H22837664   3.636   0.040   6.085 -0.8715 -0.0724 -0.3223
   99MOL   H22937665   3.723   7.588   6.138 -0.5204  0.7436  1.9453
   99MOL   C23037666   3.505   7.579   6.173  0.5483 -0.9007 -0.3263
   99MOL   C23137667   3.386   7.649   6.100  0.0243  0.1539 -0.2840
   99MOL   C23237668   3.251   7.598   6.143 -0.3772 -0.2215 -0.2394
   99MOL   C23337669   3.146   0.019   6.127 -0.5348 -0.2426 -0.1510
   99MOL   C23437670   3.225   0.132   6.054  0.3727 -0.2577 -0.1334
   99MOL   C23537671   3.371   0.114   6.101  0.7833 -0.1577  0.3669
   99MOL   C23637672   3.517   7.621   6.320  0.3182 -0.4273  0.3241
   99MOL   H23737673   3.505   7.470   6.171  1.7148 -0.8900 -1.4448
   99MOL   H23837674   3.378   7.622   5.995 -0.0977  2.1954 -0.8237
   99MOL   H23937675   3.232   7.508   6.085 -0.1105 -0.1936 -0.3697
   99MOL   H24037676   3.240   7.569   6.247  0.7237 -0.6119 -0.2262
   99MOL   H24137677   3.063   7.675   6.064 -2.2363  1.7751  0.9719
   99MOL   H24237678   3.102   0.047   6.222 -1.3774 -0.4620 -0.4697
   99MOL   H24337679   3.162   0.218   6.078 -0.4116 -0.6798 -0.6641
   99MOL   H24437680   3.209   0.124   5.946 -3.4122 -0.3896  0.3673
   99MOL   H24537681   3.386   0.155   6.201  0.4538 -1.2792  0.8758
   99MOL   H24637682   3.446   0.155   6.033 -0.9148  2.3784 -0.0486
   99MOL   H24737683   3.422   7.607   6.371 -0.6036 -0.5651 -1.3966
   99MOL   H24837684   3.530   0.039   6.325  2.1829 -0.6686  1.3469
   99MOL   C24937685   3.622   7.558   6.405 -0.0866  0.1844 -0.0703
   99MOL   C25037686   3.574   7.431   6.486  0.5829 -0.7018  0.2731
   99MOL   C25137687   3.486   7.332   6.406 -0.1189 -0.5029 -0.1186
   99MOL   C25237688   3.434   7.246   6.525  0.8062 -0.3159  0.4644
   99MOL   C25337689   3.396   7.350   6.632  0.3936  0.1553 -0.0424
   99MOL   C25437690   3.503   7.456   6.619  0.6504 -0.4809 -0.1142
   99MOL   C25537691   3.694   7.666   6.489  0.0561 -0.4599 -0.4650
   99MOL   H25637692   3.690   7.513   6.333 -0.3068 -3.0280  1.6154
   99MOL   H25737693   3.662   7.376   6.520  0.4436 -0.1660  1.4918
   99MOL   H25837694   3.535   7.286   6.320 -2.0362 -0.6940 -1.1459
   99MOL   H25937695   3.396   7.384   6.370  0.7691  1.1229 -0.0487
   99MOL   H26037696   3.510   7.177   6.563 -0.5355 -2.1171 -0.0670
   99MOL   H26137697   3.356   7.177   6.495  1.3501  0.2598 -2.4206
   99MOL   H26237698   3.382   7.309   6.732 -1.1300 -1.3467 -0.8490
   99MOL   H26337699   3.298   7.390   6.605  0.0628 -1.3870 -1.2143
   99MOL   H26437700   3.570   7.450   6.705 -1.5505 -2.2571  1.5487
   99MOL   H26537701   3.466   7.558   6.630  0.7460 -0.4142 -0.4159
   99MOL   H26637702   3.705   0.074   6.441 -1.5134  0.1193  0.2962
   99MOL   H26737703   3.628   7.688   6.574  1.4180  2.0318  0.0117
   99MOL   C26837704   3.839   7.625   6.534 -0.5160  0.1077  0.5787
   99MOL   C26937705   3.853   7.620   6.687  1.0885 -0.2862 -0.3325
   99MOL   C27037706   3.844   0.073   6.751  0.2338 -0.5807 -0.1964
   99MOL   C27137707   3.905   0.047   6.896 -0.0564 -0.3825 -0.6844
   99MOL   C27237708   3.989   7.606   6.894 -0.4386 -0.6597  0.2464
   99MOL   C27337709   3.976   7.557   6.746  0.0021 -0.3783 -0.5095
   99MOL   C27437710   3.946   0.017   6.458 -0.7347 -0.3190 -0.3412
   99MOL   H27537711   3.853   7.522   6.500  1.9075  1.2387 -2.0787
   99MOL   H27637712   3.774   7.555   6.723  1.7795 -0.7792  0.3034
   99MOL   H27737713   3.887   0.154   6.693 -2.4995  0.4031 -0.9016
   99MOL   H27837714   3.741   0.105   6.765  1.4967  2.9725  1.6071
   99MOL   H27937715   3.961   0.135   6.928 -0.0721  0.1544 -2.1336
   99MOL   H28037716   3.820   0.030   6.962  1.2703 -0.9613  0.9222
   99MOL   H28137717   3.946   7.538   6.967 -0.4458 -0.5121  0.3814
   99MOL   H28237718   4.095   7.627   6.911 -0.0521 -2.2760 -0.0768
   99MOL   H28337719   3.968   7.449   6.730 -0.6857 -0.3180 -0.5734
   99MOL   H28437720   4.063   7.588   6.689  0.9855 -3.8911 -1.0238
   99MOL   H28537721   4.037   0.014   6.517 -0.1124  0.0023 -1.2686
   99MOL   H28637722   3.917   0.121   6.467 -0.3833 -0.0733 -1.8831
   99MOL   C28737723   3.980   7.663   6.310  0.6331  0.3495  0.4306
   99MOL   C28837724   4.008   0.097   6.227  0.4950  0.3654 -0.4759
   99MOL   C28937725   4.020   0.075   6.076  0.8041 -0.2719 -0.2554
   99MOL   C29037726   3.988   0.216   6.010 -0.4911  0.1010 -0.5672
   99MOL   C29137727   3.888   0.281   6.106 -0.0676 -0.3727  0.1618
   99MOL   C29237728   3.896   0.204   6.229  0.1939 -0.4580  0.3358
   99MOL   C29337729   4.098   7.558   6.297  0.0599  1.0314  0.0703
   99MOL   H29437730   3.889   7.621   6.266 -0.9134 -1.0229  4.7423
   99MOL   H29537731   4.107   0.137   6.248  0.5000  0.4087 -0.5812
   99MOL   H29637732   4.124   0.046   6.057  1.0224  1.5444 -1.9267
   99MOL   H29737733   3.951   7.686   6.045 -1.1279  0.3688  2.2572
   99MOL   H29837734   4.083   0.270   6.008  0.3387 -1.3701 -2.1245
   99MOL   H29937735   3.954   0.209   5.907  0.4795  0.7113 -0.9369
   99MOL   H30037736   3.793   0.289   6.054  0.1053  2.1196  0.1585
   99MOL   H30137737   3.907   0.387   6.124 -1.3181  0.2330 -1.8405
   99MOL   H30237738   3.795   0.167   6.247  0.6245 -1.3020  1.0649
   99MOL   H30337739   3.920   0.268   6.314 -2.2702  0.5775  0.2968
   99MOL   H30437740   4.189   7.615   6.315 -0.1674  1.2059  0.6809
   99MOL   H30537741   4.110   7.529   6.192  0.3660  2.5844 -0.3320
   99MOL   C30637742   4.088   7.430   6.393 -0.9443 -0.1497  0.2355
   99MOL   C30737743   3.970   7.338   6.344 -0.2563  0.3633  0.4345
   99MOL   C30837744   3.991   7.277   6.208 -0.4056 -0.3064  0.5880
   99MOL   C30937745   3.892   7.158   6.214 -0.2233  0.2011  0.9385
   99MOL   C31037746   3.874   7.111   6.361  0.2928  0.0223  0.3303
   99MOL   C31137747   3.935   7.226   6.442 -0.2400  0.0496  0.3304
   99MOL   C31237748   4.228   7.358   6.395 -0.6231 -0.1626 -0.0368
   99MOL   H31337749   4.064   7.467   6.492 -0.0474 -1.9050  1.1398
   99MOL   H31437750   3.876   7.393   6.335 -0.0491  0.3563 -2.5685
   99MOL   H31537751   4.093   7.240   6.202 -0.9179 -1.7237  0.6132
   99MOL   H31637752   3.972   7.339   6.120 -0.1669 -1.4950 -0.2958
   99MOL   H31737753   3.794   7.178   6.171  0.4247  1.6963  0.1055
   99MOL   H31837754   3.940   7.078   6.157  1.9847  1.2319  1.2973
   99MOL   H31937755   3.925   7.017   6.386 -0.5960 -1.5032 -3.2695
   99MOL   H32037756   3.767   7.105   6.380  0.0751  2.0706 -0.2150
   99MOL   H32137757   3.879   7.265   6.527 -1.7202  1.7828 -1.4188
   99MOL   H32237758   4.022   7.175   6.484 -0.0334  0.7804  0.7910
   99MOL   H32337759   4.290   7.387   6.310  0.7012 -1.9475  0.2894
   99MOL   H32437760   4.206   7.252   6.381  0.3040 -0.2178 -1.1682
   99MOL   C32537761   4.315   7.373   6.528  1.0224 -0.2700 -0.4307
   99MOL   C32637762   4.424   7.491   6.532  0.6334 -0.1222 -0.4335
   99MOL   C32737763   4.367   7.629   6.561  0.0709 -0.2149  0.7692
   99MOL   C32837764   4.453   0.030   6.482  0.1484  1.1021  0.2135
   99MOL   C32937765   4.502   7.645   6.360  0.2632 -0.3573  0.2681
   99MOL   C33037766   4.517   7.506   6.420  0.3667  0.0975  0.6267
   99MOL   C33137767   4.376   7.239   6.567  0.1767 -0.3957 -0.0528
   99MOL   H33237768   4.242   7.398   6.605 -0.5677 -1.7512 -1.4156
   99MOL   H33337769   4.489   7.470   6.617 -1.9918  3.7428  2.7188
   99MOL   H33437770   4.379   7.656   6.666  1.0159 -0.7375  0.7972
   99MOL   H33537771   4.261   7.636   6.534 -0.5211 -0.6119  2.9376
   99MOL   H33637772   4.541   0.067   6.535  2.6323  0.2008 -3.1155
   99MOL   H33737773   4.392   0.115   6.452 -0.1463  1.6486  2.2877
   99MOL   H33837774   4.594   7.669   6.307  1.3873 -2.8208  1.0351
   99MOL   H33937775   4.433   7.631   6.277  0.3815 -0.8926  0.2584
   99MOL   H34037776   4.618   7.503   6.463  1.1452 -0.9822 -1.2174
   99MOL   H34137777   4.514   7.422   6.350  0.7993 -0.7716  1.6445
   99MOL   H34237778   4.474   7.231   6.521 -0.5821 -3.9240 -1.2416
   99MOL   H34337779   4.320   7.151   6.534  0.7285 -0.6810 -0.2368
   99MOL   C34437780   4.405   7.233   6.720  0.6034  0.2916  1.5228
   99MOL   C34537781   4.556   7.188   6.750  0.2459  0.0268  0.2816
   99MOL   C34637782   4.668   7.274   6.696  0.2214 -0.4662  0.3205
   99MOL   C34737783   4.796   7.182   6.717 -0.3207  0.1120  0.2517
   99MOL   C34837784   4.744   7.037   6.696  0.7518 -0.0501 -0.4289
   99MOL   C34937785   4.589   7.053   6.687  0.1354 -0.1951 -0.5115
   99MOL   C35037786   4.304   7.153   6.806 -0.3607  0.2925  0.5546
   99MOL   H35137787   4.413   7.334   6.759  1.1031  0.8736 -0.0577
   99MOL   H35237788   4.566   7.180   6.858 -1.2923 -1.8360  0.3110
   99MOL   H35337789   4.695   7.370   6.739 -0.7538 -0.2797  0.5281
   99MOL   H35437790   4.664   7.295   6.589  0.2824 -1.9235  0.0240
   99MOL   H35537791   4.884   7.202   6.657  1.6655 -0.7482  2.7965
   99MOL   H35637792   4.827   7.184   6.821 -1.2147  1.2447  0.5134
   99MOL   H35737793   4.764   6.972   6.781  2.0852 -0.4600 -1.0244
   99MOL   H35837794   4.775   6.986   6.604  0.8133 -2.7564  1.0472
   99MOL   H35937795   4.551   7.041   6.586  0.6427 -0.7182 -0.6418
   99MOL   H36037796   4.523   6.982   6.737  0.1541  1.0116  1.2716
   99MOL   H36137797   4.350   7.120   6.899 -0.5478  0.2716  0.6402
   99MOL   H36237798   4.285   7.060   6.753  0.7492  0.5091 -0.2403
   99MOL   C36337799   4.175   7.231   6.849  0.2276  0.8211  0.0266
   99MOL   C36437800   4.063   7.134   6.891 -0.3189  0.2450  0.4977
   99MOL   C36537801   4.053   6.993   6.829  1.0015 -0.0804 -0.0093
   99MOL   C36637802   3.907   6.947   6.857  0.0842 -1.0935 -0.2872
   99MOL   C36737803   3.833   7.068   6.911 -0.2280  0.2746  0.2268
   99MOL   C36837804   3.922   7.186   6.888 -0.0259 -0.0112 -0.6127
   99MOL   C36937805   4.200   7.334   6.955 -0.4350 -0.1446 -0.1806
   99MOL   H37037806   4.144   7.286   6.760  1.5977  0.8504 -0.4383
   99MOL   H37137807   4.095   7.115   6.994 -0.6745  1.7161  0.8810
   99MOL   H37237808   4.068   6.998   6.721 -0.2744 -1.3105 -0.2533
   99MOL   H37337809   4.129   6.922   6.863  0.7030  0.6755  2.3244
   99MOL   H37437810   3.865   6.912   6.762  1.2960  1.5464 -1.8413
   99MOL   H37537811   3.910   6.871   6.935  0.9195 -1.4675 -0.6726
   99MOL   H37637812   3.729   7.084   6.881  0.3646  1.2590 -1.4050
   99MOL   H37737813   3.839   7.064   7.020  0.8113  0.9280  0.2048
   99MOL   H37837814   3.916   7.262   6.966  0.1301 -0.2246 -0.3916
   99MOL   H37937815   3.903   7.230   6.790  0.9757  1.9697  0.0758
   99MOL   H38037816   4.250   7.299   7.045  0.5966 -3.2048 -1.8917
   99MOL   H38137817   4.108   7.367   7.004  1.0092 -0.4243  2.7985
   99MOL   H38237818   4.266   7.414   6.920  2.6325 -2.0796  1.0245
  100MOL     C137819   3.794   2.984   3.191  0.3014 -0.3625  0.1326
  100MOL     C237820   3.797   2.856   3.118  0.3719  0.4341 -0.1374
  100MOL     C337821   3.806   2.857   2.970  0.4880  0.0336  0.1922
  100MOL     C437822   3.743   2.729   2.915 -0.6664  0.6599  0.8894
  100MOL     C537823   3.690   2.660   3.038 -0.5557  0.1180 -0.1511
  100MOL     C637824   3.683   2.767   3.149 -0.8261  0.5573  0.1221
  100MOL     C737825   3.789   2.973   3.343 -0.1247  0.3028  0.7235
  100MOL     H837826   3.884   3.039   3.162  1.4963 -2.9279 -1.1266
  100MOL     H937827   3.888   2.802   3.145 -0.6203 -0.9080  0.6400
  100MOL    H1037828   3.745   2.938   2.932  1.4236  1.3702  1.4711
  100MOL    H1137829   3.910   2.882   2.950 -0.1141  2.2804 -0.2354
  100MOL    H1237830   3.660   2.756   2.849  2.3993  0.8857 -3.0558
  100MOL    H1337831   3.812   2.661   2.866 -0.2164  1.1630  0.8217
  100MOL    H1437832   3.593   2.610   3.027  0.6270 -2.1948 -0.4955
  100MOL    H1537833   3.761   2.591   3.083  0.2566  0.2054 -1.2850
  100MOL    H1637834   3.669   2.737   3.253  2.4680  0.7699  0.6544
  100MOL    H1737835   3.594   2.829   3.136 -0.9718  0.0603 -1.3569
  100MOL    H1837836   3.697   2.921   3.371 -0.9664  0.3354 -1.8089
  100MOL    H1937837   3.869   2.907   3.376  0.9369  0.7669 -0.8981
  100MOL    H2037838   3.710   3.044   3.156  1.5429  2.1618  1.3403
  100MOL    C2137839   3.791   3.110   3.410  0.1566  0.3799  0.0694
  100MOL    C2237840   3.921   3.190   3.381  0.1682  0.1712 -0.0529
  100MOL    C2337841   4.050   3.108   3.427 -0.1806  0.2325 -0.1089
  100MOL    C2437842   4.166   3.208   3.438  0.7398 -0.2253 -0.0071
  100MOL    C2537843   4.096   3.342   3.463 -0.4396 -0.9419 -0.6284
  100MOL    C2637844   3.943   3.317   3.460  0.2655 -0.8046  0.5294
  100MOL    C2737845   3.673   3.201   3.366 -0.4527 -0.2431 -0.9808
  100MOL    H2837846   3.788   3.096   3.518 -0.6548  1.8150  0.2553
  100MOL    H2937847   3.943   3.220   3.279 -0.7419  2.6464  0.4452
  100MOL    H3037848   4.077   3.035   3.350  1.2191 -1.1061  1.5853
  100MOL    H3137849   4.036   3.062   3.525 -1.2815 -0.6825 -0.6934
  100MOL    H3237850   4.233   3.178   3.518  0.9188 -1.8677 -0.7649
  100MOL    H3337851   4.224   3.199   3.346  0.9988 -1.0703  0.2359
  100MOL    H3437852   4.124   3.415   3.387 -2.6682  0.0077 -0.5799
  100MOL    H3537853   4.135   3.372   3.560  1.1858 -1.4699 -1.1017
  100MOL    H3637854   3.895   3.401   3.410  2.3300 -0.0468 -0.2311
  100MOL    H3737855   3.911   3.314   3.564  1.3695 -0.5451  0.8838
  100MOL    H3837856   3.691   3.293   3.421 -0.0010 -0.4937 -0.6988
  100MOL    H3937857   3.681   3.229   3.261  0.0877  0.5876 -0.7240
  100MOL    C4037858   3.526   3.140   3.390 -0.9286 -0.2938 -0.6595
  100MOL    C4137859   3.512   3.102   3.544 -0.2291 -0.7220 -0.6055
  100MOL    C4237860   3.381   3.036   3.588  0.1039  0.3054  0.0257
  100MOL    C4337861   3.326   3.128   3.695 -0.1752 -0.0075 -0.0501
  100MOL    C4437862   3.448   3.186   3.757 -0.1424  0.2656  0.0672
  100MOL    C4537863   3.542   3.216   3.638  0.2565 -0.8113 -0.2352
  100MOL    C4637864   3.415   3.224   3.334 -0.2706 -0.1039  0.5180
  100MOL    H4737865   3.509   3.051   3.330 -0.1834 -1.1769  0.4354
  100MOL    H4837866   3.595   3.034   3.567  0.3364 -0.2162 -1.1221
  100MOL    H4937867   3.396   2.937   3.630  2.5919  1.3926  1.8243
  100MOL    H5037868   3.306   3.020   3.511  0.3739 -1.0630  0.0426
  100MOL    H5137869   3.249   3.078   3.755  1.7904 -3.7458 -0.4669
  100MOL    H5237870   3.273   3.210   3.647 -1.0278  0.5412  1.7982
  100MOL    H5337871   3.431   3.270   3.824 -1.4376  1.1744 -1.3764
  100MOL    H5437872   3.499   3.112   3.819 -1.4822 -0.6214  0.1446
  100MOL    H5537873   3.536   3.314   3.591 -0.3833 -0.4150  0.6732
  100MOL    H5637874   3.645   3.206   3.673  0.0162  0.6489  0.9081
  100MOL    H5737875   3.319   3.184   3.367  0.1039 -0.3689  1.2941
  100MOL    H5837876   3.429   3.323   3.378 -1.5857 -0.0988  0.9563
  100MOL    C5937877   3.393   3.232   3.182 -0.0274  1.1941  0.2797
  100MOL    C6037878   3.334   3.093   3.119  1.0845  0.1139 -0.1505
  100MOL    C6137879   3.331   3.094   2.962  0.0295  0.0397  0.5310
  100MOL    C6237880   3.235   2.985   2.913 -0.2921 -0.3648 -0.0215
  100MOL    C6337881   3.157   2.953   3.040  0.1995 -0.5238 -0.3120
  100MOL    C6437882   3.187   3.066   3.141  0.1490  0.2913 -0.5168
  100MOL    C6537883   3.304   3.359   3.147 -0.4806 -0.3200 -0.2212
  100MOL    H6637884   3.489   3.239   3.132  0.0328  1.2923  0.4114
  100MOL    H6737885   3.400   3.009   3.139  1.8739  0.7777  0.0162
  100MOL    H6837886   3.429   3.067   2.921  0.9813  4.0785 -0.0626
  100MOL    H6937887   3.294   3.184   2.913 -1.1259 -1.7825 -2.1119
  100MOL    H7037888   3.296   2.900   2.881 -0.0743 -0.2916  0.1999
  100MOL    H7137889   3.175   3.007   2.825 -1.8694 -0.1902  1.0759
  100MOL    H7237890   3.191   2.859   3.083 -1.5346 -0.7474  0.6466
  100MOL    H7337891   3.050   2.941   3.023 -0.0038  0.1719  0.4655
  100MOL    H7437892   3.128   3.152   3.108  1.1715  0.5491 -1.7078
  100MOL    H7537893   3.155   3.043   3.243 -2.5244 -0.6109 -1.5089
  100MOL    H7637894   3.212   3.332   3.198 -1.1387  0.8299 -0.7949
  100MOL    H7737895   3.282   3.365   3.040  0.5854 -0.1737 -0.4440
  100MOL    C7837896   3.373   3.502   3.183 -0.3306  0.0743  0.2164
  100MOL    C7937897   3.513   3.529   3.124  0.5631  0.4582  0.3784
  100MOL    C8037898   3.584   3.644   3.203 -0.2671 -0.2401  0.0776
  100MOL    C8137899   3.663   3.707   3.093 -0.3850 -0.0122  0.9245
  100MOL    C8237900   3.662   3.628   2.964 -0.1251  0.1818  0.5570
  100MOL    C8337901   3.529   3.556   2.977 -0.3558 -0.2434  0.0367
  100MOL    C8437902   3.275   3.615   3.142  0.1552 -0.3272 -0.9688
  100MOL    H8537903   3.388   3.500   3.291  1.0683  1.5520  0.0723
  100MOL    H8637904   3.577   3.444   3.148  0.4361  0.7985  1.9224
  100MOL    H8737905   3.656   3.612   3.278 -1.2637  1.3453  1.7399
  100MOL    H8837906   3.510   3.709   3.249 -0.5792 -1.2408  0.9989
  100MOL    H8937907   3.768   3.718   3.120 -0.1147 -1.3209  0.4306
  100MOL    H9037908   3.630   3.810   3.080  0.7111  0.1953 -0.3303
  100MOL    H9137909   3.671   3.699   2.882  1.0608  0.8241  1.2389
  100MOL    H9237910   3.744   3.556   2.962  0.4551  0.8450  0.5513
  100MOL    H9337911   3.451   3.621   2.936 -1.0949 -1.4180 -0.4453
  100MOL    H9437912   3.527   3.459   2.928 -3.1966 -0.8964  1.3479
  100MOL    H9537913   3.250   3.603   3.037 -1.0170 -0.2300 -0.7166
  100MOL    H9637914   3.324   3.711   3.159  0.2704 -0.5593  0.0142
  100MOL    C9737915   3.142   3.624   3.221  0.6709  0.0275  0.2024
  100MOL    C9837916   3.055   3.722   3.141 -0.8435 -0.6045 -0.1170
  100MOL    C9937917   2.913   3.755   3.190  0.3507 -0.8896 -0.6036
  100MOL   C10037918   2.900   3.892   3.247 -0.3236 -0.2537 -0.1929
  100MOL   C10137919   3.003   3.966   3.172 -0.2076  0.1865  0.5147
  100MOL   C10237920   3.114   3.866   3.126 -0.5254  0.2761 -0.2094
  100MOL   C10337921   3.161   3.668   3.372  0.4064 -0.2719  0.3856
  100MOL   H10437922   3.084   3.531   3.218  1.6173 -0.6110  1.4114
  100MOL   H10537923   3.038   3.675   3.044 -1.4690  0.1232 -0.3737
  100MOL   H10637924   2.843   3.734   3.109  1.4206  1.5329 -2.2205
  100MOL   H10737925   2.881   3.690   3.271 -2.3056 -0.5838 -1.3616
  100MOL   H10837926   2.919   3.905   3.354  3.7400 -1.7176 -0.6206
  100MOL   H10937927   2.797   3.924   3.230 -0.3771 -0.5227 -0.3815
  100MOL   H11037928   3.046   4.055   3.217  1.8198 -0.5785  0.1557
  100MOL   H11137929   2.956   3.998   3.079  0.8371  0.9876  0.2541
  100MOL   H11237930   3.143   3.876   3.022  0.5083 -1.5006 -0.1208
  100MOL   H11337931   3.198   3.888   3.192 -0.3026 -0.0978 -0.3687
  100MOL   H11437932   3.266   3.696   3.375  0.5520 -0.8553  1.2690
  100MOL   H11537933   3.098   3.756   3.388  0.5572 -0.2236  0.7067
  100MOL   C11637934   3.145   3.552   3.473 -0.5522 -0.1117  0.2089
  100MOL   C11737935   3.226   3.583   3.608  0.2334 -0.3193  0.1031
  100MOL   C11837936   3.374   3.599   3.598  0.7074 -0.3078 -0.0466
  100MOL   C11937937   3.429   3.675   3.716 -0.7707  0.4200  0.2067
  100MOL   C12037938   3.312   3.741   3.778  0.8679 -0.5488  0.7380
  100MOL   C12137939   3.196   3.711   3.680  0.3674  0.0981  0.5774
  100MOL   C12237940   2.995   3.521   3.488  1.2160 -0.4784 -0.8966
  100MOL   H12337941   3.196   3.464   3.435 -1.6164 -0.4244 -0.4902
  100MOL   H12437942   3.204   3.498   3.673  0.1864  0.4577  1.1096
  100MOL   H12537943   3.430   3.512   3.565  1.2556  0.0257 -0.0085
  100MOL   H12637944   3.398   3.656   3.508  1.2144 -1.0420 -0.3765
  100MOL   H12737945   3.498   3.749   3.674 -0.0734 -0.2577  0.1388
  100MOL   H12837946   3.487   3.615   3.786 -1.0130  0.8250  0.7525
  100MOL   H12937947   3.327   3.848   3.795 -0.6581  0.0509 -1.4732
  100MOL   H13037948   3.281   3.705   3.877 -1.6089 -0.0907  0.1755
  100MOL   H13137949   3.099   3.706   3.728 -1.1703 -1.3789 -2.5410
  100MOL   H13237950   3.185   3.792   3.608 -0.9514 -0.3630  0.2484
  100MOL   H13337951   2.945   3.509   3.392  1.1505 -0.9550 -0.8070
  100MOL   H13437952   2.956   3.614   3.529  0.0287 -1.3699  0.0163
  100MOL   C13537953   2.959   3.402   3.582  1.0173 -0.4804  0.1530
  100MOL   C13637954   2.956   3.273   3.500  0.1130  0.1913 -1.0454
  100MOL   C13737955   2.829   3.245   3.418 -0.7678  0.4873 -0.3190
  100MOL   C13837956   2.820   3.088   3.405 -0.2376  0.2997  0.1323
  100MOL   C13937957   2.912   3.033   3.510 -0.9312 -0.0415 -0.0472
  100MOL   C14037958   2.969   3.151   3.587 -0.0260 -0.8048  0.5624
  100MOL   C14137959   2.830   3.431   3.665  0.8334  0.2284 -0.3638
  100MOL   H14237960   3.038   3.378   3.654 -0.5962 -1.3395  1.6711
  100MOL   H14337961   3.046   3.273   3.439  0.1773 -1.8022 -0.9924
  100MOL   H14437962   2.733   3.284   3.454  0.8703  0.8650  3.9277
  100MOL   H14537963   2.846   3.282   3.317 -1.9638  0.8564 -0.3979
  100MOL   H14637964   2.855   3.053   3.307 -0.2880  1.0307 -0.1524
  100MOL   H14737965   2.717   3.052   3.415 -0.3692  0.4279 -0.7061
  100MOL   H14837966   2.995   2.971   3.476  0.2425  0.4792  1.7838
  100MOL   H14937967   2.857   2.970   3.580  0.8120 -1.7263 -0.1480
  100MOL   H15037968   2.902   3.156   3.673  0.9793 -1.4661  1.3810
  100MOL   H15137969   3.066   3.130   3.632 -0.2133  1.1791  1.9611
  100MOL   H15237970   2.791   3.339   3.710 -1.2850  1.0948 -0.3640
  100MOL   H15337971   2.749   3.472   3.604  0.4846 -0.6540 -0.5137
  100MOL   C15437972   2.851   3.536   3.776  0.1365  1.0163  0.6346
  100MOL   C15537973   2.756   3.662   3.782  0.3257 -0.8475  0.1767
  100MOL   C15637974   2.605   3.630   3.804 -0.0511 -0.0752  0.0177
  100MOL   C15737975   2.518   3.737   3.742  0.6617 -0.3289 -0.1746
  100MOL   C15837976   2.621   3.835   3.675  0.2057 -0.4277  0.1708
  100MOL   C15937977   2.754   3.755   3.657 -0.8918  0.3504 -0.1457
  100MOL   C16037978   2.878   3.460   3.901 -0.2407 -0.5791  0.4062
  100MOL   H16137979   2.942   3.586   3.743  0.4495  0.0229 -0.0036
  100MOL   H16237980   2.797   3.714   3.867 -0.9085 -0.4590  0.5511
  100MOL   H16337981   2.581   3.527   3.777  2.2628 -0.5548 -0.2474
  100MOL   H16437982   2.588   3.633   3.912  1.7621 -2.2158  0.3922
  100MOL   H16537983   2.452   3.699   3.664 -1.0454  1.3710  0.3872
  100MOL   H16637984   2.470   3.786   3.827 -1.2186 -2.9562  0.3348
  100MOL   H16737985   2.626   3.920   3.743 -1.7978 -0.0555 -0.1325
  100MOL   H16837986   2.584   3.870   3.579 -1.5680 -2.4383  0.0914
  100MOL   H16937987   2.844   3.817   3.658  0.9239 -2.1874 -0.2611
  100MOL   H17037988   2.755   3.719   3.554 -1.0201  1.7927 -0.6630
  100MOL   H17137989   2.943   3.378   3.871 -0.4571 -0.4907 -0.3045
  100MOL   H17237990   2.786   3.418   3.944 -0.4536  0.5405  1.0723
  100MOL   C17337991   2.950   3.546   4.014 -0.3978  1.0005  0.4756
  100MOL   C17437992   3.055   3.453   4.087  0.3411 -0.2401 -0.3240
  100MOL   C17537993   3.197   3.430   4.028  0.1601  0.4197  0.7484
  100MOL   C17637994   3.257   3.323   4.115 -0.1301  0.1829  0.2371
  100MOL   C17737995   3.140   3.249   4.177  0.4022 -0.2821 -1.1123
  100MOL   C17837996   3.009   3.314   4.127  0.1604  0.4719 -0.3518
  100MOL   C17937997   2.855   3.601   4.119  0.1499 -0.4120 -0.6152
  100MOL   H18037998   3.022   3.613   3.966 -0.2648 -0.7738 -1.9027
  100MOL   H18137999   3.078   3.497   4.184 -1.9704  0.4239 -0.0424
  100MOL   H18238000   3.259   3.520   4.033  0.1058  0.4972  0.0523
  100MOL   H18338001   3.190   3.398   3.924 -2.6596  2.0259  0.3944
  100MOL   H18438002   3.319   3.257   4.054  0.0750  0.4437  0.1632
  100MOL   H18538003   3.309   3.382   4.190  0.6418 -1.3933  0.9699
  100MOL   H18638004   3.155   3.250   4.285 -0.5483  0.2897 -0.9748
  100MOL   H18738005   3.127   3.142   4.159  0.0698 -0.6467  1.1678
  100MOL   H18838006   2.968   3.258   4.043 -0.4071 -1.6184  1.2480
  100MOL   H18938007   2.938   3.318   4.210  1.7048 -0.1022  1.0281
  100MOL   H19038008   2.763   3.636   4.071 -1.4202  2.6454  4.2697
  100MOL   H19138009   2.812   3.524   4.182 -1.3220  0.4737 -0.4861
  100MOL   C19238010   2.907   3.721   4.208  0.1229  0.9186  0.0487
  100MOL   C19338011   2.804   3.770   4.315 -0.0131 -0.0228 -0.2952
  100MOL   C19438012   2.764   3.676   4.433  0.2727  0.0843  0.1376
  100MOL   C19538013   2.609   3.653   4.424  0.4945 -0.1489  0.0304
  100MOL   C19638014   2.555   3.781   4.366  0.3488 -0.2796 -0.0612
  100MOL   C19738015   2.668   3.828   4.265  0.7055  0.2550 -0.3785
  100MOL   C19838016   2.960   3.841   4.112  0.2038 -0.2659  0.2256
  100MOL   H19938017   2.991   3.681   4.264 -1.1233 -1.6179  0.1666
  100MOL   H20038018   2.847   3.855   4.367 -0.8474 -0.5244  1.2657
  100MOL   H20138019   2.787   3.727   4.527  0.7170 -0.3468  0.2664
  100MOL   H20238020   2.828   3.587   4.429  2.2759  1.4680  0.5367
  100MOL   H20338021   2.600   3.571   4.353 -0.3372 -0.8860  0.9762
  100MOL   H20438022   2.569   3.636   4.524 -0.8340  3.1052  0.0894
  100MOL   H20538023   2.547   3.852   4.448 -1.2560  0.2325 -0.6543
  100MOL   H20638024   2.457   3.757   4.325 -0.1444  0.2554  0.7937
  100MOL   H20738025   2.668   3.936   4.250 -0.3117  0.4608  1.0382
  100MOL   H20838026   2.644   3.786   4.167 -0.6556  0.0879  0.0166
  100MOL   H20938027   3.040   3.806   4.046 -0.3750 -2.0821  0.4577
  100MOL   H21038028   2.877   3.862   4.045 -0.5582 -1.0822  0.9180
  100MOL   C21138029   3.030   3.965   4.178 -0.7366 -0.5291 -1.2315
  100MOL   C21238030   3.143   3.913   4.278  0.4298  0.1574 -0.4859
  100MOL   C21338031   3.247   3.820   4.222  0.0287  0.2814  0.9868
  100MOL   C21438032   3.371   3.851   4.308  0.0696  1.1643 -0.7951
  100MOL   C21538033   3.368   4.004   4.338  0.2703  0.0369  0.7873
  100MOL   C21638034   3.218   4.025   4.362  0.1129 -0.6225 -0.7326
  100MOL   C21738035   3.093   4.056   4.073 -0.5574 -0.0033 -0.5274
  100MOL   H21838036   2.949   4.011   4.234  0.2830  1.5733 -1.4347
  100MOL   H21938037   3.092   3.866   4.362 -2.4128  2.1353 -1.0575
  100MOL   H22038038   3.223   3.714   4.229  0.7635  0.2123  2.7462
  100MOL   H22138039   3.266   3.832   4.115  0.0222  0.8095  1.0423
  100MOL   H22238040   3.380   3.796   4.402 -0.7629 -1.3298 -2.1362
  100MOL   H22338041   3.471   3.835   4.267 -0.3277 -1.9025 -0.6597
  100MOL   H22438042   3.393   4.058   4.247  1.3759  0.2039  1.1881
  100MOL   H22538043   3.432   4.037   4.419  1.0165  0.4281  0.0361
  100MOL   H22638044   3.217   4.012   4.470  1.4395 -0.2838 -0.6708
  100MOL   H22738045   3.186   4.127   4.341  1.5236 -0.3672 -1.6983
  100MOL   H22838046   3.153   3.998   4.004  1.9106  2.0297 -0.1585
  100MOL   H22938047   3.162   4.116   4.132 -2.3262  0.5903  1.0157
  100MOL   C23038048   3.002   4.146   3.992 -0.7149  0.2189  0.2930
  100MOL   C23138049   3.061   4.138   3.838 -0.6150  0.1601 -0.0274
  100MOL   C23238050   2.971   4.202   3.734 -0.7659  0.4493 -0.1141
  100MOL   C23338051   3.057   4.222   3.610  0.2308 -0.0745 -0.0687
  100MOL   C23438052   3.199   4.228   3.658 -0.1407  0.6187 -0.2277
  100MOL   C23538053   3.194   4.212   3.809  0.5440 -0.4832 -0.7807
  100MOL   C23638054   2.986   4.285   4.052 -0.2771 -0.1453  0.1657
  100MOL   H23738055   2.901   4.108   3.976  0.1484 -2.3489  0.7427
  100MOL   H23838056   3.080   4.035   3.809  2.4139  0.4245  0.7729
  100MOL   H23938057   2.889   4.138   3.701  0.5372  0.1947 -2.9877
  100MOL   H24038058   2.927   4.298   3.760 -2.6307  0.2290 -2.3004
  100MOL   H24138059   3.031   4.135   3.550  0.0109  1.1346 -1.7585
  100MOL   H24238060   3.021   4.318   3.574  0.2553 -0.3377 -0.8013
  100MOL   H24338061   3.240   4.320   3.616  0.8331 -0.1437 -0.9862
  100MOL   H24438062   3.254   4.141   3.622 -0.6741  0.9498 -1.9009
  100MOL   H24538063   3.197   4.299   3.875  2.3625 -1.0078 -0.1509
  100MOL   H24638064   3.282   4.151   3.827  0.1721 -0.2376  2.0034
  100MOL   H24738065   2.914   4.334   3.987 -1.2794  1.9271  2.7694
  100MOL   H24838066   3.085   4.329   4.038 -1.3553  2.3387  0.0883
  100MOL   C24938067   2.923   4.311   4.194 -1.0404  0.2598 -0.7104
  100MOL   C25038068   2.780   4.260   4.206 -0.3028 -0.2468 -0.1867
  100MOL   C25138069   2.661   4.323   4.138 -0.9208  0.1547  0.2410
  100MOL   C25238070   2.533   4.275   4.205 -0.7383  0.2842  0.0209
  100MOL   C25338071   2.582   4.213   4.343 -0.1187 -0.7743 -0.1756
  100MOL   C25438072   2.724   4.260   4.354  0.0988 -0.4753  0.0891
  100MOL   C25538073   2.941   4.460   4.234  0.7053  1.0381 -0.4489
  100MOL   H25638074   2.986   4.247   4.256  0.6788  0.5511 -2.0973
  100MOL   H25738075   2.795   4.160   4.165 -1.3423  0.4480 -2.3025
  100MOL   H25838076   2.660   4.289   4.034  0.3011 -2.3545  1.0142
  100MOL   H25938077   2.667   4.429   4.163  1.2532 -0.0928  0.9131
  100MOL   H26038078   2.489   4.192   4.151  1.2938 -0.5143 -0.4465
  100MOL   H26138079   2.466   4.361   4.203 -1.0237  0.0597  0.0108
  100MOL   H26238080   2.574   4.105   4.356 -0.4877 -0.6813  0.3883
  100MOL   H26338081   2.527   4.250   4.430 -0.7564 -0.7153 -0.5968
  100MOL   H26438082   2.788   4.191   4.408 -0.8141  0.0454  1.8946
  100MOL   H26538083   2.730   4.355   4.406 -0.8609  0.5350 -1.6050
  100MOL   H26638084   2.886   4.513   4.156 -3.2246 -1.3941  0.5444
  100MOL   H26738085   2.892   4.481   4.328  0.9085 -0.4538 -0.0016
  100MOL   C26838086   3.079   4.519   4.256 -0.0053 -0.0401  0.6609
  100MOL   C26938087   3.157   4.438   4.369  0.4208  0.1645  0.0148
  100MOL   C27038088   3.133   4.479   4.516 -0.6331 -0.3775  0.1994
  100MOL   C27138089   3.250   4.432   4.594 -0.8889  0.1039  0.3148
  100MOL   C27238090   3.365   4.412   4.492  0.3063 -0.0019 -0.6994
  100MOL   C27338091   3.307   4.464   4.359  0.0336 -0.3971  0.2670
  100MOL   C27438092   3.067   4.673   4.274  1.3437 -0.0737 -0.5413
  100MOL   H27538093   3.145   4.499   4.172 -2.7251 -2.5501 -0.9798
  100MOL   H27638094   3.130   4.333   4.364 -0.0000  0.1213  2.7457
  100MOL   H27738095   3.132   4.588   4.513 -3.5953 -0.3882 -2.1711
  100MOL   H27838096   3.039   4.436   4.551 -0.3360  0.1358  1.6322
  100MOL   H27938097   3.268   4.502   4.676  0.1538 -1.2800  1.2816
  100MOL   H28038098   3.212   4.342   4.642  0.4335  0.2167  1.5996
  100MOL   H28138099   3.393   4.308   4.473  0.9502 -0.2254  1.3060
  100MOL   H28238100   3.450   4.474   4.520  0.8080 -1.5073  1.2491
  100MOL   H28338101   3.347   4.406   4.275 -0.3357 -0.2022 -0.0458
  100MOL   H28438102   3.321   4.572   4.354 -1.7173 -0.1753 -0.2260
  100MOL   H28538103   3.162   4.717   4.305  1.4144 -1.0525  0.6260
  100MOL   H28638104   2.996   4.687   4.355  1.1433 -0.2040 -0.6939
  100MOL   C28738105   3.013   4.763   4.158 -0.4305 -0.1411  0.9902
  100MOL   C28838106   3.007   4.912   4.193 -0.5269  0.2084  0.1407
  100MOL   C28938107   2.935   4.942   4.323  0.0710 -0.5924  0.4614
  100MOL   C29038108   2.992   5.077   4.365  0.5195 -0.8375  0.1331
  100MOL   C29138109   3.142   5.061   4.334 -0.3294 -0.2174 -0.1358
  100MOL   C29238110   3.146   4.975   4.205  0.1372  0.4051  0.5975
  100MOL   C29338111   3.098   4.734   4.027  0.7131 -0.3140 -0.5780
  100MOL   H29438112   2.909   4.731   4.150 -0.5735  0.0246  2.0966
  100MOL   H29538113   2.959   4.955   4.104  1.0993  0.0474 -0.8386
  100MOL   H29638114   2.827   4.949   4.311  0.0229 -1.5756  0.2163
  100MOL   H29738115   2.960   4.882   4.411  1.5311  1.6003  1.5660
  100MOL   H29838116   2.955   5.147   4.290  0.1156 -2.3684 -1.1193
  100MOL   H29938117   2.973   5.105   4.469 -0.8723 -2.1842  0.2698
  100MOL   H30038118   3.186   5.006   4.417 -1.4166  0.5950  1.0013
  100MOL   H30138119   3.197   5.154   4.318 -0.8497 -0.1613 -1.6873
  100MOL   H30238120   3.229   4.905   4.220 -0.6651 -0.1576  2.6330
  100MOL   H30338121   3.172   5.037   4.119 -2.2909 -0.7819 -1.0550
  100MOL   H30438122   3.075   4.632   3.996 -2.0511  0.7933 -2.3411
  100MOL   H30538123   3.203   4.747   4.056  0.2645 -0.9848  1.4651
  100MOL   C30638124   3.060   4.812   3.895 -0.0363 -0.0161 -0.4025
  100MOL   C30738125   3.148   4.778   3.773  0.2819 -0.0851  0.1494
  100MOL   C30838126   3.293   4.818   3.797 -0.8568  0.0984  0.6831
  100MOL   C30938127   3.373   4.695   3.848  0.7157 -0.5352 -0.2198
  100MOL   C31038128   3.284   4.576   3.816 -0.1320  0.3277  0.0566
  100MOL   C31138129   3.165   4.627   3.742  0.2878 -0.4103  0.3474
  100MOL   C31238130   2.906   4.793   3.864 -0.0857  0.1660 -0.0988
  100MOL   H31338131   3.077   4.916   3.924  2.5004 -0.1989 -1.1681
  100MOL   H31438132   3.115   4.818   3.677  2.0953  1.0529 -0.0256
  100MOL   H31538133   3.304   4.907   3.857  0.4573  2.3807 -2.7799
  100MOL   H31638134   3.337   4.838   3.699 -0.4219  1.9785  1.2606
  100MOL   H31738135   3.470   4.694   3.798  0.7383  2.5603 -0.3259
  100MOL   H31838136   3.401   4.694   3.954  1.7804 -0.9951 -0.4933
  100MOL   H31938137   3.252   4.520   3.903 -0.0259  0.6731  0.3184
  100MOL   H32038138   3.335   4.511   3.744  1.4686  0.5044  1.0041
  100MOL   H32138139   3.175   4.613   3.634  0.4691  0.6655  0.2246
  100MOL   H32238140   3.085   4.558   3.769 -0.3013 -0.7796 -2.2351
  100MOL   H32338141   2.845   4.825   3.948  0.7786  2.6810 -0.3784
  100MOL   H32438142   2.893   4.685   3.858 -0.6280  0.2363 -0.1870
  100MOL   C32538143   2.840   4.858   3.739 -0.4365  0.4635  0.4879
  100MOL   C32638144   2.887   5.005   3.718  0.0179  0.2145 -0.0796
  100MOL   C32738145   2.829   5.107   3.814  0.1760  0.0334 -0.1398
  100MOL   C32838146   2.790   5.226   3.734  0.1705 -0.0048 -1.0748
  100MOL   C32938147   2.851   5.210   3.592 -0.3649  0.1523  0.1127
  100MOL   C33038148   2.854   5.057   3.579 -0.1657 -1.0988  0.1358
  100MOL   C33138149   2.688   4.824   3.745 -0.4572  0.3183 -0.6329
  100MOL   H33238150   2.890   4.808   3.657  0.0266 -0.3148  1.2381
  100MOL   H33338151   2.995   5.011   3.727 -0.0347  2.0716 -0.4916
  100MOL   H33438152   2.914   5.144   3.871  1.3657 -0.9680 -1.2238
  100MOL   H33538153   2.749   5.070   3.878 -1.9187 -2.3069 -3.9633
  100MOL   H33638154   2.820   5.324   3.772 -0.7160 -0.3438  0.5496
  100MOL   H33738155   2.681   5.221   3.735  0.2379 -1.4082 -0.6397
  100MOL   H33838156   2.952   5.250   3.600 -0.5262  0.6145 -0.1257
  100MOL   H33938157   2.796   5.261   3.513  0.8612  4.0145  1.6106
  100MOL   H34038158   2.921   5.015   3.504  1.7126  1.2390  0.4283
  100MOL   H34138159   2.757   5.026   3.540 -0.2116  1.8707 -2.3021
  100MOL   H34238160   2.637   4.872   3.662  2.6716  1.7990 -1.7882
  100MOL   H34338161   2.664   4.890   3.829  1.3795 -0.3650  0.4537
  100MOL   C34438162   2.637   4.673   3.767 -0.2259 -0.5976  0.8909
  100MOL   C34538163   2.664   4.574   3.654 -0.5397 -0.0409 -0.3729
  100MOL   C34638164   2.582   4.579   3.525  0.5603  0.7482 -0.4654
  100MOL   C34738165   2.623   4.458   3.438 -0.6616 -0.2082  0.4656
  100MOL   C34838166   2.655   4.354   3.547  0.4884 -0.5985  0.2403
  100MOL   C34938167   2.657   4.423   3.685  0.0938 -0.2576  0.1287
  100MOL   C35038168   2.491   4.661   3.821  0.2554 -0.1200  0.4638
  100MOL   H35138169   2.690   4.625   3.849  1.3705  0.7303  0.6764
  100MOL   H35238170   2.763   4.585   3.610 -0.6768 -0.3242 -0.7618
  100MOL   H35338171   2.610   4.674   3.481 -1.5269  1.6427  0.0883
  100MOL   H35438172   2.475   4.577   3.541  0.1622  1.7304 -2.8838
  100MOL   H35538173   2.542   4.430   3.371 -1.1245  1.7863  0.1606
  100MOL   H35638174   2.712   4.474   3.377 -0.1178 -0.9080  1.0660
  100MOL   H35738175   2.758   4.325   3.528  0.5354  0.5439 -1.3743
  100MOL   H35838176   2.593   4.264   3.549 -2.1949  1.1427 -0.5616
  100MOL   H35938177   2.563   4.413   3.739 -1.5250 -0.7997 -2.6630
  100MOL   H36038178   2.737   4.398   3.754 -1.4846  0.0473  2.1253
  100MOL   H36138179   2.441   4.586   3.760  2.3921 -1.3103  0.1193
  100MOL   H36238180   2.441   4.755   3.797  1.0299  0.1257 -0.2023
  100MOL   C36338181   2.477   4.620   3.971  0.0843 -0.2682 -0.0612
  100MOL   C36438182   2.524   4.732   4.065 -0.2303  0.0571 -0.5734
  100MOL   C36538183   2.542   4.674   4.209 -0.3653  0.4229  0.2568
  100MOL   C36638184   2.503   4.785   4.313 -0.4121  0.2259  0.0991
  100MOL   C36738185   2.487   4.908   4.220  0.0531  0.0790 -0.0984
  100MOL   C36838186   2.431   4.852   4.091 -0.6899  0.0125 -0.4419
  100MOL   C36938187   2.337   4.565   3.991  0.0097 -0.2532 -0.1586
  100MOL   H37038188   2.543   4.535   3.991 -0.7030  0.0697  4.5127
  100MOL   H37138189   2.625   4.760   4.035  0.3612 -1.8187 -0.3896
  100MOL   H37238190   2.472   4.591   4.217 -0.2853 -0.1519 -3.9094
  100MOL   H37338191   2.648   4.648   4.211 -1.0953 -2.7966 -0.7405
  100MOL   H37438192   2.418   4.762   4.377 -1.6180  0.4899 -1.3844
  100MOL   H37538193   2.595   4.786   4.372 -1.3433  0.9142  1.5708
  100MOL   H37638194   2.404   4.964   4.264 -1.6354 -0.1743 -2.8570
  100MOL   H37738195   2.580   4.963   4.212  0.6086 -1.0124 -1.3778
  100MOL   H37838196   2.424   4.927   4.011  2.4414  0.6173 -0.1886
  100MOL   H37938197   2.331   4.812   4.109 -1.0274  0.4164 -1.3537
  100MOL   H38038198   2.323   4.473   3.933 -0.3110  0.9384 -2.0043
  100MOL   H38138199   2.257   4.633   3.961 -0.7871 -0.4824  1.3959
  100MOL   H38238200   2.314   4.554   4.097 -0.9578  1.6215 -0.1560
  101MOL     C138201   7.137   2.162   1.458 -0.5448 -0.1798  0.3034
  101MOL     C238202   7.099   2.231   1.326 -0.3262  0.1348  0.3486
  101MOL     C338203   7.209   2.291   1.243  0.0832  0.2462  0.8434
  101MOL     C438204   7.149   2.418   1.164  0.2691  0.0317  0.0665
  101MOL     C538205   7.009   2.431   1.220  0.3509  0.1784  0.3345
  101MOL     C638206   7.004   2.348   1.357  1.0272  0.2571 -0.1669
  101MOL     C738207   7.024   2.069   1.501  0.6865 -0.0028  0.3100
  101MOL     H838208   7.231   2.108   1.448 -0.9948 -0.7120 -1.1082
  101MOL     H938209   7.044   2.162   1.262 -1.2653  0.4593  0.8065
  101MOL    H1038210   7.292   2.312   1.311  0.2321 -0.4398  0.8676
  101MOL    H1138211   7.247   2.218   1.173 -0.0960  0.5485  0.4292
  101MOL    H1238212   7.219   2.495   1.197 -0.1267  1.1875 -1.7495
  101MOL    H1338213   7.151   2.413   1.055  1.8833 -0.0305  0.0848
  101MOL    H1438214   6.983   2.535   1.242 -1.2968 -0.4132  1.2575
  101MOL    H1538215   6.935   2.400   1.145 -0.3630  2.0873  0.1988
  101MOL    H1638216   6.905   2.315   1.390  0.0720  1.8419 -1.3415
  101MOL    H1738217   7.037   2.415   1.436  0.5485 -0.3726  0.5691
  101MOL    H1838218   6.929   2.120   1.510  0.2413 -0.4191 -1.7682
  101MOL    H1938219   7.013   2.005   1.413  0.0689  1.6368 -0.8251
  101MOL    H2038220   7.147   2.233   1.541 -0.9503  0.9296 -0.5804
  101MOL    C2138221   7.064   1.986   1.630  0.2299  0.0510 -0.2293
  101MOL    C2238222   7.086   2.078   1.756 -0.2799  0.3786 -0.0465
  101MOL    C2338223   7.160   2.013   1.874  0.2407 -0.2905  0.2843
  101MOL    C2438224   7.139   2.104   1.990 -0.1785  0.0365  0.2566
  101MOL    C2538225   7.007   2.178   1.965  0.0292  0.2324 -0.1015
  101MOL    C2638226   6.968   2.144   1.822 -0.1105  0.2548  0.1093
  101MOL    C2738227   6.952   1.873   1.651  0.0466  0.1250  0.5694
  101MOL    H2838228   7.159   1.939   1.606 -0.2356 -0.2449 -1.5241
  101MOL    H2938229   7.159   2.154   1.728 -1.3219  1.3839 -0.0526
  101MOL    H3038230   7.262   1.998   1.837  0.5804 -1.4166  1.6206
  101MOL    H3138231   7.113   1.918   1.901 -0.6757 -0.4181 -1.7071
  101MOL    H3238232   7.149   2.048   2.083 -0.4406 -0.2745  0.0960
  101MOL    H3338233   7.226   2.169   1.990  1.0127 -1.5259  0.9276
  101MOL    H3438234   7.004   2.281   1.998  1.1618 -0.2304  1.5106
  101MOL    H3538235   6.935   2.134   2.033  1.1439 -0.2147  0.8135
  101MOL    H3638236   6.930   2.227   1.762  0.4635 -0.6636 -1.5806
  101MOL    H3738237   6.884   2.074   1.820 -2.1600  2.5519  2.1163
  101MOL    H3838238   6.946   1.827   1.749  2.5811 -0.0812  0.6510
  101MOL    H3938239   6.855   1.918   1.631  0.1609 -0.5174 -1.5713
  101MOL    C4038240   6.964   1.750   1.553  0.3115 -0.1680 -0.6291
  101MOL    C4138241   7.060   1.637   1.599 -0.0298  0.1496  0.2557
  101MOL    C4238242   7.213   1.679   1.607 -0.1024 -0.7294  0.0838
  101MOL    C4338243   7.295   1.551   1.611  0.1445  0.3108 -0.1769
  101MOL    C4438244   7.198   1.442   1.552 -0.1970  0.1332 -0.0848
  101MOL    C4538245   7.074   1.510   1.509  0.0847  0.0188 -0.5749
  101MOL    C4638246   6.818   1.692   1.526  0.7154 -0.3738 -0.5942
  101MOL    H4738247   7.007   1.782   1.459 -2.4197  2.6976 -0.9677
  101MOL    H4838248   7.020   1.605   1.696 -0.9776 -0.4456 -0.3236
  101MOL    H4938249   7.241   1.737   1.695  2.0376  0.6634 -1.4680
  101MOL    H5038250   7.243   1.727   1.514 -0.8605  1.0494  0.7198
  101MOL    H5138251   7.304   1.529   1.717  3.1265 -0.4425 -0.5282
  101MOL    H5238252   7.395   1.554   1.568  0.8092 -0.4581  1.2861
  101MOL    H5338253   7.232   1.396   1.459 -1.0111  1.4456 -1.0498
  101MOL    H5438254   7.179   1.365   1.626  1.7863 -2.3452 -2.0422
  101MOL    H5538255   7.078   1.540   1.405 -2.1064  2.2236 -0.0745
  101MOL    H5638256   6.991   1.443   1.536  0.5326 -0.3992 -0.2195
  101MOL    H5738257   6.843   1.591   1.495  1.3837 -0.8582  1.4769
  101MOL    H5838258   6.767   1.690   1.622 -3.1155 -1.3207 -2.5501
  101MOL    C5938259   6.725   1.766   1.423 -0.3543  0.4985  0.3294
  101MOL    C6038260   6.797   1.774   1.287  0.5479  0.2792 -0.1228
  101MOL    C6138261   6.711   1.835   1.171  0.2408 -0.1512  0.0323
  101MOL    C6238262   6.709   1.733   1.058  0.2470 -0.2841 -0.0948
  101MOL    C6338263   6.844   1.661   1.074 -0.1087 -0.0801  0.0846
  101MOL    C6438264   6.838   1.634   1.227 -0.2703 -0.0363  0.1417
  101MOL    C6538265   6.582   1.713   1.415  0.3936 -0.4380 -0.0157
  101MOL    H6638266   6.724   1.870   1.454  3.3871  0.5105  0.6105
  101MOL    H6738267   6.886   1.835   1.296 -0.0914  1.4309 -1.4269
  101MOL    H6838268   6.779   1.913   1.136  0.9887 -0.5482  0.5872
  101MOL    H6938269   6.610   1.872   1.187 -0.8205 -1.2909 -3.4886
  101MOL    H7038270   6.713   1.769   0.955  1.6289  0.3747  0.1734
  101MOL    H7138271   6.621   1.670   1.070 -0.1757  0.2178 -0.5192
  101MOL    H7238272   6.938   1.707   1.043 -0.1592 -0.0072  0.0418
  101MOL    H7338273   6.836   1.573   1.010  0.3220 -0.3039  0.3371
  101MOL    H7438274   6.764   1.557   1.247 -0.4271 -0.6762 -2.7694
  101MOL    H7538275   6.939   1.615   1.262  1.0208  2.9928 -1.7302
  101MOL    H7638276   6.581   1.629   1.346  3.4190 -0.0780 -0.5549
  101MOL    H7738277   6.520   1.786   1.363 -0.8040 -1.9026 -0.6641
  101MOL    C7838278   6.509   1.674   1.542  0.0124  0.5863  0.7625
  101MOL    C7938279   6.465   1.798   1.624 -1.0049  0.4172 -0.2252
  101MOL    C8038280   6.416   1.773   1.764  0.0084 -0.3909  0.2299
  101MOL    C8138281   6.334   1.895   1.802 -0.1995 -0.3145  0.1260
  101MOL    C8238282   6.269   1.934   1.661 -0.1111 -0.0323 -0.8970
  101MOL    C8338283   6.380   1.913   1.564  0.3389 -0.3773  0.0115
  101MOL    C8438284   6.391   1.580   1.514 -0.7595  0.5596 -0.3392
  101MOL    H8538285   6.582   1.619   1.601  1.0771 -0.2818 -1.2926
  101MOL    H8638286   6.562   1.847   1.636 -1.7004  1.3136  2.0177
  101MOL    H8738287   6.493   1.742   1.835  0.7191 -2.2144 -1.3175
  101MOL    H8838288   6.347   1.689   1.761  3.1368 -3.1566  1.9212
  101MOL    H8938289   6.404   1.972   1.836 -0.0638 -0.5422  0.3604
  101MOL    H9038290   6.260   1.864   1.877 -1.4866 -0.5456 -1.2191
  101MOL    H9138291   6.185   1.872   1.631 -0.3393 -0.2237  0.1251
  101MOL    H9238292   6.234   2.037   1.669  0.9503  0.2911 -0.2843
  101MOL    H9338293   6.342   1.886   1.466  0.1769  2.2321 -0.6767
  101MOL    H9438294   6.432   2.006   1.546  0.4960 -0.9257 -2.5136
  101MOL    H9538295   6.341   1.638   1.436 -1.9611 -0.0614 -0.0386
  101MOL    H9638296   6.321   1.570   1.597 -1.1442  1.3224 -0.5582
  101MOL    C9738297   6.427   1.440   1.456 -0.9224  0.6266  0.6998
  101MOL    C9838298   6.342   1.399   1.329 -0.5857 -0.2365 -0.0116
  101MOL    C9938299   6.193   1.397   1.356  0.4660 -0.2996  0.5562
  101MOL   C10038300   6.115   1.452   1.238 -0.1830  0.1287  0.2980
  101MOL   C10138301   6.231   1.459   1.133 -0.6743 -0.7518  0.1508
  101MOL   C10238302   6.361   1.486   1.203  0.5575 -1.1157  0.1930
  101MOL   C10338303   6.406   1.319   1.557 -0.5799  1.6625 -1.0314
  101MOL   H10438304   6.531   1.434   1.423 -0.6042 -0.3876  1.8690
  101MOL   H10538305   6.371   1.299   1.298 -0.4212 -0.3952  0.6488
  101MOL   H10638306   6.155   1.296   1.376 -3.5557  0.9735 -0.1555
  101MOL   H10738307   6.170   1.456   1.444 -0.2063  0.7433 -0.2962
  101MOL   H10838308   6.076   1.548   1.274 -2.2472 -0.0871 -1.2901
  101MOL   H10938309   6.040   1.379   1.209 -0.2442  0.8847 -1.5243
  101MOL   H11038310   6.206   1.535   1.058  1.3569  1.0812  1.2656
  101MOL   H11138311   6.237   1.365   1.079  1.3416 -1.3802  1.4183
  101MOL   H11238312   6.442   1.449   1.139 -0.5380 -1.6577 -0.9031
  101MOL   H11338313   6.365   1.592   1.228 -0.1032 -0.8732 -0.7109
  101MOL   H11438314   6.302   1.303   1.585  0.1856  0.0010  0.9930
  101MOL   H11538315   6.441   1.238   1.492 -0.5089  0.2622  0.7210
  101MOL   C11638316   6.490   1.328   1.687  0.1152 -0.3182 -0.4704
  101MOL   C11738317   6.403   1.374   1.806 -0.6850 -0.2369  0.5450
  101MOL   C11838318   6.291   1.271   1.850 -0.6483 -0.1892  0.4873
  101MOL   C11938319   6.287   1.278   2.002 -0.1227  0.3228 -0.2682
  101MOL   C12038320   6.424   1.319   2.050 -0.4787  1.2431 -0.1486
  101MOL   C12138321   6.475   1.405   1.937  0.1926 -0.6849  0.0651
  101MOL   C12238322   6.579   1.198   1.728 -0.6026  0.5070 -0.1579
  101MOL   H12338323   6.553   1.417   1.679 -0.1024 -0.1456 -0.2580
  101MOL   H12438324   6.358   1.466   1.769 -2.4609 -0.3435  2.3335
  101MOL   H12538325   6.200   1.279   1.790 -0.6212  2.7932  0.7481
  101MOL   H12638326   6.327   1.173   1.818 -1.3808 -0.3302  0.0821
  101MOL   H12738327   6.249   1.182   2.037 -0.7031  0.0424 -1.6484
  101MOL   H12838328   6.217   1.357   2.029  0.1568  1.1622 -1.9320
  101MOL   H12938329   6.487   1.230   2.046 -2.3314 -0.1564  0.9132
  101MOL   H13038330   6.426   1.352   2.154  2.0827 -1.1022  0.6103
  101MOL   H13138331   6.458   1.512   1.951  0.5425 -0.5521 -0.4972
  101MOL   H13238332   6.581   1.392   1.915  0.3890  0.3755  0.3678
  101MOL   H13338333   6.523   1.106   1.708 -1.0000  0.9014 -0.8926
  101MOL   H13438334   6.600   1.202   1.835 -1.7579  0.2598  0.0796
  101MOL   C13538335   6.717   1.194   1.671  0.4144 -0.1203  0.3552
  101MOL   C13638336   6.707   1.169   1.518 -0.9267 -0.3111 -0.4569
  101MOL   C13738337   6.659   1.030   1.477  0.0094  0.2543  0.1919
  101MOL   C13838338   6.715   0.997   1.336  0.0169 -0.0793 -0.5732
  101MOL   C13938339   6.787   1.126   1.299 -0.1736 -0.5466 -0.2946
  101MOL   C14038340   6.830   1.187   1.432 -0.5774 -0.1715  0.3537
  101MOL   C14138341   6.797   1.081   1.737 -0.1914  0.7590  0.0383
  101MOL   H14238342   6.762   1.291   1.693 -1.5459  1.5526 -2.6894
  101MOL   H14338343   6.633   1.243   1.487  0.3039  1.3110  0.4141
  101MOL   H14438344   6.692   0.952   1.545 -2.2586  0.9856  2.2175
  101MOL   H14538345   6.550   1.027   1.463 -0.0947 -3.3296  1.1843
  101MOL   H14638346   6.638   0.962   1.267 -2.0294 -0.6573  1.9385
  101MOL   H14738347   6.781   0.912   1.353 -0.1894 -0.4104 -1.4096
  101MOL   H14838348   6.707   1.188   1.258  0.7584  0.5923 -0.4046
  101MOL   H14938349   6.860   1.122   1.218  0.4450 -0.0243  0.2344
  101MOL   H15038350   6.923   1.146   1.471 -0.0046  1.4761  0.7791
  101MOL   H15138351   6.847   1.295   1.422  0.3648  0.0148  3.3084
  101MOL   H15238352   6.879   1.056   1.670 -1.8879 -1.2971 -1.3253
  101MOL   H15338353   6.743   0.987   1.729  1.0528 -0.0411  0.8507
  101MOL   C15438354   6.850   1.087   1.883  0.2912 -0.5345  0.0063
  101MOL   C15538355   6.913   1.218   1.939 -0.1672  0.3597 -0.1115
  101MOL   C15638356   7.017   1.270   1.838  0.3102  0.9259 -0.0224
  101MOL   C15738357   7.113   1.360   1.916 -0.1533 -0.3555 -0.0210
  101MOL   C15838358   7.092   1.327   2.062 -0.2081 -0.3422 -0.2876
  101MOL   C15938359   7.005   1.202   2.062 -0.3052 -0.1966 -0.5581
  101MOL   C16038360   6.748   1.032   1.993  0.0179  0.1167 -0.2592
  101MOL   H16138361   6.924   1.007   1.889  1.4509  0.5650  0.6383
  101MOL   H16238362   6.841   1.295   1.966 -0.8035 -0.4137  0.4007
  101MOL   H16338363   7.064   1.175   1.811  2.6088  1.1414  2.9760
  101MOL   H16438364   6.973   1.324   1.754 -1.9072 -0.4422  0.2236
  101MOL   H16538365   7.214   1.335   1.883  0.2948 -1.7208  2.2832
  101MOL   H16638366   7.087   1.465   1.902  0.7617  0.0007  0.9531
  101MOL   H16738367   7.030   1.402   2.111  0.4040  0.6586 -1.0092
  101MOL   H16838368   7.185   1.312   2.117 -1.1760  0.5616  1.6331
  101MOL   H16938369   6.940   1.211   2.149 -1.0899 -1.4662 -1.0069
  101MOL   H17038370   7.057   1.107   2.072 -0.8793 -0.4031  0.5201
  101MOL   H17138371   6.651   1.081   1.998  1.1170  2.1494  1.8632
  101MOL   H17238372   6.796   1.055   2.088  0.5047 -1.2931 -0.1503
  101MOL   C17338373   6.726   0.874   1.993 -0.4969 -0.8471  0.0563
  101MOL   C17438374   6.608   0.831   2.076  0.1489  0.2976 -0.2104
  101MOL   C17538375   6.466   0.882   2.029 -0.3012 -0.1217 -0.5588
  101MOL   C17638376   6.385   0.872   2.151  0.1887  0.1521 -0.0028
  101MOL   C17738377   6.477   0.928   2.260 -0.6534  0.4505  0.0308
  101MOL   C17838378   6.614   0.868   2.226 -0.7724 -0.2453  0.0941
  101MOL   C17938379   6.852   0.796   2.037  0.9661 -0.1758  0.1928
  101MOL   H18038380   6.712   0.838   1.891 -1.2438 -0.7755  0.1326
  101MOL   H18138381   6.609   0.723   2.088  0.0566  0.4131  0.8877
  101MOL   H18238382   6.427   0.817   1.951  0.5868 -1.6147  0.2116
  101MOL   H18338383   6.461   0.985   1.993 -0.3662  0.8273  2.0116
  101MOL   H18438384   6.294   0.931   2.139  0.5597  0.1240 -3.4337
  101MOL   H18538385   6.355   0.768   2.167 -1.2606 -0.1683 -4.2166
  101MOL   H18638386   6.461   0.898   2.364 -0.7134 -1.9645 -0.6534
  101MOL   H18738387   6.474   1.037   2.259 -0.5028  0.4946  1.7890
  101MOL   H18838388   6.694   0.941   2.235 -0.1686 -0.7725 -0.9743
  101MOL   H18938389   6.644   0.781   2.284  1.2121  0.0585 -0.4441
  101MOL   H19038390   6.942   0.852   2.011  0.5079 -0.1237 -1.3623
  101MOL   H19138391   6.847   0.785   2.145 -1.1588 -2.3151 -0.0644
  101MOL   C19238392   6.863   0.655   1.972  0.5477  0.2384 -0.0800
  101MOL   C19338393   6.942   0.561   2.067 -0.8008  0.0663 -0.1308
  101MOL   C19438394   7.081   0.595   2.107  0.5554  0.3528 -0.0314
  101MOL   C19538395   7.129   0.473   2.186 -0.4985 -0.0838 -0.1842
  101MOL   C19638396   7.046   0.360   2.129  0.3089  0.3474  0.2971
  101MOL   C19738397   6.934   0.407   2.033  0.1037  0.6034  0.9039
  101MOL   C19838398   6.937   0.654   1.833 -0.1237 -0.5737  0.2592
  101MOL   H19938399   6.761   0.617   1.977 -0.1583  2.1174  0.1498
  101MOL   H20038400   6.882   0.552   2.158 -1.6101  0.7345 -0.5861
  101MOL   H20138401   7.069   0.689   2.160 -1.3166  0.4712 -0.6222
  101MOL   H20238402   7.145   0.601   2.019  0.2844 -2.1214 -0.4549
  101MOL   H20338403   7.236   0.467   2.170  0.0091  2.0818  2.0122
  101MOL   H20438404   7.100   0.488   2.291 -0.4469 -1.5995  0.0555
  101MOL   H20538405   6.997   0.307   2.210  1.5038 -0.5486  0.4568
  101MOL   H20638406   7.112   0.289   2.077  1.4085  2.6978 -1.6256
  101MOL   H20738407   6.839   0.366   2.067 -1.4551  2.5824 -0.9184
  101MOL   H20838408   6.942   0.380   1.927  0.1958  1.9069  0.5740
  101MOL   H20938409   7.016   0.729   1.833 -0.0857 -0.5821  3.3303
  101MOL   H21038410   6.994   0.562   1.827  0.3621 -0.2757  0.2482
  101MOL   C21138411   6.849   0.661   1.698 -0.4636 -0.6674  0.3579
  101MOL   C21238412   6.941   0.691   1.571 -0.2142  0.3169 -0.4625
  101MOL   C21338413   7.006   0.830   1.564 -0.5905 -0.0167 -0.5774
  101MOL   C21438414   7.132   0.814   1.470 -0.3042  0.0184  0.0254
  101MOL   C21538415   7.130   0.668   1.428  0.0725 -0.3527  0.3744
  101MOL   C21638416   7.054   0.594   1.534 -0.7828 -0.1543 -0.2789
  101MOL   C21738417   6.764   0.528   1.680  0.6196  0.1945  0.2002
  101MOL   H21838418   6.779   0.744   1.712 -0.7119 -0.6704 -0.8720
  101MOL   H21938419   6.881   0.692   1.480  1.2549 -1.1191 -1.4779
  101MOL   H22038420   6.937   0.905   1.524  0.8914  0.5887 -2.0542
  101MOL   H22138421   7.029   0.872   1.661 -4.1775  1.3332 -0.2201
  101MOL   H22238422   7.142   0.860   1.372 -1.9505  1.6762  0.5945
  101MOL   H22338423   7.219   0.831   1.533  0.2849 -1.9017 -0.2553
  101MOL   H22438424   7.215   0.612   1.389 -0.3574  2.1409 -4.5183
  101MOL   H22538425   7.068   0.667   1.338  0.3425  0.8060  0.1697
  101MOL   H22638426   7.010   0.502   1.496  1.4784 -2.4205  2.4342
  101MOL   H22738427   7.105   0.571   1.627  0.4130  2.3335 -0.2839
  101MOL   H22838428   6.716   0.521   1.778  4.4173  1.7451  2.3049
  101MOL   H22938429   6.838   0.448   1.692  0.0092 -0.2345  1.1913
  101MOL   C23038430   6.673   0.514   1.557  0.5364 -0.2215 -0.0180
  101MOL   C23138431   6.574   0.631   1.542 -0.0783  0.2971  0.3519
  101MOL   C23238432   6.468   0.626   1.424  0.1100 -0.2093 -0.2046
  101MOL   C23338433   6.377   0.753   1.455  0.0266  0.7457  0.4756
  101MOL   C23438434   6.376   0.758   1.607  0.0738 -0.8047 -0.1456
  101MOL   C23538435   6.486   0.662   1.664 -0.1331 -0.1203 -0.0796
  101MOL   C23638436   6.606   0.375   1.554  0.5701 -0.9295 -0.1409
  101MOL   H23738437   6.733   0.518   1.466 -0.7459  0.0156 -0.8589
  101MOL   H23838438   6.642   0.715   1.524  0.2409 -0.2174 -0.9205
  101MOL   H23938439   6.497   0.634   1.319  0.2330  1.9224 -0.0284
  101MOL   H24038440   6.406   0.537   1.434  0.0868 -0.2365 -0.5834
  101MOL   H24138441   6.410   0.849   1.416 -0.6115  0.1264 -1.6429
  101MOL   H24238442   6.283   0.752   1.399  0.7702  0.5561 -0.7757
  101MOL   H24338443   6.276   0.748   1.651  0.1553 -0.6024  0.0923
  101MOL   H24438444   6.395   0.863   1.630  1.5684 -1.4196  1.5373
  101MOL   H24538445   6.454   0.564   1.698  1.6881 -0.2828  1.1864
  101MOL   H24638446   6.544   0.705   1.745  0.1896  1.8397 -1.3125
  101MOL   H24738447   6.518   0.378   1.491  0.1787  2.5829  0.4515
  101MOL   H24838448   6.588   0.351   1.659 -2.2166  0.9292 -0.1629
  101MOL   C24938449   6.691   0.263   1.497  0.1211 -0.3534  0.6943
  101MOL   C25038450   6.723   0.283   1.346 -0.2476  0.4841 -0.0088
  101MOL   C25138451   6.601   0.270   1.255 -1.3044 -0.7551 -0.1859
  101MOL   C25238452   6.638   0.173   1.146 -0.8917 -0.2105 -0.4858
  101MOL   C25338453   6.786   0.151   1.146 -0.5511 -0.5547 -0.0724
  101MOL   C25438454   6.828   0.176   1.293  0.1238 -0.3387 -0.8204
  101MOL   C25538455   6.637   0.119   1.532 -0.4301 -0.1651  0.8404
  101MOL   H25638456   6.784   0.271   1.555  0.9469 -0.2282 -0.6152
  101MOL   H25738457   6.762   0.382   1.325 -1.4310  0.5950 -1.8663
  101MOL   H25838458   6.565   0.364   1.214  0.2879  0.3637  0.9221
  101MOL   H25938459   6.511   0.227   1.301 -0.8299 -0.7928  0.7130
  101MOL   H26038460   6.597   0.183   1.045 -0.3159 -1.5332 -0.8605
  101MOL   H26138461   6.602   0.081   1.190 -2.0683  0.7041  0.4973
  101MOL   H26238462   6.829   0.230   1.085  0.6651 -0.7696  0.4884
  101MOL   H26338463   6.822   0.052   1.117  0.9058 -0.0896  0.1044
  101MOL   H26438464   6.930   0.216   1.291  0.5154 -1.2067  0.8508
  101MOL   H26538465   6.835   0.087   1.355  0.4422 -0.5604 -1.1734
  101MOL   H26638466   6.530   0.140   1.529 -0.7045 -1.5779  0.2998
  101MOL   H26738467   6.655   0.043   1.456  3.6240  0.9839  0.5573
  101MOL   C26838468   6.659   0.052   1.669 -0.2261  0.0600  0.1492
  101MOL   C26938469   6.809   0.047   1.698  0.1000 -0.1097 -0.3299
  101MOL   C27038470   6.893   7.634   1.612  0.0950  0.2807  0.0060
  101MOL   C27138471   6.915   7.521   1.701  0.2481  0.3537  0.2576
  101MOL   C27238472   6.938   7.583   1.839 -0.0333 -0.5036 -0.7039
  101MOL   C27338473   6.845   0.014   1.845  0.1389 -0.0906 -0.7392
  101MOL   C27438474   6.593   7.595   1.673 -0.6618  0.5986 -0.2155
  101MOL   H27538475   6.624   0.117   1.750 -1.6076  0.6438 -0.9006
  101MOL   H27638476   6.852   0.147   1.693 -1.1889  0.4827  0.0969
  101MOL   H27738477   6.843   7.601   1.522  0.3571  0.4592 -0.2052
  101MOL   H27838478   6.982   7.689   1.580 -1.0605  1.5415 -1.0734
  101MOL   H27938479   6.825   7.459   1.703  0.8557 -0.5591 -0.5350
  101MOL   H28038480   6.984   7.444   1.667 -1.0365 -1.3074  1.3074
  101MOL   H28138481   7.039   7.621   1.827  0.0040 -1.0343 -2.1140
  101MOL   H28238482   6.917   7.520   1.926 -0.1268 -0.4364 -0.6781
  101MOL   H28338483   6.883   0.105   1.890 -0.6722 -0.1979  0.1847
  101MOL   H28438484   6.756   7.674   1.901  0.6935 -1.0912 -0.3738
  101MOL   H28538485   6.604   7.560   1.775 -0.7159 -3.3610 -1.4782
  101MOL   H28638486   6.652   7.518   1.623 -1.1496  1.3302 -1.9743
  101MOL   C28738487   6.446   7.570   1.628 -0.2279  1.4880 -0.1071
  101MOL   C28838488   6.427   7.429   1.562 -0.1131 -0.2987 -0.1567
  101MOL   C28938489   6.300   7.419   1.485  0.1880  0.0068  0.2213
  101MOL   C29038490   6.313   7.313   1.370  0.3876  0.3297  0.2944
  101MOL   C29138491   6.460   7.280   1.361  0.0808  0.4913 -0.0885
  101MOL   C29238492   6.523   7.388   1.449  0.4296 -1.5422  0.0622
  101MOL   C29338493   6.351   7.583   1.748  0.3411  0.3564 -0.2921
  101MOL   H29438494   6.429   7.636   1.543  1.5246  0.9061 -0.9340
  101MOL   H29538495   6.436   7.346   1.631  0.5542  0.5038  0.7320
  101MOL   H29638496   6.214   7.404   1.552 -0.8451  1.6717 -0.7075
  101MOL   H29738497   6.280   7.508   1.425  3.1871  0.4512 -0.2022
  101MOL   H29838498   6.261   7.222   1.401  3.2134 -1.9506 -1.3470
  101MOL   H29938499   6.268   7.360   1.283 -0.6655 -3.1589 -1.1374
  101MOL   H30038500   6.502   7.286   1.260 -1.1532 -0.6953 -0.6907
  101MOL   H30138501   6.478   7.187   1.415 -1.4524  0.1060 -0.2306
  101MOL   H30238502   6.540   7.478   1.390 -3.9539  0.0820  1.0946
  101MOL   H30338503   6.621   7.356   1.485  1.3099  0.5096 -0.4223
  101MOL   H30438504   6.395   7.521   1.827 -0.6129  1.4832  1.1506
  101MOL   H30538505   6.253   7.541   1.725  0.2729  1.0206 -1.2235
  101MOL   C30638506   6.340   0.024   1.826  0.1634  0.2703  0.6410
  101MOL   C30738507   6.291   0.142   1.740 -1.1834  0.1162  0.1341
  101MOL   C30838508   6.160   0.113   1.672  0.0492  0.1814 -0.0148
  101MOL   C30938509   6.115   0.250   1.627 -0.6165  0.0904 -0.7337
  101MOL   C31038510   6.148   0.342   1.747  0.9288 -0.2006  0.0829
  101MOL   C31138511   6.283   0.285   1.794 -0.3212  0.3085 -0.0877
  101MOL   C31238512   6.249   0.005   1.947 -0.4862  0.2771  0.2800
  101MOL   H31338513   6.440   0.048   1.862  0.9022 -0.7961 -0.6540
  101MOL   H31438514   6.364   0.147   1.660 -0.6096 -1.3902  0.5577
  101MOL   H31538515   6.079   0.073   1.734 -1.2602  2.4079 -0.2519
  101MOL   H31638516   6.162   0.047   1.585  1.1036 -0.7034  0.6596
  101MOL   H31738517   6.182   0.283   1.548  0.7851 -1.4463 -0.2103
  101MOL   H31838518   6.009   0.250   1.602 -1.1544 -0.5628  1.3906
  101MOL   H31938519   6.073   0.319   1.823  0.7264 -3.6768 -1.0605
  101MOL   H32038520   6.143   0.447   1.721  1.5135 -0.6130 -1.7482
  101MOL   H32138521   6.365   0.346   1.755  1.1152 -1.0868  0.6548
  101MOL   H32238522   6.298   0.302   1.901  0.0620  0.4408 -0.1602
  101MOL   H32338523   6.157   7.644   1.919 -1.1003  0.8544  1.2346
  101MOL   H32438524   6.223   0.104   1.984  0.5402  1.0223 -0.9779
  101MOL   C32538525   6.307   7.619   2.067  0.6140  0.1385 -0.1486
  101MOL   C32638526   6.214   7.500   2.093  0.4594 -0.1848  0.1015
  101MOL   C32738527   6.076   7.529   2.155  0.3962  0.6626 -0.0446
  101MOL   C32838528   6.047   7.418   2.263  0.0729  0.0763 -0.2512
  101MOL   C32938529   6.181   7.381   2.312  0.1122 -0.1308  0.4018
  101MOL   C33038530   6.272   7.390   2.187  0.7228 -0.1596  0.1104
  101MOL   C33138531   6.330   0.019   2.198  0.1383  0.2680  0.0775
  101MOL   H33238532   6.401   7.581   2.027  0.1390 -1.0359 -0.1799
  101MOL   H33338533   6.195   7.446   2.000  1.3797  1.3997 -1.0312
  101MOL   H33438534   5.995   7.540   2.083 -0.0732 -4.8975 -0.5968
  101MOL   H33538535   6.074   7.623   2.211 -2.2681  0.9227 -0.4876
  101MOL   H33638536   5.989   7.340   2.212  1.1839 -0.6396 -0.4306
  101MOL   H33738537   5.993   7.469   2.342  1.4788 -0.1389  0.8718
  101MOL   H33838538   6.179   7.286   2.364 -0.7540  0.0873  0.7726
  101MOL   H33938539   6.221   7.457   2.379  1.6389 -0.0241 -0.6071
  101MOL   H34038540   6.266   7.291   2.143  1.2900 -0.5777  0.9592
  101MOL   H34138541   6.375   7.401   2.222  0.6457 -0.1434  0.3281
  101MOL   H34238542   6.337   7.644   2.285  0.8808  1.4175  0.8640
  101MOL   H34338543   6.241   0.079   2.218 -0.0881  0.3483 -1.1238
  101MOL   C34438544   6.449   0.121   2.191 -0.2347 -0.3871  0.2889
  101MOL   C34538545   6.593   0.072   2.244 -0.3928 -1.1128  0.2916
  101MOL   C34638546   6.726   0.145   2.215  0.1458 -0.1486 -0.0065
  101MOL   C34738547   6.841   0.051   2.262  0.7298  0.0959 -0.5182
  101MOL   C34838548   6.777   7.602   2.245  0.4666  0.8011 -1.0728
  101MOL   C34938549   6.627   7.617   2.203  0.0403 -0.4410 -0.1521
  101MOL   C35038550   6.416   0.253   2.267 -0.2053  1.3427  0.6587
  101MOL   H35138551   6.473   0.144   2.087  2.7620  3.1982  1.6287
  101MOL   H35238552   6.594   0.075   2.353  2.5166  2.0366  0.2565
  101MOL   H35338553   6.725   0.242   2.265  0.2694  0.3799 -1.0185
  101MOL   H35438554   6.733   0.161   2.108  3.7374  1.5788  0.3968
  101MOL   H35538555   6.932   0.057   2.202  0.7750  1.1483 -0.3604
  101MOL   H35638556   6.869   0.062   2.367  0.2681  0.6488 -0.4495
  101MOL   H35738557   6.762   7.565   2.346  0.4571 -0.7248 -1.6123
  101MOL   H35838558   6.840   7.538   2.182  2.3050 -1.8629  3.2644
  101MOL   H35938559   6.632   7.607   2.094 -0.6907  0.0507 -0.2356
  101MOL   H36038560   6.559   7.550   2.255  1.3896 -1.3918  0.4237
  101MOL   H36138561   6.507   0.297   2.307  1.1131 -3.0369  2.7836
  101MOL   H36238562   6.364   0.221   2.357  0.6490  0.9351  1.0119
  101MOL   C36338563   6.324   0.345   2.190  0.0235 -0.0918  0.2730
  101MOL   C36438564   6.231   0.431   2.277 -0.3543  0.1614 -0.3980
  101MOL   C36538565   6.139   0.533   2.208 -0.1986 -0.3559  0.1515
  101MOL   C36638566   6.090   0.617   2.329 -0.0583 -0.9929 -0.0589
  101MOL   C36738567   6.215   0.635   2.425  0.0972  0.0429  0.0775
  101MOL   C36838568   6.302   0.506   2.391 -0.0322 -0.0476 -0.2723
  101MOL   C36938569   6.417   0.427   2.096  0.6720  0.4526  0.3655
  101MOL   H37038570   6.246   0.291   2.136  0.5142  0.2999 -0.8265
  101MOL   H37138571   6.166   0.362   2.332  0.8178 -0.2235  0.5185
  101MOL   H37238572   6.186   0.610   2.147  0.5072 -0.5733  0.4151
  101MOL   H37338573   6.061   0.486   2.149  2.9496 -2.5226 -2.4584
  101MOL   H37438574   6.057   0.713   2.290 -1.9330 -0.9029  1.6732
  101MOL   H37538575   6.004   0.570   2.378 -0.8684 -0.1705 -0.6632
  101MOL   H37638576   6.259   0.730   2.394 -2.0916  1.0670  0.0290
  101MOL   H37738577   6.182   0.641   2.528  0.5865  0.3953  0.2157
  101MOL   H37838578   6.317   0.435   2.471  0.4437 -1.2166 -1.3777
  101MOL   H37938579   6.398   0.551   2.364 -0.3925  1.0894  0.3212
  101MOL   H38038580   6.364   0.493   2.028  0.3380 -0.3514 -0.1706
  101MOL   H38138581   6.491   0.368   2.042  0.2213  0.4233 -0.2285
  101MOL   H38238582   6.486   0.489   2.153 -1.5077  1.1517  2.3065
  102MOL     C138583   7.171   4.919   1.102  0.3130 -0.7169  0.1083
  102MOL     C238584   7.072   4.870   1.002  0.3067 -0.3630  0.0992
  102MOL     C338585   7.076   4.719   0.987 -0.4467 -0.7666  0.1626
  102MOL     C438586   7.174   4.690   0.874 -0.2029  0.0478  0.2825
  102MOL     C538587   7.167   4.800   0.779 -0.0896  0.6140  0.2274
  102MOL     C638588   7.113   4.915   0.861  0.3574 -0.2991 -0.4269
  102MOL     C738589   7.122   4.923   1.247  0.0319  0.6993 -0.4573
  102MOL     H838590   7.270   4.876   1.089  0.9427  0.8465 -0.4493
  102MOL     H938591   6.967   4.897   1.016 -0.2855 -2.9039  0.8209
  102MOL    H1038592   7.087   4.664   1.080 -2.3140  0.7946  1.3197
  102MOL    H1138593   6.977   4.688   0.952 -0.8492  0.4256  0.2260
  102MOL    H1238594   7.274   4.680   0.916  0.9908  1.0138 -2.2055
  102MOL    H1338595   7.157   4.592   0.829  2.0091 -1.5430  2.7379
  102MOL    H1438596   7.256   4.814   0.717 -0.5267 -1.3677 -0.9276
  102MOL    H1538597   7.085   4.783   0.709  0.7767 -1.1521 -0.4035
  102MOL    H1638598   7.030   4.970   0.815 -1.0340 -1.0419  1.1204
  102MOL    H1738599   7.194   4.988   0.868 -0.2415  0.1250  3.2736
  102MOL    H1838600   7.022   4.964   1.233 -0.1017  0.6626  0.3777
  102MOL    H1938601   7.105   4.822   1.282  1.1318  0.0692 -1.7155
  102MOL    H2038602   7.192   5.023   1.076 -0.5060 -0.3295  0.9411
  102MOL    C2138603   7.214   5.008   1.344 -0.0292  0.2387 -0.9917
  102MOL    C2238604   7.138   5.094   1.456  0.5773 -0.4520  0.1200
  102MOL    C2338605   7.044   5.033   1.558 -0.0194  0.5570  0.4821
  102MOL    C2438606   6.941   5.139   1.605 -0.6861 -0.0436  0.9137
  102MOL    C2538607   6.950   5.255   1.500  0.4919 -0.1923 -0.0892
  102MOL    C2638608   7.048   5.199   1.388 -0.2143 -0.2603 -0.1786
  102MOL    C2738609   7.318   4.918   1.412  0.3846  0.3199 -0.1146
  102MOL    H2838610   7.277   5.084   1.297  1.0613  0.4744  0.7823
  102MOL    H2938611   7.212   5.151   1.512 -0.0444 -1.9472  2.5220
  102MOL    H3038612   7.100   4.998   1.645  1.6160  0.5506 -0.5597
  102MOL    H3138613   6.982   4.954   1.516  0.2960 -0.5227  2.0079
  102MOL    H3238614   6.850   5.080   1.609  1.3222 -3.5780 -2.3855
  102MOL    H3338615   6.976   5.175   1.701 -0.4285 -0.5039  0.9903
  102MOL    H3438616   6.972   5.347   1.554  0.0628 -0.6909  0.9554
  102MOL    H3538617   6.850   5.275   1.461 -0.2104 -1.3546  1.1083
  102MOL    H3638618   7.115   5.276   1.350  0.3516 -1.2005 -1.1014
  102MOL    H3738619   6.983   5.162   1.310 -0.9959 -1.1693  0.8843
  102MOL    H3838620   7.264   4.864   1.490 -1.2250  0.2433 -1.2563
  102MOL    H3938621   7.354   4.840   1.345 -1.8816 -1.8930  1.1397
  102MOL    C4038622   7.440   4.988   1.469  0.0368 -0.4541 -0.3114
  102MOL    C4138623   7.496   4.905   1.591 -0.0101 -0.1810  0.0898
  102MOL    C4238624   7.532   4.752   1.574 -0.2809 -0.3808 -0.0973
  102MOL    C4338625   7.542   4.719   1.726 -0.1070  0.4993 -0.0965
  102MOL    C4438626   7.429   4.797   1.800 -0.3564  0.5307  0.0067
  102MOL    C4538627   7.421   4.926   1.721  0.2444 -0.6112  0.8151
  102MOL    C4638628   7.539   4.994   1.354  0.3767 -0.3119  0.6908
  102MOL    H4738629   7.417   5.087   1.510 -1.6664 -0.7104 -0.6384
  102MOL    H4838630   7.584   4.958   1.626  0.5665 -1.5873  0.8476
  102MOL    H4938631   7.626   4.749   1.519 -0.2376  0.3283 -0.0716
  102MOL    H5038632   7.459   4.693   1.519 -0.1170  0.3912 -1.1814
  102MOL    H5138633   7.637   4.766   1.755  0.1425 -0.7139  1.1257
  102MOL    H5238634   7.548   4.612   1.746 -0.3517  0.8281  1.9166
  102MOL    H5338635   7.336   4.740   1.808  1.1259 -1.7702  1.3900
  102MOL    H5438636   7.454   4.810   1.905  1.7534  0.0577 -0.4064
  102MOL    H5538637   7.321   4.966   1.705  1.8738  3.2325 -0.2328
  102MOL    H5638638   7.471   5.000   1.783 -1.5230  1.1869  0.1298
  102MOL    H5738639   7.594   4.899   1.351 -1.5141 -1.4861  2.1791
  102MOL    H5838640   7.487   4.997   1.259 -0.4744 -3.6834  0.9897
  102MOL    C5938641   7.645   5.109   1.381  0.1684 -1.1566 -0.4484
  102MOL    C6038642   0.085   5.078   1.302  1.1970  1.0289  0.1213
  102MOL    C6138643   0.158   4.950   1.354 -0.1361  0.0005  0.1507
  102MOL    C6238644   0.281   4.965   1.261 -0.2249  0.0516  0.2248
  102MOL    C6338645   0.313   5.111   1.254  0.0694 -0.0898 -0.3763
  102MOL    C6438646   0.198   5.182   1.325  0.1182 -0.2425  0.1128
  102MOL    C6538647   7.582   5.246   1.346 -0.1047 -0.4650  0.1066
  102MOL    H6638648   7.653   5.107   1.489  2.7649  0.2793 -0.5675
  102MOL    H6738649   0.063   5.061   1.197  0.2642 -2.5338  0.8126
  102MOL    H6838650   0.104   4.857   1.341  0.7453 -0.7989  2.0321
  102MOL    H6938651   0.193   4.949   1.457  0.0559  1.7265  0.1209
  102MOL    H7038652   0.245   4.923   1.168  0.1535  1.1660 -0.4306
  102MOL    H7138653   0.374   4.910   1.276 -0.4566 -0.6281 -0.8289
  102MOL    H7238654   0.317   5.131   1.147  0.7448  2.3855  0.0823
  102MOL    H7338655   0.410   5.131   1.300 -0.0544 -2.3097  0.8984
  102MOL    H7438656   0.217   5.189   1.432  2.6942 -1.6513 -0.2038
  102MOL    H7538657   0.188   5.282   1.283  1.7757 -1.2084 -2.7210
  102MOL    H7638658   7.475   5.229   1.353 -0.4730  1.7818  0.1415
  102MOL    H7738659   7.589   5.268   1.239  0.5253 -1.8647 -0.1522
  102MOL    C7838660   7.636   5.362   1.432 -0.1115 -1.0017 -0.4189
  102MOL    C7938661   7.661   5.488   1.341 -0.8400 -0.1697 -0.0195
  102MOL    C8038662   0.075   5.590   1.399 -0.2117  0.4928 -0.0765
  102MOL    C8138663   0.026   5.717   1.346  0.6718 -0.6673  0.4961
  102MOL    C8238664   7.596   5.694   1.253  0.2238 -0.6891 -0.3898
  102MOL    C8338665   7.540   5.567   1.313  0.8336 -0.2982  0.3135
  102MOL    C8438666   7.548   5.394   1.556  0.2075 -0.7874 -0.1036
  102MOL    H8538667   0.044   5.330   1.466 -0.2542 -2.6258 -1.4926
  102MOL    H8638668   0.019   5.458   1.248  3.1283 -0.6556  2.0334
  102MOL    H8738669   0.180   5.565   1.382 -0.2708 -0.1891  0.5316
  102MOL    H8838670   0.071   5.595   1.508  0.1277 -2.8578  0.1493
  102MOL    H8938671   0.100   5.778   1.294 -0.4833 -0.0538 -0.4721
  102MOL    H9038672   7.685   5.772   1.435  1.3425 -0.5831  0.6722
  102MOL    H9138673   7.519   5.771   1.244  1.2966  0.3455 -0.7753
  102MOL    H9238674   7.625   5.669   1.151  0.0531 -0.9094 -0.3851
  102MOL    H9338675   7.484   5.591   1.404  0.1241  0.5406 -0.3320
  102MOL    H9438676   7.470   5.512   1.250 -0.7191 -1.7158  3.1643
  102MOL    H9538677   7.442   5.403   1.531  0.6480  0.1923 -1.6610
  102MOL    H9638678   7.569   5.494   1.594 -0.4080 -1.7209  2.8655
  102MOL    C9738679   7.560   5.308   1.679 -0.0266  0.3091  0.4905
  102MOL    C9838680   7.442   5.335   1.780 -0.0359  0.2838  0.1087
  102MOL    C9938681   7.426   5.472   1.851 -0.2805 -0.7193  0.0652
  102MOL   C10038682   7.277   5.487   1.881  0.6272  0.1079  0.5349
  102MOL   C10138683   7.214   5.351   1.840 -0.8345  0.4334  0.5651
  102MOL   C10238684   7.303   5.298   1.731  0.2942  0.2800  0.3771
  102MOL   C10338685   0.011   5.329   1.747  0.1739 -0.0467 -0.2263
  102MOL   H10438686   7.548   5.202   1.658 -2.7532  1.0526 -2.0656
  102MOL   H10538687   7.452   5.264   1.862  1.3960  1.4651  0.9830
  102MOL   H10638688   7.492   5.487   1.936  0.5861  0.1803 -0.7544
  102MOL   H10738689   7.451   5.549   1.778 -0.8333  0.8274  1.4658
  102MOL   H10838690   7.218   5.558   1.823 -0.4830 -0.8647  0.4520
  102MOL   H10938691   7.265   5.504   1.988 -0.6001  1.4680  0.2023
  102MOL   H11038692   7.116   5.359   1.794 -0.9760 -0.2945  0.7437
  102MOL   H11138693   7.202   5.280   1.921 -0.5914 -0.7674 -0.4364
  102MOL   H11238694   7.293   5.191   1.716 -0.2966  0.6279 -1.9035
  102MOL   H11338695   7.275   5.354   1.642 -0.2398  0.0588  0.4035
  102MOL   H11438696   0.089   5.320   1.671  0.9483 -1.0710  0.6828
  102MOL   H11538697   0.005   5.437   1.759 -1.0088 -0.1684  0.4478
  102MOL   C11638698   0.051   5.236   1.862  0.6742  0.8053 -0.2051
  102MOL   C11738699   0.192   5.167   1.852  0.0835 -0.2846 -0.0546
  102MOL   C11838700   0.203   5.076   1.730  0.5779 -0.3149  0.0564
  102MOL   C11938701   0.346   5.078   1.684  0.0975  0.3687  0.6833
  102MOL   C12038702   0.403   5.221   1.718  0.0977 -0.2668 -0.9592
  102MOL   C12138703   0.310   5.273   1.832 -0.4615  0.1485  0.3929
  102MOL   C12238704   0.035   5.311   2.000 -0.4334  0.4773  0.0337
  102MOL   H12338705   7.674   5.150   1.859  2.3103 -0.4707 -0.5591
  102MOL   H12438706   0.223   5.109   1.939  1.8838 -0.2181 -0.6342
  102MOL   H12538707   0.183   4.972   1.757 -0.3270 -0.4493 -1.0772
  102MOL   H12638708   0.135   5.111   1.652 -0.4850 -1.2110  0.5661
  102MOL   H12738709   0.367   5.048   1.581 -0.7338  0.8512  0.3721
  102MOL   H12838710   0.411   5.017   1.748  0.5008 -0.6733 -0.6952
  102MOL   H12938711   0.382   5.287   1.634 -0.3676  1.1204  0.2196
  102MOL   H13038712   0.510   5.229   1.735 -0.0214  0.6589 -0.6227
  102MOL   H13138713   0.365   5.287   1.925  0.1519  0.7131 -0.0492
  102MOL   H13238714   0.262   5.368   1.811  0.7785  1.0312  1.4586
  102MOL   H13338715   7.632   5.367   2.011 -0.8228 -0.1736  0.0930
  102MOL   H13438716   0.095   5.402   1.997 -2.2107  1.6230 -1.9481
  102MOL   C13538717   0.060   5.229   2.129  0.1511 -0.4324 -0.1339
  102MOL   C13638718   7.651   5.116   2.164 -0.4499  0.0281 -0.2514
  102MOL   C13738719   7.506   5.168   2.192  0.3707 -0.2411 -0.0111
  102MOL   C13838720   7.435   5.049   2.252 -0.6593  0.2170  0.1973
  102MOL   C13938721   7.543   4.949   2.306 -0.0500  0.3270 -0.0180
  102MOL   C14038722   7.679   5.020   2.278  0.2455 -0.4938 -0.0006
  102MOL   C14138723   0.074   5.327   2.250  0.1737  0.5532  0.3780
  102MOL   H14238724   0.158   5.181   2.129  0.0413 -0.6564 -0.2099
  102MOL   H14338725   7.647   5.049   2.078  0.2680  0.7001 -0.8124
  102MOL   H14438726   7.502   5.242   2.272 -1.0258  2.1657 -2.2185
  102MOL   H14538727   7.437   5.206   2.117  0.2622  0.7799  0.6008
  102MOL   H14638728   7.370   5.008   2.175 -1.9994  0.2912  1.2844
  102MOL   H14738729   7.361   5.074   2.327 -1.6958  0.7976 -0.9973
  102MOL   H14838730   7.547   4.864   2.238  0.8619  1.0373 -0.8610
  102MOL   H14938731   7.528   4.911   2.407 -1.7083 -1.5331 -0.9148
  102MOL   H15038732   0.014   5.075   2.368  0.6431 -1.9385  0.7920
  102MOL   H15138733   0.071   4.949   2.263 -0.7902 -1.3491 -1.7164
  102MOL   H15238734   0.082   5.268   2.341 -1.3807  1.3375  1.0273
  102MOL   H15338735   7.671   5.381   2.263 -0.8004 -1.2075  0.9097
  102MOL   C15438736   0.189   5.435   2.246 -0.6747  0.5300  0.2449
  102MOL   C15538737   0.141   5.581   2.241  0.2718  0.5324  0.5797
  102MOL   C15638738   0.235   5.693   2.196  0.3851 -0.2197  0.2609
  102MOL   C15738739   0.194   5.817   2.276  0.1728  0.4091  0.8401
  102MOL   C15838740   0.159   5.757   2.413  0.1772  0.3886  0.4506
  102MOL   C15938741   0.084   5.628   2.376  0.3589 -0.0631  0.4481
  102MOL   C16038742   0.288   5.411   2.364  0.0354 -0.4422 -0.2333
  102MOL   H16138743   0.239   5.425   2.150 -0.8285  0.7320  0.1445
  102MOL   H16238744   0.051   5.588   2.180 -0.6921 -1.1673  1.7498
  102MOL   H16338745   0.333   5.665   2.235  1.2795 -0.9810 -2.4531
  102MOL   H16438746   0.250   5.712   2.090 -0.4545  2.0888  0.5336
  102MOL   H16538747   0.275   5.891   2.285  0.6542  0.2021 -1.5522
  102MOL   H16638748   0.098   5.853   2.238 -0.4947 -0.6806  1.4902
  102MOL   H16738749   0.097   5.820   2.477  1.3349  2.0258  0.0007
  102MOL   H16838750   0.244   5.733   2.476  0.7268 -0.9027 -0.7592
  102MOL   H16938751   7.666   5.649   2.374  0.1209 -1.2352  0.0235
  102MOL   H17038752   0.095   5.561   2.462 -1.3515 -1.7308 -0.5660
  102MOL   H17138753   0.235   5.409   2.460 -0.7896 -3.1621 -0.7011
  102MOL   H17238754   0.352   5.499   2.371 -2.4519  1.4976 -1.4376
  102MOL   C17338755   0.376   5.281   2.350  0.1025 -0.4312  0.2263
  102MOL   C17438756   0.412   5.229   2.490 -0.5095  0.2263  0.2593
  102MOL   C17538757   0.302   5.176   2.581 -0.3374  0.0091 -0.2136
  102MOL   C17638758   0.360   5.197   2.726  0.0415  0.3673 -0.2834
  102MOL   C17738759   0.497   5.266   2.709 -0.1838  1.1573 -0.3098
  102MOL   C17838760   0.495   5.325   2.569 -0.0510 -0.0999 -0.3440
  102MOL   C17938761   0.495   5.311   2.258 -0.3966 -0.1621  0.1788
  102MOL   H18038762   0.320   5.203   2.298 -0.1096 -0.8669  1.0946
  102MOL   H18138763   0.459   5.134   2.465 -0.6895  0.5571 -1.4252
  102MOL   H18238764   0.259   5.076   2.572 -2.9096  1.0241  0.2433
  102MOL   H18338765   0.212   5.238   2.579 -1.5054 -1.5194  1.8567
  102MOL   H18438766   0.300   5.266   2.785 -1.3882  0.4171 -1.7744
  102MOL   H18538767   0.370   5.107   2.786  1.6403  1.8992  1.8460
  102MOL   H18638768   0.582   5.200   2.728 -1.0120  0.0398 -0.4120
  102MOL   H18738769   0.512   5.348   2.779 -1.4805 -0.4513  1.9048
  102MOL   H18838770   0.453   5.425   2.578 -1.2651 -0.7713  2.0543
  102MOL   H18938771   0.597   5.338   2.534  0.0312  0.8110  0.2086
  102MOL   H19038772   0.448   5.364   2.175 -2.1661  0.0255  1.2774
  102MOL   H19138773   0.565   5.386   2.296  0.9833 -1.4269  0.2114
  102MOL   C19238774   0.578   5.193   2.197 -0.0243 -0.0242 -0.2986
  102MOL   C19338775   0.503   5.080   2.117 -0.3398 -0.2956 -0.3406
  102MOL   C19438776   0.447   4.968   2.200 -0.9009  0.3212  0.0197
  102MOL   C19538777   0.411   4.857   2.092 -0.2756 -0.1415 -0.2342
  102MOL   C19638778   0.531   4.858   2.000  0.0770 -0.3831  1.0602
  102MOL   C19738779   0.583   5.004   2.006 -0.2444  0.0198 -0.0965
  102MOL   C19838780   0.694   5.137   2.289  0.2498  0.6283 -0.4338
  102MOL   H19938781   0.629   5.241   2.113 -0.4065 -0.5125 -0.8094
  102MOL   H20038782   0.424   5.132   2.063 -1.1154 -0.3237  0.7493
  102MOL   H20138783   0.360   5.000   2.257 -0.7486  1.8391 -0.5876
  102MOL   H20238784   0.523   4.941   2.274 -2.1139 -1.8615  0.5248
  102MOL   H20338785   0.397   4.757   2.135  1.3583 -0.2606  0.0421
  102MOL   H20438786   0.318   4.882   2.042 -0.5712 -1.3689 -0.3096
  102MOL   H20538787   0.502   4.829   1.899 -0.2765  1.0303  0.7459
  102MOL   H20638788   0.611   4.792   2.034  1.5473  1.5476  1.4284
  102MOL   H20738789   0.581   5.042   1.904 -1.7685  0.3640  0.0426
  102MOL   H20838790   0.688   5.007   2.036 -0.3606  0.7475  0.2457
  102MOL   H20938791   0.649   5.104   2.383  0.0015  1.6453 -0.1916
  102MOL   H21038792   0.726   5.042   2.247  1.3702  0.3020  1.0894
  102MOL   C21138793   0.819   5.221   2.313  0.0657  0.4412 -0.4138
  102MOL   C21238794   0.915   5.163   2.413 -0.4478  0.5240  0.1542
  102MOL   C21338795   0.869   5.164   2.556  0.3539 -0.2684 -0.3251
  102MOL   C21438796   0.968   5.070   2.624 -0.0016 -0.4583  0.0190
  102MOL   C21538797   0.990   4.957   2.521  0.2387  0.4923 -0.2599
  102MOL   C21638798   0.982   5.025   2.387 -0.5450  0.1829 -1.2953
  102MOL   C21738799   0.883   5.263   2.178 -0.4227 -0.3673  0.1644
  102MOL   H21838800   0.777   5.312   2.356  0.8047  1.7010 -2.3422
  102MOL   H21938801   0.993   5.239   2.411 -1.6696  1.7694 -0.7018
  102MOL   H22038802   0.872   5.267   2.593 -1.4391 -0.5952  0.7903
  102MOL   H22138803   0.768   5.125   2.569  0.4867 -0.5770 -0.2241
  102MOL   H22238804   1.066   5.119   2.626 -1.5944  2.8257  2.4576
  102MOL   H22338805   0.940   5.019   2.717  1.5712 -2.1142 -0.3732
  102MOL   H22438806   0.911   4.882   2.524  1.6049 -1.0575 -1.6639
  102MOL   H22538807   1.076   4.891   2.534 -1.4145 -1.2688  2.2291
  102MOL   H22638808   1.082   5.033   2.345 -0.8569  1.2807 -1.8600
  102MOL   H22738809   0.923   4.962   2.321 -1.0943  0.2928 -0.9143
  102MOL   H22838810   0.843   5.208   2.093 -0.4117 -0.5431  0.2710
  102MOL   H22938811   0.991   5.247   2.182 -0.4606 -1.0774 -1.4265
  102MOL   C23038812   0.854   5.408   2.135 -0.1424  0.4543 -0.6275
  102MOL   C23138813   0.870   5.441   1.983  0.4010  0.5375 -0.4750
  102MOL   C23238814   1.002   5.391   1.917  0.2491  0.5792 -0.1242
  102MOL   C23338815   0.967   5.346   1.778 -0.6503 -0.0016 -0.2040
  102MOL   C23438816   0.816   5.379   1.757 -0.2385  0.0137 -0.9454
  102MOL   C23538817   0.757   5.380   1.898  0.3478 -0.6061 -0.2392
  102MOL   C23638818   0.933   5.510   2.225  0.4128 -0.2412 -0.6715
  102MOL   H23738819   0.750   5.427   2.163 -0.2778  0.1759 -0.9276
  102MOL   H23838820   0.873   5.549   1.970  0.9785  0.6122  0.2633
  102MOL   H23938821   1.060   5.482   1.919  2.2369 -0.6893  0.9652
  102MOL   H24038822   1.045   5.310   1.976  0.0817  0.7792  0.2723
  102MOL   H24138823   1.046   5.375   1.708 -0.3917  1.2369  0.5928
  102MOL   H24238824   0.963   5.237   1.781 -1.2537  0.0697  1.7988
  102MOL   H24338825   0.766   5.312   1.687 -4.4576  1.3783  0.5857
  102MOL   H24438826   0.810   5.476   1.708  2.1233  1.5171  1.5970
  102MOL   H24538827   0.727   5.280   1.929  0.3473 -0.6072 -0.2442
  102MOL   H24638828   0.666   5.441   1.906  0.9847  0.5085 -1.2807
  102MOL   H24738829   1.022   5.551   2.177  0.1799  0.3598 -0.5931
  102MOL   H24838830   0.982   5.454   2.305  1.1610  0.1268 -0.8703
  102MOL   C24938831   0.858   5.634   2.284  0.3885 -0.0237 -0.2108
  102MOL   C25038832   0.795   5.734   2.179  0.6635  0.2031 -0.5073
  102MOL   C25138833   0.884   5.816   2.087 -0.0606 -0.0279  0.4893
  102MOL   C25238834   0.792   5.926   2.030 -0.5762 -0.5329 -0.0526
  102MOL   C25338835   0.673   5.935   2.133  0.2623 -0.1093  0.3603
  102MOL   C25438836   0.693   5.833   2.241  0.2331  0.2642  0.8665
  102MOL   C25538837   0.951   5.707   2.382 -0.1870  0.0464  0.2718
  102MOL   H25638838   0.775   5.599   2.345 -0.1272  1.4998 -0.0002
  102MOL   H25738839   0.735   5.674   2.110 -0.9337  2.7763 -1.4205
  102MOL   H25838840   0.931   5.767   2.001  1.5806  0.1253  1.2774
  102MOL   H25938841   0.969   5.864   2.136 -0.0257  0.5746 -0.1546
  102MOL   H26038842   0.761   5.889   1.932 -0.9503 -0.8447  0.1823
  102MOL   H26138843   0.851   6.016   2.018 -0.8213 -0.4642 -0.7831
  102MOL   H26238844   0.578   5.909   2.085  0.8730 -1.2970 -0.2189
  102MOL   H26338845   0.670   6.040   2.164 -1.9113  0.5511 -1.8515
  102MOL   H26438846   0.595   5.787   2.258  0.1512  1.2725  3.3047
  102MOL   H26538847   0.728   5.876   2.334  3.7713  1.1570 -0.8035
  102MOL   H26638848   1.035   5.736   2.318 -1.2832  0.6368 -0.9269
  102MOL   H26738849   0.904   5.799   2.414  0.4022 -0.3706  2.4052
  102MOL   C26838850   1.008   5.626   2.506  0.2158 -0.1509 -0.0414
  102MOL   C26938851   0.919   5.670   2.629 -0.1863  0.1051  0.2405
  102MOL   C27038852   0.976   5.629   2.770  0.2710  0.3278 -0.1446
  102MOL   C27138853   0.856   5.659   2.867  0.1580 -0.7876  0.2201
  102MOL   C27238854   0.730   5.641   2.777  0.1037 -0.6511  0.8461
  102MOL   C27338855   0.779   5.618   2.633  0.0116  0.0049 -0.2338
  102MOL   C27438856   1.158   5.655   2.516 -0.3953 -0.1289  0.3516
  102MOL   H27538857   0.996   5.518   2.502  2.6891 -0.3670 -2.7616
  102MOL   H27638858   0.915   5.779   2.627 -1.2279  0.0622 -1.1285
  102MOL   H27738859   0.994   5.522   2.763 -0.0556  0.1509  1.4064
  102MOL   H27838860   1.074   5.666   2.800  1.1537 -1.1820 -1.0872
  102MOL   H27938861   0.831   5.592   2.950 -1.8162 -0.6973 -0.2607
  102MOL   H28038862   0.869   5.761   2.902 -0.3869  0.3715 -2.8545
  102MOL   H28138863   0.670   5.731   2.789  0.8602 -0.0158 -0.0498
  102MOL   H28238864   0.655   5.565   2.801  1.2385 -1.6341  1.3635
  102MOL   H28338865   0.716   5.661   2.555 -0.9548 -0.0931  0.4759
  102MOL   H28438866   0.772   5.510   2.614 -1.5856 -0.1021  0.8794
  102MOL   H28538867   1.182   5.735   2.586  1.8495 -0.1262 -0.3696
  102MOL   H28638868   1.203   5.682   2.421  2.2705  1.4075  1.9897
  102MOL   C28738869   1.247   5.539   2.584 -0.5566  0.7216 -0.5015
  102MOL   C28838870   1.265   5.411   2.500  0.7603  0.8281  0.0282
  102MOL   C28938871   1.341   5.421   2.368 -0.2023  0.1877 -0.4100
  102MOL   C29038872   1.369   5.275   2.322 -0.1081  0.1176  0.4112
  102MOL   C29138873   1.348   5.193   2.442  0.5084 -0.3799  0.1868
  102MOL   C29238874   1.327   5.282   2.567 -0.5217 -0.1888  0.4608
  102MOL   C29338875   1.382   5.594   2.620 -0.4703  0.3325 -0.2130
  102MOL   H29438876   1.186   5.518   2.672 -0.5849  1.0537 -0.4415
  102MOL   H29538877   1.163   5.387   2.470  0.3388  1.6040  0.8079
  102MOL   H29638878   1.294   5.481   2.291 -1.1358 -0.0784 -0.0517
  102MOL   H29738879   1.440   5.461   2.389  0.6322 -1.9980  0.0356
  102MOL   H29838880   1.308   5.243   2.238 -2.7587 -1.3092  2.7878
  102MOL   H29938881   1.472   5.271   2.287 -0.0928  2.2014  0.1867
  102MOL   H30038882   1.426   5.119   2.462  0.5895 -0.4113 -0.2419
  102MOL   H30138883   1.259   5.134   2.424 -0.5028  1.2149 -0.1128
  102MOL   H30238884   1.419   5.311   2.616 -0.2321 -1.8349  0.9302
  102MOL   H30338885   1.263   5.245   2.648 -0.6747  0.0629  0.4555
  102MOL   H30438886   1.404   5.675   2.550 -0.2523  1.3986  1.0780
  102MOL   H30538887   1.468   5.527   2.607  1.3932  2.2977  1.5775
  102MOL   C30638888   1.400   5.660   2.757  0.1439  0.4122 -0.3682
  102MOL   C30738889   1.435   5.555   2.872  0.3136  0.3673  0.3805
  102MOL   C30838890   1.452   5.607   3.016  0.4294  0.0593  0.2716
  102MOL   C30938891   1.447   5.484   3.101  0.4695  0.1464  0.3030
  102MOL   C31038892   1.359   5.381   3.040  0.4674 -0.0155 -0.3844
  102MOL   C31138893   1.324   5.446   2.902  0.4431 -0.6831 -0.5066
  102MOL   C31238894   1.517   5.763   2.760  0.0111 -0.0036 -0.6900
  102MOL   H31338895   1.307   5.709   2.783 -0.7828 -2.3006  1.7151
  102MOL   H31438896   1.523   5.499   2.841  1.9296  3.4642 -0.7629
  102MOL   H31538897   1.372   5.668   3.058  0.4163  1.3509 -1.5508
  102MOL   H31638898   1.550   5.650   3.036 -0.0957  1.8888 -0.9111
  102MOL   H31738899   1.549   5.447   3.110  0.5525 -0.5261 -2.7634
  102MOL   H31838900   1.411   5.501   3.203  0.6261 -0.0924  0.3979
  102MOL   H31938901   1.276   5.355   3.105  2.2154 -0.4815  1.7439
  102MOL   H32038902   1.414   5.290   3.016 -0.7625 -1.0683  0.7505
  102MOL   H32138903   1.327   5.372   2.821 -0.8199 -1.7720  0.4099
  102MOL   H32238904   1.223   5.484   2.918  0.5336 -1.2458  1.6213
  102MOL   H32338905   1.589   5.732   2.685  0.1346 -1.0145 -0.1624
  102MOL   H32438906   1.570   5.757   2.856  1.7435 -2.6433 -1.7442
  102MOL   C32538907   1.480   5.914   2.734  0.5840  0.2093 -0.3543
  102MOL   C32638908   1.600   5.996   2.693 -1.0581  0.2759 -0.4441
  102MOL   C32738909   1.657   5.952   2.551 -0.3162 -0.1698  0.3299
  102MOL   C32838910   1.806   5.933   2.576  0.0519 -0.5993 -0.5454
  102MOL   C32938911   1.840   6.001   2.706  0.4447 -0.0491 -0.1055
  102MOL   C33038912   1.715   5.998   2.795  0.9901  0.6396  0.2679
  102MOL   C33138913   1.403   5.972   2.860 -0.7952  0.2539 -0.5344
  102MOL   H33238914   1.416   5.914   2.646  0.8932  1.9813 -0.6027
  102MOL   H33338915   1.562   6.096   2.671 -0.5948  0.5161 -0.1641
  102MOL   H33438916   1.639   6.032   2.479  0.9159  0.7268  1.0065
  102MOL   H33538917   1.611   5.867   2.501 -2.8276  2.1405 -1.4585
  102MOL   H33638918   1.873   5.964   2.495  1.4379  1.5219  1.3494
  102MOL   H33738919   1.821   5.826   2.564 -1.7199 -0.6209 -2.7663
  102MOL   H33838920   1.867   6.105   2.689 -1.3085  0.6164  0.9380
  102MOL   H33938921   1.923   5.944   2.749  0.3921  0.4455  0.6716
  102MOL   H34038922   1.702   6.088   2.855 -0.8905  2.6227 -3.0036
  102MOL   H34138923   1.708   5.906   2.854  0.2201 -0.9070 -2.1318
  102MOL   H34238924   1.477   5.997   2.936 -1.8514 -1.9307  1.2539
  102MOL   H34338925   1.350   5.890   2.910  0.0439 -0.6186 -1.0721
  102MOL   C34438926   1.308   6.088   2.829 -0.6467 -0.4242  0.0857
  102MOL   C34538927   1.301   6.182   2.951  0.0881  0.0924 -0.3371
  102MOL   C34638928   1.436   6.259   2.970 -0.1351 -0.2213 -0.0377
  102MOL   C34738929   1.418   6.336   3.096  0.0407 -0.0098  0.4460
  102MOL   C34838930   1.330   6.246   3.183 -0.4912  0.9575  0.6864
  102MOL   C34938931   1.260   6.140   3.093 -0.2709  0.3114 -0.1859
  102MOL   C35038932   1.165   6.039   2.786 -0.2754  0.5558  0.1955
  102MOL   H35138933   1.355   6.140   2.745 -2.2314  0.9048 -0.0068
  102MOL   H35238934   1.232   6.263   2.928  0.3119  0.6733  0.9952
  102MOL   H35338935   1.459   6.323   2.885  3.3178 -0.1267  0.9075
  102MOL   H35438936   1.520   6.189   2.971 -0.6094 -0.7978 -0.6287
  102MOL   H35538937   1.511   6.360   3.148  0.5216  1.9294 -1.2408
  102MOL   H35638938   1.373   6.434   3.080 -0.9770 -0.2450  1.7685
  102MOL   H35738939   1.267   6.309   3.246  0.7966  2.0676  0.8840
  102MOL   H35838940   1.387   6.190   3.257 -0.2831  0.0650 -0.1334
  102MOL   H35938941   1.280   6.036   3.119 -0.6292 -0.3198 -2.3011
  102MOL   H36038942   1.152   6.137   3.090 -0.2544  0.7154 -1.6183
  102MOL   H36138943   1.116   6.022   2.882  2.1030  0.4689  1.4644
  102MOL   H36238944   1.166   5.946   2.729  1.0922  0.9962 -0.5292
  102MOL   C36338945   1.082   6.145   2.704  0.1693  0.5924  0.5757
  102MOL   C36438946   1.110   6.152   2.553  0.0001 -1.1876 -0.6775
  102MOL   C36538947   1.036   6.260   2.479  0.1987  0.0739  0.0679
  102MOL   C36638948   0.959   6.183   2.367  0.3647  0.9282 -0.1686
  102MOL   C36738949   1.055   6.069   2.334  0.1729  0.2862  0.3635
  102MOL   C36838950   1.096   6.019   2.475 -0.7943  0.3809 -0.7979
  102MOL   C36938951   0.934   6.116   2.728 -0.1593  0.3157  0.2900
  102MOL   H37038952   1.105   6.243   2.745  0.6998  1.3808 -1.5477
  102MOL   H37138953   1.215   6.183   2.547 -0.2889 -0.1610 -0.5612
  102MOL   H37238954   0.971   6.327   2.536  0.2166 -0.3131  0.5449
  102MOL   H37338955   1.111   6.322   2.431  0.6223 -0.4615  0.0359
  102MOL   H37438956   0.869   6.137   2.407  3.1419 -3.4885  1.3866
  102MOL   H37538957   0.945   6.249   2.281  0.8759 -0.0353 -1.0004
  102MOL   H37638958   0.995   5.992   2.285  0.9649 -0.2905  0.2991
  102MOL   H37738959   1.150   6.093   2.288  0.2627  1.1523  0.9902
  102MOL   H37838960   1.188   5.961   2.461 -0.2068  1.4188 -1.3534
  102MOL   H37938961   1.018   5.948   2.503 -0.7056  0.3320 -0.6741
  102MOL   H38038962   0.923   6.138   2.834 -1.1255  0.5223  0.1559
  102MOL   H38138963   0.902   6.012   2.721  1.0056 -0.2930  3.1315
  102MOL   H38238964   0.872   6.180   2.666  2.2793  1.7866 -0.6715
  103MOL     C138965   0.445   6.847   6.470 -0.1719  0.4019  0.1410
  103MOL     C238966   0.353   6.739   6.523  0.3831  0.4918 -0.5023
  103MOL     C338967   0.212   6.727   6.452 -0.1278  0.3483 -0.1856
  103MOL     C438968   0.137   6.642   6.554  0.3256  0.7702  0.3550
  103MOL     C538969   0.194   6.667   6.696 -0.2897  0.0244  0.0599
  103MOL     C638970   0.316   6.760   6.673 -0.1105 -0.8718 -0.5188
  103MOL     C738971   0.474   6.832   6.318 -0.1592  0.4591 -0.0111
  103MOL     H838972   0.410   6.944   6.505 -0.2258  1.1790 -2.0451
  103MOL     H938973   0.407   6.644   6.517  0.6079  0.4153  2.2080
  103MOL    H1038974   0.165   6.824   6.433  0.4098  0.6013 -0.2131
  103MOL    H1138975   0.218   6.680   6.354 -2.1299  0.1104 -0.2239
  103MOL    H1238976   0.030   6.660   6.551  0.0151 -1.1763 -1.2899
  103MOL    H1338977   0.155   6.540   6.521  1.6824  0.4364  2.0285
  103MOL    H1438978   0.120   6.708   6.764 -1.6623 -0.3638 -1.1843
  103MOL    H1538979   0.220   6.571   6.741 -1.0662  0.4169  1.3756
  103MOL    H1638980   0.408   6.738   6.728  1.7423  0.7175 -2.8674
  103MOL    H1738981   0.293   6.865   6.689  1.3440 -0.2060 -2.6097
  103MOL    H1838982   0.520   6.735   6.301 -2.9028 -0.4928 -2.2999
  103MOL    H1938983   0.378   6.834   6.266 -0.1092  0.2250 -0.1103
  103MOL    H2038984   0.539   6.832   6.523  0.2229 -2.3484 -1.2360
  103MOL    C2138985   0.561   6.945   6.251 -0.0910 -0.0477  0.0063
  103MOL    C2238986   0.606   6.906   6.111  0.1376  0.1948 -0.6160
  103MOL    C2338987   0.689   6.782   6.085  0.0971 -0.5466  0.4089
  103MOL    C2438988   0.771   6.799   5.956 -0.2944  0.3627 -0.7080
  103MOL    C2538989   0.712   6.926   5.899 -0.5494 -0.7509  0.0954
  103MOL    C2638990   0.669   7.010   6.018 -0.0165  0.3941 -0.6102
  103MOL    C2738991   0.493   7.086   6.260  0.1441 -0.2464  0.7492
  103MOL    H2838992   0.657   6.946   6.304  0.5841 -0.0637 -1.1988
  103MOL    H2938993   0.509   6.879   6.069 -0.6544  0.6440  0.8930
  103MOL    H3038994   0.628   6.691   6.084  0.4088 -0.7521 -0.5816
  103MOL    H3138995   0.758   6.765   6.167  2.4312  1.4418 -1.0820
  103MOL    H3238996   0.878   6.816   5.971 -0.2683 -1.0587  0.7880
  103MOL    H3338997   0.760   6.717   5.885 -1.0919  1.9169 -2.4393
  103MOL    H3438998   0.626   6.902   5.837  0.2894  0.8992 -1.7581
  103MOL    H3538999   0.787   6.968   5.832 -0.6810 -0.0191  0.4071
  103MOL    H3639000   0.596   7.087   5.994  0.2577  0.4523 -1.2691
  103MOL    H3739001   0.749   7.053   6.078 -0.3443 -1.6633  1.3863
  103MOL    H3839002   0.515   7.142   6.169 -0.1724 -0.1701  0.7204
  103MOL    H3939003   0.386   7.064   6.255  0.2111 -0.1629 -1.9695
  103MOL    C4039004   0.536   7.184   6.365 -0.4461 -0.2603 -0.2793
  103MOL    C4139005   0.670   7.250   6.330 -0.1016  0.0613  0.3144
  103MOL    C4239006   0.737   7.333   6.441  0.5975  0.3335 -0.8729
  103MOL    C4339007   0.841   7.424   6.370 -0.3324 -0.1564 -0.3154
  103MOL    C4439008   0.807   7.426   6.222  0.3590 -0.7325  0.1424
  103MOL    C4539009   0.675   7.348   6.208  0.5676 -0.3252 -0.2120
  103MOL    C4639010   0.427   7.288   6.409 -0.0715  0.1841 -0.3856
  103MOL    H4739011   0.560   7.131   6.457 -2.9891  1.3588  1.3907
  103MOL    H4839012   0.741   7.169   6.314  0.1993  0.5017 -0.6349
  103MOL    H4939013   0.788   7.268   6.512  0.1797  0.1392 -0.7443
  103MOL    H5039014   0.659   7.392   6.490  0.1092  0.1150 -1.3774
  103MOL    H5139015   0.940   7.380   6.382  0.6892  2.5319  1.7265
  103MOL    H5239016   0.848   7.522   6.416 -1.8635 -1.2363  2.3137
  103MOL    H5339017   0.812   7.525   6.177 -1.0497 -1.1029 -0.8667
  103MOL    H5439018   0.881   7.364   6.172  0.5435 -0.1596 -0.3042
  103MOL    H5539019   0.588   7.414   6.210  1.7200  1.2277 -1.0891
  103MOL    H5639020   0.672   7.287   6.117 -3.7799 -0.3383 -0.1881
  103MOL    H5739021   0.453   7.394   6.416 -5.2339  1.6357 -1.0435
  103MOL    H5839022   0.367   7.309   6.321 -0.2466  2.6143  0.2675
  103MOL    C5939023   0.346   7.254   6.535 -0.3935  0.1898 -1.0977
  103MOL    C6039024   0.435   7.275   6.662  0.5100 -0.4966  0.2560
  103MOL    C6139025   0.374   7.197   6.780 -0.0693  0.1208 -0.2463
  103MOL    C6239026   0.443   7.247   6.910  0.4179  0.0596 -0.0649
  103MOL    C6339027   0.485   7.389   6.879 -0.0333  0.3628  0.1636
  103MOL    C6439028   0.451   7.416   6.730  0.2638  0.2048 -0.2286
  103MOL    C6539029   0.207   7.329   6.540  0.3864  0.6179 -0.1222
  103MOL    H6639030   0.336   7.146   6.528  1.8251 -0.0245 -1.4536
  103MOL    H6739031   0.535   7.238   6.640  0.7449 -0.9296  1.9892
  103MOL    H6839032   0.374   7.091   6.755  1.6643 -0.0612  0.4504
  103MOL    H6939033   0.266   7.214   6.788  0.3008  1.5880  2.4125
  103MOL    H7039034   0.529   7.185   6.939 -0.2164 -0.1420  1.4298
  103MOL    H7139035   0.373   7.242   6.993 -1.3111  1.0717 -1.4306
  103MOL    H7239036   0.593   7.395   6.899 -0.0297 -0.1316  0.2880
  103MOL    H7339037   0.426   7.455   6.944  1.0590  0.1108  1.4461
  103MOL    H7439038   0.367   7.483   6.712  0.6870  0.5787 -0.8472
  103MOL    H7539039   0.533   7.474   6.687 -0.0548  0.0775 -1.0197
  103MOL    H7639040   0.225   7.434   6.519 -1.7060  1.4606  1.9266
  103MOL    H7739041   0.163   7.323   6.640  1.8463 -0.3366  0.4800
  103MOL    C7839042   0.100   7.284   6.436 -0.4375  0.9074 -0.3197
  103MOL    C7939043   0.048   7.145   6.470  0.1960  0.5859  0.0915
  103MOL    C8039044   7.671   7.075   6.351  0.0282  0.0706  1.0351
  103MOL    C8139045   7.561   6.987   6.420 -0.1290  0.4168  0.0891
  103MOL    C8239046   7.518   7.063   6.547  0.3518 -0.4890  0.8249
  103MOL    C8339047   7.647   7.132   6.595 -0.1826  0.3462 -0.9610
  103MOL    C8439048   7.678   7.391   6.427 -0.2707  0.4132  0.1729
  103MOL    H8539049   0.154   7.270   6.342  0.9242  1.2286  0.3916
  103MOL    H8639050   0.135   7.082   6.483  0.9753  0.5650 -4.3941
  103MOL    H8739051   0.055   7.027   6.287 -0.4400  0.1629  0.4160
  103MOL    H8839052   7.605   7.137   6.290 -0.3604 -0.2692  1.1045
  103MOL    H8939053   7.602   6.889   6.444 -1.7398  0.3797  2.9142
  103MOL    H9039054   7.469   6.960   6.368  0.6857  2.3319 -2.4564
  103MOL    H9139055   7.441   7.132   6.511 -0.0229 -1.2082  0.2338
  103MOL    H9239056   7.473   7.000   6.623 -0.9160  0.5492  0.9588
  103MOL    H9339057   7.621   7.226   6.645 -0.2905 -0.0093 -0.3401
  103MOL    H9439058   7.690   7.068   6.673 -3.6217  0.8285  1.4436
  103MOL    H9539059   7.649   7.423   6.528 -1.1256 -0.1338  0.1075
  103MOL    H9639060   7.591   7.337   6.389  0.0617 -0.3230  0.4443
  103MOL    C9739061   0.026   7.511   6.340  0.1844 -0.9162 -0.7482
  103MOL    C9839062   7.642   7.646   6.383  0.5201  0.5592  0.2917
  103MOL    C9939063   7.486   7.628   6.408 -0.4520 -0.8039  0.0308
  103MOL   C10039064   7.452   0.077   6.462  0.2672  0.2478  0.3675
  103MOL   C10139065   7.568   0.106   6.561  0.0988 -0.5791 -0.5320
  103MOL   C10239066   7.688   0.030   6.504 -0.2507  0.2609  0.3754
  103MOL   C10339067   7.682   7.493   6.198  0.1741 -0.0206  0.0950
  103MOL   H10439068   0.134   7.517   6.352  0.1223 -0.8066 -0.2312
  103MOL   H10539069   7.662   0.032   6.307 -0.8664  0.4660 -0.1782
  103MOL   H10639070   7.423   7.614   6.320  0.1609  1.6942 -0.8599
  103MOL   H10739071   7.454   7.562   6.489  0.5081  0.2409  1.2898
  103MOL   H10839072   7.354   0.073   6.510  0.5169  2.8087  1.1423
  103MOL   H10939073   7.448   0.149   6.381 -0.4033  0.4607  0.5883
  103MOL   H11039074   7.539   0.066   6.658 -0.1424  2.4834  0.7230
  103MOL   H11139075   7.590   0.213   6.565  0.6477 -0.6957 -0.4599
  103MOL   H11239076   0.081   0.092   6.471  0.1164  0.7941  2.2588
  103MOL   H11339077   0.047   7.655   6.577  1.9697  1.0397 -0.3747
  103MOL   H11439078   0.007   7.390   6.166  2.6984  0.1901  0.4736
  103MOL   H11539079   7.577   7.510   6.178  0.5203  0.7253 -1.1091
  103MOL   C11639080   0.078   7.581   6.100 -0.1044  0.1473  0.0831
  103MOL   C11739081   0.221   7.521   6.081  0.5486 -0.6346 -0.0197
  103MOL   C11839082   0.241   7.382   6.007  0.0816 -0.0817  0.8184
  103MOL   C11939083   0.368   7.389   5.923 -0.5878  0.1598  0.7969
  103MOL   C12039084   0.376   7.539   5.890  0.3783  0.0619 -0.3409
  103MOL   C12139085   0.312   7.618   6.004 -0.0661 -0.2721  0.3278
  103MOL   C12239086   0.004   7.611   5.961 -0.3782  0.4183 -0.5794
  103MOL   H12339087   0.083   7.683   6.140 -4.1434  0.6893 -0.5738
  103MOL   H12439088   0.270   7.505   6.177  1.1588  0.7446 -0.1033
  103MOL   H12539089   0.250   7.297   6.075 -0.9423  0.5224  1.7159
  103MOL   H12639090   0.159   7.367   5.937  1.8283  2.1946 -1.8030
  103MOL   H12739091   0.358   7.337   5.829  0.4706  1.9341 -0.3254
  103MOL   H12839092   0.448   7.348   5.985  1.0183  0.6176 -0.9139
  103MOL   H12939093   0.311   7.559   5.804  0.6797  1.6949 -0.1963
  103MOL   H13039094   0.479   7.565   5.867  0.5681  1.2977  1.7889
  103MOL   H13139095   0.395   7.653   6.064 -0.4219  1.6652 -0.2589
  103MOL   H13239096   0.264   0.019   5.965  1.1452  0.8303  1.3389
  103MOL   H13339097   7.645   7.520   5.927 -0.2603 -0.6911  2.0583
  103MOL   H13439098   0.089   7.627   5.895  0.2728  0.4961  0.2692
  103MOL   C13539099   7.602   0.041   5.961  0.5564 -0.7856  0.4463
  103MOL   C13639100   7.484   0.024   5.859 -0.0156 -0.0861  0.0516
  103MOL   C13739101   7.395   7.600   5.879 -0.0525 -0.3978  0.7992
  103MOL   C13839102   7.310   7.587   5.755  0.8026  0.0838  0.1987
  103MOL   C13939103   7.387   7.651   5.636  0.2056  0.3755  0.2559
  103MOL   C14039104   7.517   0.004   5.704  0.3916 -0.3565  0.5619
  103MOL   C14139105   7.683   0.171   5.928 -0.3290 -0.1827 -0.5702
  103MOL   H14239106   7.565   0.041   6.064  0.7102  0.3380  0.5030
  103MOL   H14339107   7.419   0.110   5.868 -0.9891 -1.0914  3.8790
  103MOL   H14439108   7.445   7.506   5.903  1.4265  0.1837  0.0376
  103MOL   H14539109   7.333   7.621   5.967  0.4871 -0.2989  1.1601
  103MOL   H14639110   7.215   7.640   5.769  2.0670  2.5899 -0.4882
  103MOL   H14739111   7.278   7.483   5.743 -0.1162  0.3301  0.4462
  103MOL   H14839112   7.325   0.049   5.614  0.4803  0.6320  0.4912
  103MOL   H14939113   7.395   7.580   5.554 -0.8827  0.3404  0.1750
  103MOL   H15039114   7.593   7.616   5.698 -0.2924 -0.9842 -0.0536
  103MOL   H15139115   7.549   0.099   5.660 -1.1618  1.2512  2.7973
  103MOL   H15239116   0.049   0.142   5.839 -0.1424 -2.9517  0.3983
  103MOL   H15339117   0.060   0.183   6.014  0.1536  2.2680 -1.2395
  103MOL   C15439118   7.619   0.309   5.906 -0.4235  0.8176  0.1887
  103MOL   C15539119   7.610   0.389   6.030 -1.3378 -0.4326  0.5386
  103MOL   C15639120   7.522   0.316   6.135  0.2339  0.0292 -0.3326
  103MOL   C15739121   7.428   0.429   6.197 -0.0828  0.5170  0.3226
  103MOL   C15839122   7.480   0.563   6.143 -0.0550 -0.9427  0.7218
  103MOL   C15939123   7.555   0.535   6.016  0.7468  0.3522  0.2420
  103MOL   C16039124   0.001   0.380   5.787  0.0375 -0.3004 -0.2914
  103MOL   H16139125   7.516   0.297   5.873 -0.5723 -0.1661  0.9956
  103MOL   H16239126   0.021   0.398   6.069 -1.1265 -0.5360  0.0146
  103MOL   H16339127   7.457   0.239   6.094  0.8602 -0.6323 -0.0792
  103MOL   H16439128   7.580   0.259   6.206 -1.5223 -0.7959  0.4767
  103MOL   H16539129   7.332   0.413   6.147  1.1329  0.6216 -2.1041
  103MOL   H16639130   7.419   0.426   6.306  2.1444  3.1077  0.6125
  103MOL   H16739131   7.541   0.602   6.224  0.7955 -0.1325 -0.2984
  103MOL   H16839132   7.402   0.639   6.133  2.1375  1.3085  0.2871
  103MOL   H16939133   7.633   0.609   5.997  1.5218 -0.7913 -1.1686
  103MOL   H17039134   7.477   0.545   5.941 -1.2369  0.3234  2.2572
  103MOL   H17139135   7.622   0.455   5.747  1.2237 -0.4729 -2.7689
  103MOL   H17239136   0.011   0.310   5.704  0.4421 -1.6697  0.8868
  103MOL   C17339137   0.136   0.446   5.817  0.8273  0.3434  0.6634
  103MOL   C17439138   0.166   0.544   5.701 -1.0240 -0.0049  0.3571
  103MOL   C17539139   0.085   0.674   5.692  0.5235 -0.0980 -0.1737
  103MOL   C17639140   0.093   0.722   5.547  0.2513  0.3746 -0.7907
  103MOL   C17739141   0.080   0.593   5.478 -0.2423  0.3112  0.1344
  103MOL   C17839142   0.171   0.494   5.553  0.5060  0.4476 -0.2644
  103MOL   C17939143   0.251   0.343   5.820  0.3204 -0.2432  0.1269
  103MOL   H18039144   0.122   0.508   5.906  1.0674  2.6597 -0.8578
  103MOL   H18139145   0.270   0.575   5.713 -0.1894 -3.1239  1.5711
  103MOL   H18239146   0.118   0.741   5.772  0.2653 -0.2571  0.0651
  103MOL   H18339147   7.670   0.650   5.709  0.5989  1.5526  3.1212
  103MOL   H18439148   0.025   0.805   5.528 -2.5674 -1.5598  0.4430
  103MOL   H18539149   0.185   0.768   5.510 -1.4266  2.7943 -2.0769
  103MOL   H18639150   0.100   0.591   5.370 -1.0064 -3.2521 -0.0152
  103MOL   H18739151   7.666   0.561   5.489 -0.1765 -0.0076 -0.1529
  103MOL   H18839152   0.144   0.389   5.553  0.2989  0.4868  0.8720
  103MOL   H18939153   0.272   0.506   5.513  0.1014  1.1060 -1.1002
  103MOL   H19039154   0.230   0.254   5.880 -1.6135  1.6831  2.4089
  103MOL   H19139155   0.276   0.318   5.717 -1.0314  1.2565 -0.5833
  103MOL   C19239156   0.373   0.400   5.887  0.4230 -1.0252 -0.2256
  103MOL   C19339157   0.503   0.332   5.832 -0.6241  0.5349 -0.5926
  103MOL   C19439158   0.544   0.380   5.693  0.1172  0.6024 -0.6132
  103MOL   C19539159   0.612   0.263   5.626 -0.1887 -0.7748 -0.2268
  103MOL   C19639160   0.614   0.147   5.731 -0.1662 -0.3136 -0.5108
  103MOL   C19739161   0.512   0.180   5.828 -0.4022 -0.1265  0.8254
  103MOL   C19839162   0.350   0.392   6.042  0.0140  0.1881  0.3966
  103MOL   H19939163   0.389   0.506   5.870  1.3405 -1.0383  0.5134
  103MOL   H20039164   0.593   0.358   5.888  0.0002 -1.2107 -0.7505
  103MOL   H20139165   0.608   0.467   5.710 -0.2266  0.7761 -0.1981
  103MOL   H20239166   0.461   0.420   5.636 -1.2726 -1.6275 -0.2070
  103MOL   H20339167   0.560   0.224   5.538 -0.5526 -1.8289  0.4377
  103MOL   H20439168   0.711   0.289   5.589 -0.5892  1.3677  0.1743
  103MOL   H20539169   0.714   0.158   5.773  0.8120  0.9033 -3.1116
  103MOL   H20639170   0.596   0.047   5.691 -0.4981 -0.6765  0.5165
  103MOL   H20739171   0.526   0.139   5.928  0.3364  0.1754  0.8513
  103MOL   H20839172   0.421   0.141   5.782  0.0765  0.1381 -0.3731
  103MOL   H20939173   0.246   0.381   6.070  0.3344 -1.9162  0.8786
  103MOL   H21039174   0.382   0.291   6.071 -1.5501 -0.6118 -0.5984
  103MOL   C21139175   0.424   0.488   6.141  0.3290  0.3181  0.7138
  103MOL   C21239176   0.355   0.626   6.155  0.9227  0.0844  0.1676
  103MOL   C21339177   0.329   0.718   6.036 -0.0617 -0.0532 -0.1265
  103MOL   C21439178   0.243   0.833   6.089 -0.5185 -0.5024 -0.2245
  103MOL   C21539179   0.167   0.775   6.203  0.0430 -0.3527 -0.3184
  103MOL   C21639180   0.218   0.625   6.218  0.0490  0.3427 -0.2752
  103MOL   C21739181   0.453   0.427   6.284  0.6423 -0.2397  0.1468
  103MOL   H21839182   0.526   0.505   6.104  1.2872 -1.4248  2.4267
  103MOL   H21939183   0.416   0.677   6.230  0.7912 -0.8698  0.9427
  103MOL   H22039184   0.419   0.762   5.992 -0.0839 -1.0895 -1.2376
  103MOL   H22139185   0.272   0.667   5.958 -0.4092  1.4313 -0.8640
  103MOL   H22239186   0.300   0.921   6.121 -1.5001  0.5406 -1.2825
  103MOL   H22339187   0.181   0.871   6.008  2.1616  1.5567 -1.4325
  103MOL   H22439188   0.065   0.792   6.170  0.6714  0.4456 -1.9068
  103MOL   H22539189   0.189   0.831   6.294 -0.3476 -1.0603  0.2183
  103MOL   H22639190   0.231   0.604   6.324  0.6369 -2.2757 -0.8506
  103MOL   H22739191   0.144   0.564   6.167 -0.7168  0.6338  0.4738
  103MOL   H22839192   0.358   0.386   6.317  1.3916 -1.8118  0.3978
  103MOL   H22939193   0.473   0.496   6.366  0.5162  0.3266 -0.2977
  103MOL   C23039194   0.563   0.317   6.292 -0.1622  0.8341 -0.2220
  103MOL   C23139195   0.533   0.208   6.401 -0.0715 -0.6957  0.9001
  103MOL   C23239196   0.401   0.130   6.380  0.1259 -0.1493 -0.0244
  103MOL   C23339197   0.413   0.011   6.473  0.4727  0.0825 -0.2499
  103MOL   C23439198   0.563   7.664   6.462  0.5592 -0.6104 -0.1098
  103MOL   C23539199   0.638   0.099   6.413  0.0997  0.6817  0.0580
  103MOL   C23639200   0.702   0.377   6.316 -0.4614  0.0338  0.2289
  103MOL   H23739201   0.554   0.257   6.201  1.0265 -0.6364  0.6059
  103MOL   H23839202   0.526   0.255   6.499  0.4213  0.6816  0.2839
  103MOL   H23939203   0.314   0.189   6.407 -0.0948  0.8563 -2.7722
  103MOL   H24039204   0.392   0.102   6.275  0.7375  0.5188 -0.2618
  103MOL   H24139205   0.386   0.051   6.571 -0.6155  1.8552 -1.2378
  103MOL   H24239206   0.342   7.623   6.446 -0.7520  0.5760  1.4541
  103MOL   H24339207   0.575   7.585   6.387 -0.6844 -0.9411  0.0198
  103MOL   H24439208   0.605   7.625   6.555 -0.6995 -0.9142  0.3512
  103MOL   H24539209   0.679   0.079   6.314  0.4149 -1.0814  0.5274
  103MOL   H24639210   0.718   0.133   6.479  0.4256 -1.8692  1.0614
  103MOL   H24739211   0.766   0.327   6.388 -0.7013  0.2542  0.5954
  103MOL   H24839212   0.683   0.471   6.367 -1.3982 -0.2375  0.3947
  103MOL   C24939213   0.790   0.397   6.183 -0.7179  0.7127  0.2926
  103MOL   C25039214   0.868   0.270   6.142 -0.4064  0.4262 -0.6061
  103MOL   C25139215   0.971   0.209   6.237  0.0189  0.3106  0.3334
  103MOL   C25239216   1.038   0.101   6.141 -0.8624 -0.2250  0.0879
  103MOL   C25339217   1.004   0.135   5.991 -0.0530 -0.0943 -0.2025
  103MOL   C25439218   0.917   0.264   5.994  0.2503  0.8503  0.5252
  103MOL   C25539219   0.877   0.516   6.201 -0.1108 -0.0860 -0.5633
  103MOL   H25639220   0.726   0.403   6.094 -0.2647  0.5396 -0.0438
  103MOL   H25739221   0.784   0.200   6.141  1.3066 -1.7539  2.1368
  103MOL   H25839222   0.918   0.169   6.323 -0.8661 -0.2034 -0.4410
  103MOL   H25939223   1.039   0.289   6.267 -0.2255  0.2701  0.9876
  103MOL   H26039224   0.993   0.008   6.175  1.1082 -1.2083  0.0806
  103MOL   H26139225   1.146   0.096   6.155 -1.0095 -0.7214  1.0861
  103MOL   H26239226   0.939   0.058   5.950  0.5282 -0.1132 -1.1036
  103MOL   H26339227   1.092   0.147   5.927 -0.4833 -2.3349 -1.2784
  103MOL   H26439228   0.837   0.268   5.919  0.0172  0.7637  0.7683
  103MOL   H26539229   0.992   0.340   5.971  1.0211 -0.4563 -1.4124
  103MOL   H26639230   0.943   0.516   6.287 -1.4686 -1.6858  0.4989
  103MOL   H26739231   0.944   0.507   6.115 -0.5871  0.3940 -0.9937
  103MOL   C26839232   0.799   0.651   6.185  0.0851  0.2030 -0.5524
  103MOL   C26939233   0.817   0.708   6.047  0.1556  0.6664  0.3131
  103MOL   C27039234   0.769   0.625   5.932  0.4943 -0.5529  0.3178
  103MOL   C27139235   0.843   0.681   5.812  0.3471  0.0417  0.0085
  103MOL   C27239236   0.984   0.681   5.863 -0.3176 -0.1053 -0.6531
  103MOL   C27339237   0.958   0.745   6.000 -0.1527 -0.3188  0.3619
  103MOL   C27439238   0.848   0.742   6.299 -0.1539  0.2792  0.3286
  103MOL   H27539239   0.694   0.624   6.199  0.4112  0.0468  1.7153
  103MOL   H27639240   0.756   0.799   6.052 -1.2029 -0.2979  1.4848
  103MOL   H27739241   0.803   0.522   5.934  1.5784 -0.1883  1.3830
  103MOL   H27839242   0.660   0.637   5.939  0.5387  0.4740 -0.6725
  103MOL   H27939243   0.828   0.606   5.733 -0.5625 -0.5841  0.7743
  103MOL   H28039244   0.813   0.779   5.776 -0.6659 -0.8821 -1.7596
  103MOL   H28139245   1.052   0.734   5.796  0.3732 -1.9830 -1.4908
  103MOL   H28239246   1.037   0.586   5.867  2.7169  1.5780  0.8071
  103MOL   H28339247   0.973   0.853   5.993 -0.2906 -0.4025 -1.2116
  103MOL   H28439248   1.040   0.713   6.065  3.2768  0.7595 -3.2051
  103MOL   H28539249   0.952   0.762   6.274  0.1505 -0.8650  0.6105
  103MOL   H28639250   0.839   0.702   6.400  0.0450  0.2049  0.3177
  103MOL   C28739251   0.781   0.877   6.320  0.3090  0.1834  0.4502
  103MOL   C28839252   0.631   0.865   6.352  0.0544 -0.4547 -0.4037
  103MOL   C28939253   0.587   0.796   6.482 -1.0022  0.2883  0.3889
  103MOL   C29039254   0.447   0.855   6.511  0.2402  0.3040 -0.5105
  103MOL   C29139255   0.457   1.000   6.473  0.2764  0.3205 -0.0064
  103MOL   C29239256   0.555   1.000   6.347 -0.3179  0.4867  0.4444
  103MOL   C29339257   0.859   0.951   6.426 -0.6707  0.3987 -0.5296
  103MOL   H29439258   0.785   0.937   6.229 -3.4038  1.7559  1.2001
  103MOL   H29539259   0.590   0.807   6.269 -2.3067  0.1310  0.3066
  103MOL   H29639260   0.581   0.688   6.469 -2.3064  0.5516 -1.4439
  103MOL   H29739261   0.658   0.828   6.558  1.3098 -0.7601 -1.2577
  103MOL   H29839262   0.365   0.800   6.466 -1.1259 -0.5019  2.7616
  103MOL   H29939263   0.434   0.848   6.620 -1.2596  0.2138 -0.6846
  103MOL   H30039264   0.507   1.060   6.549 -1.0524  0.5339  0.7170
  103MOL   H30139265   0.361   1.040   6.441  1.6168  2.9025 -0.9297
  103MOL   H30239266   0.622   1.085   6.358 -0.1589  0.1516  2.2183
  103MOL   H30339267   0.501   1.009   6.252  0.2110  0.9415  0.1880
  103MOL   H30439268   0.884   0.892   6.514  0.6486  1.7450  0.0258
  103MOL   H30539269   0.797   1.024   6.478 -0.7552 -0.2529  0.2830
  103MOL   C30639270   0.992   1.022   6.374  0.6168  0.6628 -0.2058
  103MOL   C30739271   0.977   1.175   6.382  0.7947  0.3991 -0.1649
  103MOL   C30839272   0.867   1.240   6.297 -0.2295  0.2317  0.2976
  103MOL   C30939273   0.784   1.334   6.390  0.0448  0.2238 -0.4417
  103MOL   C31039274   0.815   1.297   6.532  0.3581 -0.5625  0.0516
  103MOL   C31139275   0.953   1.226   6.530  0.3560  0.1152 -0.2172
  103MOL   C31239276   1.125   0.979   6.442 -0.2218 -0.0999 -0.2877
  103MOL   H31339277   0.998   0.998   6.268 -2.6162 -0.9692 -0.0765
  103MOL   H31439278   1.074   1.218   6.357  1.2823 -1.1756 -1.0657
  103MOL   H31539279   0.801   1.160   6.263 -0.0969  0.6768 -1.0417
  103MOL   H31639280   0.908   1.288   6.209  1.0542 -0.5845  0.4422
  103MOL   H31739281   0.788   1.441   6.369 -1.6831  0.5865  0.9897
  103MOL   H31839282   0.679   1.313   6.369 -0.1150  1.9002 -1.4273
  103MOL   H31939283   0.745   1.223   6.569 -0.6943  1.0167  1.2937
  103MOL   H32039284   0.816   1.391   6.588 -0.1291  0.4324 -1.5446
  103MOL   H32139285   1.008   1.316   6.555  2.0859 -0.8755 -0.3686
  103MOL   H32239286   0.969   1.153   6.610 -0.4210  2.0138  1.7442
  103MOL   H32339287   1.138   0.871   6.444  1.1433  0.0326 -1.7208
  103MOL   H32439288   1.112   1.002   6.548  0.8420  1.3973 -0.4701
  103MOL   C32539289   1.262   1.032   6.389 -0.0026  0.2216  0.2077
  103MOL   C32639290   1.304   0.951   6.262  0.5701 -0.2724  0.1329
  103MOL   C32739291   1.345   0.802   6.275 -0.2642 -0.1706  0.7162
  103MOL   C32839292   1.487   0.796   6.220 -0.0280 -0.3247  0.9171
  103MOL   C32939293   1.503   0.920   6.123  0.4394  0.1461  0.4012
  103MOL   C33039294   1.421   1.021   6.197  0.1930 -0.0330  0.8082
  103MOL   C33139295   1.357   1.004   6.507 -0.1193 -0.5230 -0.0321
  103MOL   H33239296   1.262   1.139   6.373 -2.9719  0.0617 -1.1413
  103MOL   H33339297   1.221   0.948   6.192 -0.5158  3.3663  1.1716
  103MOL   H33439298   1.284   0.740   6.210 -0.0639  0.8497 -0.4751
  103MOL   H33539299   1.324   0.763   6.375  0.4343 -2.9054 -0.1662
  103MOL   H33639300   1.508   0.693   6.189 -1.5819 -0.0811 -1.0456
  103MOL   H33739301   1.556   0.815   6.302  1.7879 -2.4618 -0.0800
  103MOL   H33839302   1.457   0.893   6.028  1.0803 -1.8438  0.6266
  103MOL   H33939303   1.609   0.937   6.103  0.2111 -0.4206 -1.3897
  103MOL   H34039304   1.379   1.101   6.136 -1.3885 -0.6396  1.0677
  103MOL   H34139305   1.475   1.066   6.281 -0.1259 -1.1952  1.6576
  103MOL   H34239306   1.433   0.934   6.473  1.1173  0.1889  1.2319
  103MOL   H34339307   1.308   0.944   6.584  1.0479  1.6054  2.4510
  103MOL   C34439308   1.406   1.128   6.579  0.3296 -0.2727  0.2674
  103MOL   C34539309   1.555   1.117   6.620  0.2551  0.3032 -0.5358
  103MOL   C34639310   1.657   1.090   6.512 -0.0754 -0.3664  0.5405
  103MOL   C34739311   1.779   1.020   6.575 -0.1268 -0.4469 -0.1787
  103MOL   C34839312   1.738   1.008   6.729  0.1616  0.1414 -0.1310
  103MOL   C34939313   1.586   1.021   6.734 -0.0182 -0.0077 -0.8185
  103MOL   C35039314   1.312   1.172   6.694 -0.6166  0.2683  0.3646
  103MOL   H35139315   1.410   1.216   6.514  1.8523  1.2747  2.3727
  103MOL   H35239316   1.592   1.216   6.645  0.3569 -0.5511  3.1190
  103MOL   H35339317   1.696   1.183   6.470  2.6231 -0.8636  1.7964
  103MOL   H35439318   1.610   1.031   6.433 -0.0629 -1.0017  1.0063
  103MOL   H35539319   1.797   0.925   6.525  3.9859  0.9919 -1.6243
  103MOL   H35639320   1.866   1.086   6.572  0.0212 -0.5639  1.1476
  103MOL   H35739321   1.767   1.094   6.789  2.2963 -0.4897 -0.2322
  103MOL   H35839322   1.786   0.927   6.783 -0.5585 -1.2946 -1.5888
  103MOL   H35939323   1.532   0.929   6.715 -0.5751  0.0411  0.4841
  103MOL   H36039324   1.546   1.066   6.825  2.8804  1.5741 -0.2682
  103MOL   H36139325   1.304   1.088   6.762 -1.1740  1.7159  2.1369
  103MOL   H36239326   1.212   1.190   6.654 -0.2087  0.6767 -0.5067
  103MOL   C36339327   1.361   1.297   6.763  1.1932 -0.7586  0.6480
  103MOL   C36439328   1.388   1.427   6.677  0.2062  0.1060 -0.2300
  103MOL   C36539329   1.465   1.534   6.764  0.2561  0.2564 -0.1581
  103MOL   C36639330   1.419   1.671   6.705  0.6742 -0.5269 -0.1490
  103MOL   C36739331   1.334   1.636   6.584  0.3947 -0.4649  0.8329
  103MOL   C36839332   1.273   1.501   6.618  0.1802 -0.5458  0.3724
  103MOL   C36939333   1.262   1.325   6.878  0.4896  0.4339  0.0173
  103MOL   H37039334   1.445   1.265   6.825  1.1621 -0.9187  0.6061
  103MOL   H37139335   1.468   1.408   6.605  0.9778  0.1783  0.6072
  103MOL   H37239336   1.446   1.526   6.871  1.2805  2.0095  0.1736
  103MOL   H37339337   1.572   1.512   6.769  0.0538 -0.7307 -0.0918
  103MOL   H37439338   1.376   1.733   6.784  1.9397  1.5089 -1.0154
  103MOL   H37539339   1.505   1.731   6.673  0.4501  1.4299  2.7201
  103MOL   H37639340   1.270   1.719   6.552 -0.6687 -1.1491  1.1422
  103MOL   H37739341   1.397   1.619   6.497  0.2066 -0.0316  0.6093
  103MOL   H37839342   1.244   1.450   6.526  0.2762 -3.2039  1.7614
  103MOL   H37939343   1.197   1.534   6.689  1.2284 -0.6149  1.5267
  103MOL   H38039344   1.252   1.255   6.961  1.3939  0.3728  0.0791
  103MOL   H38139345   1.169   1.350   6.827  0.2912 -0.6581 -0.1683
  103MOL   H38239346   1.281   1.423   6.921  1.5092  0.8372 -1.3085
  104MOL     C139347   1.445   5.922   1.863  0.2510  0.2115 -0.4284
  104MOL     C239348   1.581   5.971   1.808  0.3681 -0.4573  0.0555
  104MOL     C339349   1.669   6.047   1.907 -0.0161  0.6354 -0.0853
  104MOL     C439350   1.756   6.149   1.834 -0.1365  0.0093 -0.1624
  104MOL     C539351   1.694   6.158   1.694 -0.2491 -0.2703  0.5675
  104MOL     C639352   1.563   6.074   1.703  0.2458 -0.1991  0.1028
  104MOL     C739353   1.453   5.831   1.991 -0.6753 -0.6561 -0.1144
  104MOL     H839354   1.386   6.010   1.889 -0.5798  0.5564 -3.2884
  104MOL     H939355   1.628   5.880   1.771  0.6708  0.5797 -2.1998
  104MOL    H1039356   1.607   6.091   1.984  0.3869 -0.1624  0.7025
  104MOL    H1139357   1.732   5.977   1.962 -1.8265 -2.5380 -1.9204
  104MOL    H1239358   1.756   6.247   1.882 -0.8582  0.3662 -0.8611
  104MOL    H1339359   1.858   6.113   1.821  0.7647  1.8842  1.4218
  104MOL    H1439360   1.689   6.260   1.656 -0.5707  1.2879  4.5828
  104MOL    H1539361   1.749   6.106   1.616 -2.1501  0.0790 -1.0593
  104MOL    H1639362   1.528   6.035   1.608 -0.9313  0.2707  0.3332
  104MOL    H1739363   1.495   6.151   1.739 -1.1010 -1.1604 -0.3189
  104MOL    H1839364   1.477   5.885   2.082  0.2969 -0.9273 -0.2082
  104MOL    H1939365   1.349   5.809   2.019 -0.7579 -1.0308 -0.6946
  104MOL    H2039366   1.380   5.882   1.786  0.6055 -2.6643  0.7100
  104MOL    C2139367   1.531   5.693   1.984 -0.6544 -0.9371 -0.0919
  104MOL    C2239368   1.585   5.637   2.120  0.1098 -0.8886 -0.2619
  104MOL    C2339369   1.668   5.737   2.202 -0.2424 -0.5952 -0.6693
  104MOL    C2439370   1.728   5.657   2.311 -0.8895 -0.1890 -0.0612
  104MOL    C2539371   1.777   5.528   2.239  0.4586 -0.2243 -0.4977
  104MOL    C2639372   1.679   5.519   2.121 -0.1086  0.2884  0.0921
  104MOL    C2739373   1.435   5.592   1.917 -0.1977 -0.0082  0.4717
  104MOL    H2839374   1.618   5.716   1.924  0.0546  2.2597  2.0300
  104MOL    H2939375   1.496   5.604   2.173 -0.6177 -0.8948 -1.4787
  104MOL    H3039376   1.608   5.820   2.241  0.4142 -1.0641  1.4110
  104MOL    H3139377   1.743   5.788   2.141 -1.6384  1.2639 -0.8824
  104MOL    H3239378   1.807   5.718   2.354  1.5356 -3.2593 -0.0072
  104MOL    H3339379   1.663   5.634   2.395 -1.9415  1.3240 -0.4394
  104MOL    H3439380   1.776   5.444   2.309 -2.1035  0.6449  0.5894
  104MOL    H3539381   1.876   5.535   2.195 -0.4929 -0.4342 -2.7371
  104MOL    H3639382   1.626   5.424   2.125  0.0404  0.2731  2.0798
  104MOL    H3739383   1.730   5.509   2.024 -1.8146 -0.9504 -0.6920
  104MOL    H3839384   1.369   5.539   1.986 -1.7261  2.1413  0.7056
  104MOL    H3939385   1.362   5.640   1.853  1.0450 -0.1756 -1.0913
  104MOL    C4039386   1.502   5.489   1.820  0.1632  0.0700 -0.0113
  104MOL    C4139387   1.410   5.366   1.800  0.4266 -0.0043  0.0431
  104MOL    C4239388   1.399   5.271   1.920 -0.2731  0.1337 -0.0859
  104MOL    C4339389   1.309   5.164   1.857 -0.6075 -0.2640 -0.1207
  104MOL    C4439390   1.338   5.157   1.704 -1.1855 -0.2335  0.0891
  104MOL    C4539391   1.439   5.268   1.681 -0.1229 -0.1445  0.0274
  104MOL    C4639392   1.526   5.572   1.683 -0.1343  0.2774 -0.5484
  104MOL    H4739393   1.598   5.463   1.865  0.8595  0.9814 -0.9545
  104MOL    H4839394   1.312   5.411   1.781 -0.1883 -0.7740  1.2751
  104MOL    H4939395   1.351   5.322   2.004 -0.5881  0.6481 -0.5771
  104MOL    H5039396   1.495   5.227   1.949  0.0307  2.2286  2.3278
  104MOL    H5139397   1.206   5.189   1.884 -1.0804 -0.3340 -1.8575
  104MOL    H5239398   1.337   5.071   1.907  1.6164  1.4187  1.8933
  104MOL    H5339399   1.380   5.060   1.675 -4.1443 -0.8553 -2.4387
  104MOL    H5439400   1.239   5.165   1.659 -1.6510 -0.7932  0.9744
  104MOL    H5539401   1.544   5.242   1.692 -0.0447  1.0687  2.1304
  104MOL    H5639402   1.419   5.309   1.582  1.1187 -0.1715 -0.2386
  104MOL    H5739403   1.434   5.566   1.626 -0.7962  0.2039  0.5014
  104MOL    H5839404   1.538   5.679   1.700 -0.1866  0.0815  0.7815
  104MOL    C5939405   1.651   5.538   1.592  0.0261  0.4125 -0.1892
  104MOL    C6039406   1.638   5.585   1.450  0.1663  0.9518  0.4585
  104MOL    C6139407   1.622   5.733   1.421  0.2405 -0.4206 -0.4846
  104MOL    C6239408   1.525   5.732   1.305  0.2001  0.2492 -0.5398
  104MOL    C6339409   1.507   5.593   1.256  0.1288  0.3552  0.4880
  104MOL    C6439410   1.534   5.508   1.375  0.2260 -0.4614 -0.2450
  104MOL    C6539411   1.772   5.595   1.668 -0.3795  0.5474 -0.3429
  104MOL    H6639412   1.672   5.431   1.587 -1.2052  0.2072 -1.5259
  104MOL    H6739413   1.729   5.554   1.398  0.4239  0.2168  1.3319
  104MOL    H6839414   1.720   5.777   1.404  0.3453  0.3940  1.9463
  104MOL    H6939415   1.568   5.784   1.501  0.8827  0.6514 -0.7260
  104MOL    H7039416   1.551   5.795   1.220 -2.2486  0.5084 -1.1557
  104MOL    H7139417   1.419   5.754   1.322 -0.0519 -0.8657 -0.6278
  104MOL    H7239418   1.584   5.575   1.181  0.6674  0.7063  0.9504
  104MOL    H7339419   1.412   5.581   1.205  0.2112  0.5832  0.2810
  104MOL    H7439420   1.446   5.486   1.435  0.6112 -0.2630  0.3999
  104MOL    H7539421   1.580   5.414   1.344  1.2416  0.0219 -0.2279
  104MOL    H7639422   1.765   5.565   1.772  1.0470 -0.2288 -0.4509
  104MOL    H7739423   1.770   5.704   1.673 -0.5768  0.6113 -1.6725
  104MOL    C7839424   1.916   5.548   1.618  0.2377 -0.6596  0.2951
  104MOL    C7939425   2.030   5.649   1.638  0.1724 -0.0859  0.0212
  104MOL    C8039426   2.065   5.710   1.773  0.4350 -0.4524 -0.0041
  104MOL    C8139427   2.151   5.838   1.746  0.4193  0.1530 -0.2991
  104MOL    C8239428   2.131   5.864   1.593  0.9433  0.0517  0.3871
  104MOL    C8339429   2.025   5.766   1.544 -0.0858  0.0361 -0.4650
  104MOL    C8439430   1.941   5.414   1.678 -0.1697  0.3585  0.3185
  104MOL    H8539431   1.908   5.536   1.510  0.7838 -1.9644  0.3890
  104MOL    H8639432   2.116   5.593   1.602  0.5902  0.3377  0.3431
  104MOL    H8739433   2.119   5.651   1.847 -2.3728 -1.2721  1.4901
  104MOL    H8839434   1.973   5.753   1.815 -0.0657 -0.0250 -1.4938
  104MOL    H8939435   2.255   5.840   1.780 -0.3471  3.6305  2.0965
  104MOL    H9039436   2.093   5.915   1.797 -0.6804  0.7788 -2.4724
  104MOL    H9139437   2.095   5.963   1.564  0.0206 -0.2330  0.5611
  104MOL    H9239438   2.226   5.846   1.543  0.2118 -1.4804 -0.4764
  104MOL    H9339439   1.928   5.814   1.548 -0.5466 -0.4085 -4.0487
  104MOL    H9439440   2.048   5.752   1.438  2.7265  2.5639 -0.2544
  104MOL    H9539441   1.848   5.362   1.701 -0.7267 -0.2111 -2.9446
  104MOL    H9639442   1.974   5.449   1.776  1.5720  0.1408 -0.1680
  104MOL    C9739443   2.040   5.323   1.604 -1.2679  0.1919 -0.1255
  104MOL    C9839444   1.966   5.207   1.516 -0.2251 -0.2981 -0.0069
  104MOL    C9939445   1.901   5.087   1.586  0.3967 -0.2030  0.4932
  104MOL   C10039446   1.830   5.012   1.474  0.2353 -0.8513  0.4832
  104MOL   C10139447   1.777   5.124   1.380 -0.2137  0.1825 -0.4354
  104MOL   C10239448   1.858   5.247   1.412 -0.4349  0.6641  0.1318
  104MOL   C10339449   2.144   5.244   1.705  0.0929 -0.7156  0.3053
  104MOL   H10439450   2.113   5.382   1.549 -0.3920  0.9164  1.7628
  104MOL   H10539451   2.049   5.170   1.456 -1.0427 -2.5333  0.2060
  104MOL   H10639452   1.972   5.024   1.639  0.0893  1.2328  2.6890
  104MOL   H10739453   1.828   5.124   1.658 -1.1782 -0.7400 -0.8079
  104MOL   H10839454   1.751   4.946   1.510  0.3358 -0.9950  0.4392
  104MOL   H10939455   1.912   4.960   1.424  1.1480  2.4851 -1.6646
  104MOL   H11039456   1.669   5.138   1.394  0.1474  0.3590  2.5169
  104MOL   H11139457   1.794   5.090   1.278  0.2974 -2.2383  0.4076
  104MOL   H11239458   1.896   5.307   1.329 -3.1098  0.4231 -1.3250
  104MOL   H11339459   1.788   5.317   1.458 -0.9534  0.1893  0.0636
  104MOL   H11439460   2.086   5.221   1.794 -0.7600  2.9190  0.7751
  104MOL   H11539461   2.161   5.140   1.679 -0.8473 -0.7518 -0.1731
  104MOL   C11639462   2.267   5.336   1.726  0.1054  0.0547 -0.4470
  104MOL   C11739463   2.325   5.324   1.867  0.2860  0.0406 -0.1328
  104MOL   C11839464   2.232   5.376   1.977  0.0387 -0.1109 -0.6056
  104MOL   C11939465   2.219   5.266   2.081  0.5511  0.4142 -0.1803
  104MOL   C12039466   2.340   5.176   2.058 -0.0270 -0.4781  0.3581
  104MOL   C12139467   2.344   5.183   1.906 -0.3673  0.2612  0.3904
  104MOL   C12239468   2.373   5.292   1.626 -0.1345  0.0455  0.6148
  104MOL   H12339469   2.249   5.444   1.720 -0.3242  0.0083 -0.0559
  104MOL   H12439470   2.417   5.383   1.863 -0.8628  1.8005 -2.2673
  104MOL   H12539471   2.267   5.473   2.011  0.3365 -0.3937 -0.1081
  104MOL   H12639472   2.135   5.401   1.935 -0.0164 -0.1152 -0.4810
  104MOL   H12739473   2.129   5.210   2.055  0.2980  1.3230 -1.2589
  104MOL   H12839474   2.208   5.296   2.185 -0.5288 -1.4318  0.2615
  104MOL   H12939475   2.331   5.081   2.111  0.1374 -0.7043 -0.0204
  104MOL   H13039476   2.426   5.219   2.109 -0.8737  0.0344  1.3859
  104MOL   H13139477   2.438   5.150   1.862 -1.5787 -1.3843 -1.0334
  104MOL   H13239478   2.269   5.118   1.861 -1.5466  2.5291 -0.9789
  104MOL   H13339479   2.339   5.259   1.528  0.0975 -0.0440  0.5627
  104MOL   H13439480   2.417   5.199   1.662  2.1564 -0.2206 -2.6633
  104MOL   C13539481   2.478   5.405   1.606 -0.6257  0.0059 -0.5810
  104MOL   C13639482   2.425   5.498   1.490  0.5168 -0.2043 -0.1473
  104MOL   C13739483   2.464   5.475   1.341  0.3060  0.3330 -0.1341
  104MOL   C13839484   2.484   5.614   1.283  0.1101 -0.5692  0.1945
  104MOL   C13939485   2.440   5.715   1.392 -0.2170  0.1024 -0.1045
  104MOL   C14039486   2.469   5.636   1.521 -0.1810 -0.0374 -0.6533
  104MOL   C14139487   2.615   5.335   1.572 -0.7522  0.3375  0.5447
  104MOL   H14239488   2.482   5.473   1.691  1.3164 -0.5042 -0.2626
  104MOL   H14339489   2.318   5.503   1.508  0.5413  1.9549 -0.3923
  104MOL   H14439490   2.554   5.412   1.341  0.4008  0.4659  0.0572
  104MOL   H14539491   2.390   5.418   1.285  0.0797  1.0504 -0.5652
  104MOL   H14639492   2.441   5.631   1.184 -1.5322  1.0674  1.1417
  104MOL   H14739493   2.590   5.637   1.267  0.0768  1.3603  2.4735
  104MOL   H14839494   2.332   5.730   1.384  0.0826  1.7628 -1.4834
  104MOL   H14939495   2.494   5.809   1.388  0.9637 -0.4923  1.6004
  104MOL   H15039496   2.576   5.642   1.541 -0.7241 -0.8473  2.8779
  104MOL   H15139497   2.414   5.677   1.606 -0.3116 -2.2274  0.3548
  104MOL   H15239498   2.680   5.412   1.531 -1.0099  0.0127 -0.4975
  104MOL   H15339499   2.602   5.266   1.488 -3.3486 -0.3391  1.4718
  104MOL   C15439500   2.675   5.243   1.679 -0.3428 -0.1966 -0.5778
  104MOL   C15539501   2.679   5.091   1.633  0.2907 -0.1523  0.0218
  104MOL   C15639502   2.732   4.985   1.740  0.0555  0.0832  0.1165
  104MOL   C15739503   2.836   4.895   1.664 -0.0970 -0.4709  0.0845
  104MOL   C15839504   2.886   4.990   1.550 -0.8106  0.1605 -0.1769
  104MOL   C15939505   2.756   5.069   1.503  0.3261  0.0546 -0.6951
  104MOL   C16039506   2.821   5.290   1.716  0.6786 -0.4338  0.0795
  104MOL   H16139507   2.605   5.243   1.762  2.0118 -0.5791  1.5048
  104MOL   H16239508   2.579   5.055   1.608  1.2861 -2.1834 -1.1248
  104MOL   H16339509   2.775   5.034   1.827 -1.0026  0.6484  0.3323
  104MOL   H16439510   2.649   4.929   1.784 -0.7422  0.9967 -0.1901
  104MOL   H16539511   2.914   4.860   1.731  0.6596  1.3358  0.1891
  104MOL   H16639512   2.783   4.814   1.614  1.9153 -1.2890 -0.7576
  104MOL   H16739513   2.947   4.937   1.476 -1.1023  1.8102 -1.6316
  104MOL   H16839514   2.953   5.066   1.590 -0.0237  0.2193 -1.5771
  104MOL   H16939515   2.702   5.010   1.429 -0.9523  0.0889  0.1964
  104MOL   H17039516   2.786   5.165   1.461 -0.8134 -0.0173 -1.6927
  104MOL   H17139517   2.876   5.285   1.622 -0.2283  0.9506 -0.5380
  104MOL   H17239518   2.866   5.209   1.774  0.4838  0.5492  1.6287
  104MOL   C17339519   2.834   5.420   1.808  0.1177 -0.3040 -0.4614
  104MOL   C17439520   2.982   5.469   1.820  0.1086  0.3542  0.3676
  104MOL   C17539521   3.050   5.503   1.680  0.0877 -0.9538  0.8924
  104MOL   C17639522   3.189   5.444   1.689  0.4323 -0.7648 -0.4334
  104MOL   C17739523   3.204   5.376   1.830  0.6058  0.2016  0.1923
  104MOL   C17839524   3.073   5.375   1.896 -0.1283  0.0181  0.0154
  104MOL   C17939525   2.764   5.405   1.945 -0.6496 -0.3770 -0.3954
  104MOL   H18039526   2.784   5.499   1.752 -0.5549 -0.3140  0.1231
  104MOL   H18139527   2.995   5.567   1.866  1.4626 -0.2443  1.2577
  104MOL   H18239528   3.059   5.611   1.663 -1.5938 -1.0629 -0.8537
  104MOL   H18339529   2.997   5.456   1.597  3.9530  0.1950 -2.4028
  104MOL   H18439530   3.199   5.370   1.609  0.3309 -1.3560  0.0954
  104MOL   H18539531   3.264   5.522   1.680 -1.9092  1.6242  0.2141
  104MOL   H18639532   3.273   5.409   1.908  0.4684 -0.4259  0.5824
  104MOL   H18739533   3.237   5.275   1.807  0.5949  0.5903 -1.5865
  104MOL   H18839534   3.028   5.277   1.909  0.9631 -0.2639  1.8592
  104MOL   H18939535   3.073   5.420   1.996  6.0635 -2.4999  1.3519
  104MOL   H19039536   2.661   5.381   1.918 -1.0449 -0.9288  1.5577
  104MOL   H19139537   2.819   5.323   1.990 -0.6965 -0.1199  0.1389
  104MOL   C19239538   2.756   5.523   2.051 -0.6382  0.4531  0.2507
  104MOL   C19339539   2.752   5.477   2.197 -0.1652  0.4614  0.0051
  104MOL   C19439540   2.881   5.415   2.254  0.0200  0.3495  0.4798
  104MOL   C19539541   2.838   5.325   2.373 -0.5448 -0.8044  0.3814
  104MOL   C19639542   2.688   5.345   2.381  0.6481 -0.8249 -0.3737
  104MOL   C19739543   2.636   5.387   2.244 -0.5021 -0.8140  0.0546
  104MOL   C19839544   2.643   5.630   2.021  0.1373 -0.0287 -0.7609
  104MOL   H19939545   2.859   5.558   2.059 -0.9130  1.2973  0.0923
  104MOL   H20039546   2.747   5.564   2.262 -2.3661 -1.3764  2.4266
  104MOL   H20139547   2.963   5.484   2.274  0.0019  0.1488  1.2547
  104MOL   H20239548   2.920   5.353   2.173 -1.0193 -1.2092  1.1443
  104MOL   H20339549   2.860   5.220   2.352 -2.3072 -0.9783 -0.6746
  104MOL   H20439550   2.879   5.362   2.467 -0.3042 -1.6033  0.5955
  104MOL   H20539551   2.671   5.425   2.454 -1.2032 -1.6022  0.0703
  104MOL   H20639552   2.645   5.250   2.413  0.8877 -0.7401  0.2164
  104MOL   H20739553   2.545   5.447   2.253  0.2850  0.6692 -1.6303
  104MOL   H20839554   2.634   5.307   2.171  0.1465 -1.2185  0.4799
  104MOL   H20939555   2.616   5.604   1.918 -2.3065 -0.0544 -0.1458
  104MOL   H21039556   2.555   5.602   2.079  0.9949 -0.8305  0.1624
  104MOL   C21139557   2.677   5.780   2.039 -0.1830 -0.0448  0.2814
  104MOL   C21239558   2.757   5.828   1.913 -0.6487  0.5777  0.5446
  104MOL   C21339559   2.692   5.817   1.780  0.6580  0.3090  0.1653
  104MOL   C21439560   2.744   5.937   1.706 -0.1260 -0.3426 -0.5309
  104MOL   C21539561   2.782   6.048   1.804  0.2396 -0.2935 -0.0487
  104MOL   C21639562   2.817   5.962   1.925  0.1920 -0.2915 -0.0181
  104MOL   C21739563   2.549   5.866   2.056  0.1745 -0.0269  0.3033
  104MOL   H21839564   2.747   5.791   2.121 -0.6623 -1.4598  0.8891
  104MOL   H21939565   2.831   5.748   1.918 -0.9981  0.3603  2.6629
  104MOL   H22039566   2.711   5.724   1.726 -0.6619 -0.6760  1.3762
  104MOL   H22139567   2.583   5.820   1.780  0.6500  1.3610 -1.5339
  104MOL   H22239568   2.823   5.919   1.633  0.8221 -1.0665  0.6504
  104MOL   H22339569   2.655   5.969   1.652 -1.6923 -0.8962  1.6278
  104MOL   H22439570   2.690   6.105   1.818 -2.1404 -4.2189  1.3033
  104MOL   H22539571   2.866   6.099   1.757 -0.5276  0.3721 -0.7106
  104MOL   H22639572   2.926   5.951   1.929  0.0987 -1.8136 -1.1830
  104MOL   H22739573   2.789   6.026   2.009 -0.7576  0.8956 -1.2191
  104MOL   H22839574   2.465   5.821   2.002  2.2879 -3.7505 -0.0313
  104MOL   H22939575   2.553   5.962   2.005 -0.7079 -1.0305 -1.7243
  104MOL   C23039576   2.505   5.871   2.206  0.8558 -0.6882 -0.6810
  104MOL   C23139577   2.355   5.917   2.226 -0.7479 -0.0591 -0.5688
  104MOL   C23239578   2.255   5.812   2.164  0.4911 -0.3859 -0.2013
  104MOL   C23339579   2.118   5.849   2.235  0.8216  0.1874  0.0369
  104MOL   C23439580   2.157   5.926   2.357  0.3353 -0.6801 -0.5992
  104MOL   C23539581   2.311   5.939   2.365  0.2221  0.7388 -0.6135
  104MOL   C23639582   2.601   5.969   2.287  0.5771 -0.0141  0.4142
  104MOL   H23739583   2.518   5.768   2.239  0.9977 -0.5756 -0.3801
  104MOL   H23839584   2.354   6.006   2.163  2.8130 -0.1642 -0.8576
  104MOL   H23939585   2.248   5.822   2.056  1.2705 -0.7873 -0.2967
  104MOL   H24039586   2.297   5.713   2.181  2.3727  0.1410 -1.5952
  104MOL   H24139587   2.056   5.914   2.173 -0.3049 -1.0813 -0.1823
  104MOL   H24239588   2.066   5.755   2.250  1.6299 -0.4343 -0.9254
  104MOL   H24339589   2.110   5.890   2.449 -0.7645 -1.0669 -1.2934
  104MOL   H24439590   2.111   6.025   2.349 -0.3136 -1.0089 -1.0324
  104MOL   H24539591   2.352   5.862   2.431  0.6399  1.4454 -0.0481
  104MOL   H24639592   2.331   6.038   2.405  0.9872  0.0415  0.7811
  104MOL   H24739593   2.572   6.074   2.273  0.3160 -0.2705 -1.0699
  104MOL   H24839594   2.693   5.979   2.230 -0.2380  1.9077 -0.6265
  104MOL   C24939595   2.631   5.939   2.436  0.4011 -0.1735 -0.2299
  104MOL   C25039596   2.718   6.058   2.503 -0.6217 -0.0765 -0.2330
  104MOL   C25139597   2.658   6.199   2.510  0.2869 -0.1626  0.0257
  104MOL   C25239598   2.775   6.294   2.507  0.2132  0.2033  0.0394
  104MOL   C25339599   2.899   6.219   2.471  0.0180 -0.0345  0.1890
  104MOL   C25439600   2.856   6.076   2.438  0.0040 -0.1904  0.0309
  104MOL   C25539601   2.694   5.800   2.465  0.2330 -1.6311  0.1950
  104MOL   H25639602   2.539   5.953   2.492 -0.2801 -3.3737 -0.4454
  104MOL   H25739603   2.739   6.031   2.606  2.0768  1.4648 -0.3502
  104MOL   H25839604   2.607   6.213   2.606  1.9040  0.8133  0.7503
  104MOL   H25939605   2.580   6.228   2.439 -0.5090 -0.3257  0.8137
  104MOL   H26039606   2.782   6.344   2.604  2.5186 -0.8297  0.4482
  104MOL   H26139607   2.767   6.367   2.427 -0.9686  0.5323  0.4601
  104MOL   H26239608   2.959   6.220   2.562  1.7678 -1.0613 -0.9120
  104MOL   H26339609   2.961   6.259   2.391  1.3272  0.4326  1.4201
  104MOL   H26439610   2.925   6.008   2.486 -0.3793 -0.3095  0.4173
  104MOL   H26539611   2.854   6.067   2.329  1.1843 -0.4845  0.0343
  104MOL   H26639612   2.633   5.728   2.411 -2.6751 -0.8088  2.2735
  104MOL   H26739613   2.788   5.807   2.410  0.9977  1.6250  1.7602
  104MOL   C26839614   2.719   5.746   2.608 -0.4687 -0.6649  0.4811
  104MOL   C26939615   2.845   5.650   2.625  0.2594  0.7640  0.3125
  104MOL   C27039616   2.886   5.626   2.768  0.1275 -0.1419 -0.0720
  104MOL   C27139617   3.034   5.587   2.763  0.3564  0.3517 -0.2077
  104MOL   C27239618   3.074   5.610   2.622  0.7031  0.2753  0.5031
  104MOL   C27339619   2.972   5.708   2.561  0.1759 -0.0648 -0.2389
  104MOL   C27439620   2.603   5.673   2.687  0.2973  0.3383 -0.2728
  104MOL   H27539621   2.743   5.839   2.660  0.1698 -0.1168 -0.7803
  104MOL   H27639622   2.819   5.558   2.573 -1.8166  0.1176  2.3954
  104MOL   H27739623   2.864   5.705   2.839  1.2071  0.2646 -0.1757
  104MOL   H27839624   2.823   5.552   2.817 -1.5431  0.5918 -1.0774
  104MOL   H27939625   3.086   5.647   2.837 -0.5037  0.9772 -0.1008
  104MOL   H28039626   3.041   5.481   2.786  0.2394  0.2855 -0.4722
  104MOL   H28139627   3.070   5.514   2.571 -1.7711  0.8522 -0.4663
  104MOL   H28239628   3.177   5.641   2.607  0.9550  0.2970  2.1823
  104MOL   H28339629   2.966   5.690   2.454  1.4421  0.4925 -0.4073
  104MOL   H28439630   2.990   5.814   2.581 -3.7758  0.1895  2.4306
  104MOL   H28539631   2.637   5.661   2.790 -1.5548 -2.2367  0.0940
  104MOL   H28639632   2.582   5.574   2.646  0.3242  0.8799 -1.6302
  104MOL   C28739633   2.458   5.734   2.686  0.6044  0.0711  0.3448
  104MOL   C28839634   2.347   5.638   2.646 -0.0728  0.4107 -0.4884
  104MOL   C28939635   2.349   5.560   2.514  0.4694 -0.5232 -1.0096
  104MOL   C29039636   2.243   5.449   2.532  0.4897 -0.3591 -0.0065
  104MOL   C29139637   2.229   5.423   2.682 -0.4746  0.3568 -0.3989
  104MOL   C29239638   2.304   5.529   2.754 -0.5223 -0.3730  0.0572
  104MOL   C29339639   2.422   5.791   2.827  0.3554  0.4976  1.2245
  104MOL   H29439640   2.456   5.816   2.614 -0.0377 -0.3174 -0.0937
  104MOL   H29539641   2.261   5.705   2.644  0.1776  0.7194 -2.1940
  104MOL   H29639642   2.312   5.613   2.427 -1.7826 -0.2512  0.0818
  104MOL   H29739643   2.450   5.517   2.506  1.5653  1.7189  0.3421
  104MOL   H29839644   2.143   5.458   2.491  0.0942 -2.3089  0.4615
  104MOL   H29939645   2.278   5.355   2.490 -0.5889 -0.9436  0.3682
  104MOL   H30039646   2.273   5.325   2.702 -0.7618 -0.0609 -1.7863
  104MOL   H30139647   2.126   5.412   2.714 -0.0646 -0.5125  0.6614
  104MOL   H30239648   2.393   5.492   2.805 -1.7010 -0.4873  2.0961
  104MOL   H30339649   2.247   5.581   2.831 -0.8637 -1.3453  0.4754
  104MOL   H30439650   2.445   5.713   2.900 -2.6635 -1.8177 -0.1837
  104MOL   H30539651   2.314   5.805   2.833  0.1801 -0.3627  0.2781
  104MOL   C30639652   2.496   5.918   2.878 -0.5503 -0.0967  0.2315
  104MOL   C30739653   2.418   6.049   2.852  0.1917 -0.5959  0.0624
  104MOL   C30839654   2.484   6.187   2.866 -0.5745  0.2792  0.3018
  104MOL   C30939655   2.385   6.285   2.809 -0.1059  0.8552 -0.7330
  104MOL   C31039656   2.303   6.204   2.711  0.5373 -0.5759  0.2354
  104MOL   C31139657   2.353   6.063   2.714 -0.4421 -0.0242 -0.2374
  104MOL   C31239658   2.534   5.897   3.027  0.1335  0.4005  0.0506
  104MOL   H31339659   2.589   5.911   2.821 -1.0754 -2.1739 -0.4190
  104MOL   H31439660   2.342   6.056   2.929  1.8719  1.4758  1.5884
  104MOL   H31539661   2.579   6.185   2.812 -0.6620 -0.9736  0.1900
  104MOL   H31639662   2.501   6.218   2.969  0.3687  1.5805 -0.2344
  104MOL   H31739663   2.316   6.327   2.882  0.9088  0.6479  0.3661
  104MOL   H31839664   2.431   6.370   2.758  2.9557  1.6947  3.1931
  104MOL   H31939665   2.297   6.239   2.608 -2.2057 -0.7136  0.3317
  104MOL   H32039666   2.199   6.207   2.741  0.2123 -1.7344 -0.7480
  104MOL   H32139667   2.270   5.994   2.700 -0.0194 -0.9220  1.5133
  104MOL   H32239668   2.430   6.047   2.638  1.3565  1.2838  1.2529
  104MOL   H32339669   2.617   5.964   3.046 -0.6376  1.2148  0.5593
  104MOL   H32439670   2.586   5.802   3.038  0.2729  0.5163  0.3655
  104MOL   C32539671   2.415   5.893   3.137 -0.0129  0.3129 -0.6448
  104MOL   C32639672   2.388   6.034   3.204  0.9081 -0.6533  0.4003
  104MOL   C32739673   2.497   6.099   3.291  0.5801  0.1437  0.0916
  104MOL   C32839674   2.436   6.186   3.405 -0.6280  0.0147 -0.1543
  104MOL   C32939675   2.286   6.165   3.381 -0.1744  0.4828  0.2320
  104MOL   C33039676   2.269   6.037   3.293  0.3518  0.1995  0.0950
  104MOL   C33139677   2.441   5.783   3.243  0.4409  0.2926 -0.2353
  104MOL   H33239678   2.321   5.863   3.091  0.0435  2.2188 -2.0494
  104MOL   H33339679   2.351   6.098   3.123  1.2970 -1.6640 -0.5961
  104MOL   H33439680   2.555   6.166   3.227  0.5023  0.9225  0.8231
  104MOL   H33539681   2.567   6.030   3.337  0.2777  0.2985  0.7916
  104MOL   H33639682   2.460   6.292   3.409 -1.3895  0.2026 -0.4740
  104MOL   H33739683   2.475   6.137   3.494  0.1075  1.3805  0.2752
  104MOL   H33839684   2.249   6.250   3.324  1.5131  1.1591  0.0998
  104MOL   H33939685   2.223   6.150   3.469  1.0936  0.5438  1.1567
  104MOL   H34039686   2.178   6.038   3.233 -0.7680 -0.9292  1.7352
  104MOL   H34139687   2.267   5.949   3.358 -2.3465  0.8733  0.9929
  104MOL   H34239688   2.410   5.825   3.339  3.0990 -1.3163  1.4174
  104MOL   H34339689   2.548   5.786   3.265  0.2441 -0.4558  0.9329
  104MOL   C34439690   2.397   5.635   3.225 -0.5079 -0.4554  0.1306
  104MOL   C34539691   2.508   5.556   3.155 -0.8632  0.4319 -0.2534
  104MOL   C34639692   2.474   5.401   3.124  0.0123  0.1158  0.3086
  104MOL   C34739693   2.598   5.315   3.149 -0.2732 -0.1452 -0.5390
  104MOL   C34839694   2.712   5.398   3.180  0.8825 -0.9924 -0.6672
  104MOL   C34939695   2.650   5.534   3.234 -0.2841  0.7553  0.5037
  104MOL   C35039696   2.260   5.620   3.147  0.4769  0.5329  0.5263
  104MOL   H35139697   2.391   5.588   3.323  0.6470 -3.3044 -1.1123
  104MOL   H35239698   2.537   5.600   3.060 -1.0986  1.0161 -0.0555
  104MOL   H35339699   2.436   5.412   3.022 -1.9420 -0.8668  0.8978
  104MOL   H35439700   2.384   5.364   3.173  0.5647 -0.7801  0.6688
  104MOL   H35539701   2.574   5.239   3.223  1.0313  1.4981  1.6482
  104MOL   H35639702   2.620   5.262   3.057  1.2593 -0.6264  0.0976
  104MOL   H35739703   2.781   5.403   3.096  1.4039  0.5104 -0.1751
  104MOL   H35839704   2.768   5.348   3.259 -0.6241 -2.6521 -0.6412
  104MOL   H35939705   2.625   5.515   3.339  2.1485 -0.5269  0.8813
  104MOL   H36039706   2.710   5.625   3.231  0.7952  0.1245  2.0763
  104MOL   H36139707   2.238   5.521   3.109  2.3239  0.5637 -0.7181
  104MOL   H36239708   2.272   5.665   3.048 -1.1567 -1.6446 -0.6980
  104MOL   C36339709   2.147   5.679   3.222  0.3948  0.0177  0.9933
  104MOL   C36439710   2.025   5.688   3.129  0.3950 -0.0163  0.3460
  104MOL   C36539711   1.954   5.551   3.086  0.2852  0.4560 -0.5100
  104MOL   C36639712   1.893   5.582   2.949 -0.5321  0.0158  0.1267
  104MOL   C36739713   1.909   5.734   2.931  0.1826 -0.0714  0.3760
  104MOL   C36839714   2.038   5.767   3.002 -0.1373  0.3226  0.3430
  104MOL   C36939715   2.107   5.594   3.349  0.4496 -0.5163 -0.5933
  104MOL   H37039716   2.172   5.780   3.254 -1.7231  0.9412 -0.1253
  104MOL   H37139717   1.954   5.748   3.187 -0.7638 -0.4597 -0.5768
  104MOL   H37239718   2.033   5.478   3.066  1.7705  1.4753  1.4359
  104MOL   H37339719   1.890   5.507   3.162  2.7907 -1.5209  0.5278
  104MOL   H37439720   1.934   5.532   2.861  1.7707  1.0429  0.5799
  104MOL   H37539721   1.787   5.557   2.946 -0.0028 -2.2331 -0.1314
  104MOL   H37639722   1.906   5.758   2.825 -0.1975  0.3954  0.4915
  104MOL   H37739723   1.825   5.791   2.971 -0.2912 -0.7871  0.4137
  104MOL   H37839724   2.051   5.870   3.035 -0.1128  0.3701  0.1865
  104MOL   H37939725   2.121   5.739   2.937 -0.4109  0.7732 -0.2064
  104MOL   H38039726   2.069   5.494   3.334  0.6215 -0.5607 -0.7351
  104MOL   H38139727   2.026   5.639   3.406  0.8573 -1.9786  1.1886
  104MOL   H38239728   2.189   5.589   3.421 -0.2630  1.3957  0.4037
  105MOL     C139729   4.046   4.938   7.021 -0.1837  0.1030 -0.0942
  105MOL     C239730   4.097   4.913   7.173  0.3383 -0.6870 -0.2085
  105MOL     C339731   4.146   5.045   7.250 -0.5558  0.7052  0.1274
  105MOL     C439732   4.263   4.992   7.341  0.1086  0.4320 -0.1128
  105MOL     C539733   4.286   4.845   7.310  0.1952  0.1479 -0.3143
  105MOL     C639734   4.223   4.825   7.179 -0.1104 -0.7830  0.5410
  105MOL     C739735   3.893   4.992   7.022  0.7064 -0.0693 -0.3136
  105MOL     H839736   4.114   5.005   6.968 -0.5801 -0.4207 -1.2926
  105MOL     H939737   4.012   4.877   7.231  0.0111 -2.0274 -1.4769
  105MOL    H1039738   4.196   5.108   7.176  1.2411 -0.0491  0.6816
  105MOL    H1139739   4.079   5.110   7.306 -2.8672 -0.8557 -0.7625
  105MOL    H1239740   4.354   5.048   7.318 -0.2341  0.3098 -1.8676
  105MOL    H1339741   4.250   5.009   7.447  1.6138  0.1812  0.1276
  105MOL    H1439742   4.384   4.804   7.336  2.0830  3.5580 -1.6848
  105MOL    H1539743   4.217   4.791   7.374 -1.1371  1.6129 -0.4976
  105MOL    H1639744   4.196   4.720   7.163 -2.6186 -0.4500  2.4259
  105MOL    H1739745   4.293   4.842   7.096 -0.9227  1.1821  0.2385
  105MOL    H1839746   3.853   4.990   6.920 -1.6850 -0.7114  0.6080
  105MOL    H1939747   3.828   4.922   7.074 -0.2434  0.1337 -1.2089
  105MOL    H2039748   4.043   4.845   6.964 -1.2572  0.3108 -0.3981
  105MOL    C2139749   3.862   5.133   7.076 -0.6138  0.0164 -0.8686
  105MOL    C2239750   3.915   5.234   6.976  0.8250  1.5057  0.1336
  105MOL    C2339751   3.981   5.361   7.043 -0.7437  0.3936 -0.1634
  105MOL    C2439752   3.934   5.479   6.956 -0.1727 -0.4387  0.3194
  105MOL    C2539753   3.872   5.425   6.832  0.1796  0.5509 -0.5873
  105MOL    C2639754   3.809   5.289   6.873  0.1220 -0.2769 -0.2227
  105MOL    C2739755   3.715   5.158   7.123 -0.3913  0.2111  0.7998
  105MOL    H2839756   3.918   5.142   7.169 -1.2914 -2.7904 -0.1335
  105MOL    H2939757   3.989   5.188   6.911 -2.5844 -3.0373 -0.7650
  105MOL    H3039758   4.087   5.349   7.063 -1.0310 -1.7568  0.1678
  105MOL    H3139759   3.920   5.377   7.131  0.7868 -1.5224  1.2870
  105MOL    H3239760   3.864   5.544   7.009 -1.1452  0.3153 -1.8316
  105MOL    H3339761   4.010   5.556   6.945  0.1060 -0.6613  0.7016
  105MOL    H3439762   3.944   5.401   6.754 -0.7524  1.4837 -1.7453
  105MOL    H3539763   3.801   5.496   6.789  0.4166  0.6363 -0.8356
  105MOL    H3639764   3.779   5.216   6.798  2.9654 -0.7124 -1.0058
  105MOL    H3739765   3.719   5.315   6.928 -0.6767  0.4400 -1.8415
  105MOL    H3839766   3.691   5.260   7.153  0.1468  0.7077 -0.4204
  105MOL    H3939767   3.656   5.140   7.034 -1.7943  0.6773  1.6108
  105MOL    C4039768   3.656   5.068   7.246 -0.1212  0.2266  0.0764
  105MOL    C4139769   3.684   5.117   7.391 -0.1878  0.3723 -0.3377
  105MOL    C4239770   3.827   5.128   7.430  0.0723 -0.2106  0.2661
  105MOL    C4339771   3.839   5.131   7.589  0.3709  0.2420  0.0650
  105MOL    C4439772   3.726   5.019   7.613  0.0263 -0.3762 -0.1242
  105MOL    C4539773   3.622   5.026   7.502 -0.1980  0.2766  0.7159
  105MOL    C4639774   3.494   5.055   7.238 -0.4598 -0.1615 -0.2303
  105MOL    H4739775   3.689   4.964   7.242  1.7838  0.8731 -1.6230
  105MOL    H4839776   3.643   5.218   7.398 -0.9548 -0.0340  1.1259
  105MOL    H4939777   3.871   5.220   7.391 -0.6667 -0.0995 -0.3124
  105MOL    H5039778   3.888   5.044   7.398 -0.2768 -0.0157 -0.9339
  105MOL    H5139779   3.799   5.226   7.625  0.2673  0.8226 -1.5565
  105MOL    H5239780   3.938   5.111   7.630  0.2211  0.5538  0.5837
  105MOL    H5339781   3.778   4.926   7.590  1.9483  0.0962  2.0634
  105MOL    H5439782   3.697   5.017   0.028  1.3716  1.7882  0.3361
  105MOL    H5539783   3.605   4.921   7.481 -0.8994  0.4611  0.3388
  105MOL    H5639784   3.534   5.058   7.558 -0.0680 -0.3257  1.2711
  105MOL    H5739785   3.464   5.007   7.331  0.0953  0.5468  0.3300
  105MOL    H5839786   3.465   5.161   7.237 -0.0989 -0.0423  1.0658
  105MOL    C5939787   3.436   4.981   7.113  0.7223 -0.4247  0.3217
  105MOL    C6039788   3.460   4.832   7.142 -0.6438 -0.0338 -0.2162
  105MOL    C6139789   3.518   4.758   7.020 -0.9018 -0.1573  0.7458
  105MOL    C6239790   3.450   4.627   7.024  0.1002  0.4972 -0.8702
  105MOL    C6339791   3.317   4.645   7.098  0.1715  0.1177  0.6852
  105MOL    C6439792   3.341   4.744   7.201 -0.0697 -0.2922  0.4836
  105MOL    C6539793   3.288   5.016   7.093 -0.5834 -0.0304 -0.1068
  105MOL    H6639794   3.487   5.010   7.022  1.8676 -3.4323 -0.0651
  105MOL    H6739795   3.538   4.829   7.219  0.9584  0.4627 -1.7911
  105MOL    H6839796   3.627   4.750   7.021 -0.7445  1.8584  1.1714
  105MOL    H6939797   3.491   4.800   6.923  1.4184  0.7941  0.4759
  105MOL    H7039798   3.510   4.557   7.083 -0.7182  1.7245  1.4689
  105MOL    H7139799   3.428   4.592   6.923 -1.6106 -2.4626  0.4596
  105MOL    H7239800   3.273   4.556   7.143  1.9383 -2.2771 -2.2051
  105MOL    H7339801   3.246   4.684   7.025  1.2636  1.4101  0.2829
  105MOL    H7439802   3.251   4.801   7.222  0.2056  0.4301 -0.2655
  105MOL    H7539803   3.370   4.704   7.298  1.4918 -0.6685 -0.1142
  105MOL    H7639804   3.240   5.014   7.191  0.2114 -1.1354  0.2706
  105MOL    H7739805   3.238   4.928   7.053 -1.3309 -0.5156  1.8188
  105MOL    C7839806   3.239   5.136   7.009 -1.2323  0.4239  0.2093
  105MOL    C7939807   3.084   5.141   6.999 -0.0703 -0.3790 -0.2741
  105MOL    C8039808   3.004   5.165   7.133 -0.2261 -0.3690 -0.1083
  105MOL    C8139809   2.905   5.045   7.142 -0.3904 -0.2025 -0.6655
  105MOL    C8239810   2.949   4.940   7.044 -0.3891  0.6268 -0.2702
  105MOL    C8339811   3.016   5.015   6.937 -0.1713 -0.2688  0.1881
  105MOL    C8439812   3.304   5.265   7.061  0.4424 -0.7992 -0.3147
  105MOL    H8539813   3.271   5.116   6.907 -3.5366  0.3766 -0.5420
  105MOL    H8639814   3.059   5.226   6.936  0.3117  0.5680  0.8432
  105MOL    H8739815   2.929   5.243   7.124  0.9933  1.2190  2.8878
  105MOL    H8839816   3.066   5.173   7.222 -1.4712 -0.9225  0.8181
  105MOL    H8939817   2.805   5.081   7.117 -0.4221  2.1502  2.4604
  105MOL    H9039818   2.901   5.006   7.244  0.4499 -1.5794 -1.1589
  105MOL    H9139819   3.017   4.879   7.103  1.7358 -0.8445 -4.1108
  105MOL    H9239820   2.868   4.877   7.007  0.3173  0.8064 -2.1265
  105MOL    H9339821   3.088   4.939   6.908  1.5377  1.8143 -1.1141
  105MOL    H9439822   2.963   5.044   6.846  2.5511 -1.7632 -1.9400
  105MOL    H9539823   3.410   5.250   7.042  0.5160  0.1675 -0.6951
  105MOL    H9639824   3.286   5.264   7.168 -1.8421  0.8193 -0.6520
  105MOL    C9739825   3.271   5.407   7.000 -0.4197 -0.6907 -0.1578
  105MOL    C9839826   3.304   5.416   6.840 -0.6209 -0.2621 -0.1353
  105MOL    C9939827   3.228   5.519   6.755 -0.5986 -0.0553  0.1328
  105MOL   C10039828   3.322   5.554   6.634 -0.7412 -0.2601  0.2275
  105MOL   C10139829   3.447   5.464   6.650 -0.3145 -0.6298 -0.6780
  105MOL   C10239830   3.448   5.419   6.798  0.1902  0.0969  0.1255
  105MOL   C10339831   3.349   5.513   7.086  0.2428 -0.5181  0.4772
  105MOL   H10439832   3.165   5.422   7.025 -0.0069  0.6346  0.8804
  105MOL   H10539833   3.273   5.317   6.806 -0.7008 -0.4985  0.6163
  105MOL   H10639834   3.132   5.481   6.721 -0.6083 -0.3647  0.5085
  105MOL   H10739835   3.202   5.606   6.815 -0.2678  1.4683 -1.8490
  105MOL   H10839836   3.354   5.659   6.636 -1.2094 -0.0482 -2.0690
  105MOL   H10939837   3.263   5.532   6.545  1.4108 -0.3084 -1.2312
  105MOL   H11039838   3.539   5.517   6.624 -1.0760 -0.4393 -3.1304
  105MOL   H11139839   3.438   5.385   6.576 -1.5518  1.1846 -2.5233
  105MOL   H11239840   3.500   5.326   6.818  0.2927 -0.3527 -2.0700
  105MOL   H11339841   3.506   5.485   6.863  1.3645  0.2596 -1.0616
  105MOL   H11439842   3.349   5.494   7.193  0.5147 -0.8464  0.4210
  105MOL   H11539843   3.453   5.492   7.060 -0.2326 -1.5772 -0.6063
  105MOL   C11639844   3.319   5.661   7.067  0.3564 -0.3728 -0.1679
  105MOL   C11739845   3.166   5.691   7.082 -0.5638 -0.3793 -0.3571
  105MOL   C11839846   3.127   5.707   7.228 -0.0132 -0.2465  0.3912
  105MOL   C11939847   3.006   5.801   7.226  0.2345  1.0411 -0.6408
  105MOL   C12039848   3.037   5.899   7.099 -0.8225  0.2542 -1.0082
  105MOL   C12139849   3.130   5.821   7.009 -0.3140  0.4345  0.3377
  105MOL   C12239850   3.406   5.741   7.157  0.3228  0.4268 -1.2735
  105MOL   H12339851   3.343   5.685   6.964  0.8799  1.7269  0.4198
  105MOL   H12439852   3.104   5.615   7.035  0.1285 -1.7027  0.8283
  105MOL   H12539853   3.113   5.610   7.276  0.7629 -0.5305  0.0423
  105MOL   H12639854   3.192   5.765   7.294  2.2735 -1.1514 -0.9871
  105MOL   H12739855   2.989   5.863   7.314 -4.3537 -0.5661 -0.2539
  105MOL   H12839856   2.915   5.741   7.219  0.8823 -0.4456  2.3806
  105MOL   H12939857   3.081   5.989   7.140 -2.6732  0.2921  0.9673
  105MOL   H13039858   2.949   5.925   7.042  0.2334  0.8342 -2.4046
  105MOL   H13139859   3.091   5.803   6.909  0.0919  0.8719  0.0951
  105MOL   H13239860   3.217   5.886   7.005 -1.0723  1.3722 -1.5183
  105MOL   H13339861   3.388   5.707   7.259  0.9754  0.4455 -1.1487
  105MOL   H13439862   3.372   5.845   7.165  0.8491  0.4484  1.0621
  105MOL   C13539863   3.554   5.732   7.120  0.3720 -0.2771 -0.7106
  105MOL   C13639864   3.646   5.675   7.237 -0.0443 -1.1916  1.0368
  105MOL   C13739865   3.614   5.545   7.307  0.2125 -0.0782 -0.2059
  105MOL   C13839866   3.706   5.543   7.436 -0.2332  0.2673  1.2158
  105MOL   C13939867   3.698   5.687   7.469 -0.1204 -0.0701 -0.5960
  105MOL   C14039868   3.665   5.771   7.347 -0.3350  0.2131 -1.0935
  105MOL   C14139869   3.590   5.866   7.059  0.3968  0.7636 -0.4692
  105MOL   H14239870   3.560   5.669   7.031 -0.0613 -0.4734 -0.6043
  105MOL   H14339871   3.748   5.665   7.202  0.1991 -0.4017  1.5120
  105MOL   H14439872   3.507   5.540   7.326  0.0258 -0.4466 -1.3303
  105MOL   H14539873   3.630   5.457   7.245 -0.5997 -0.2241 -0.2077
  105MOL   H14639874   3.807   5.514   7.407 -0.9460  1.6467 -2.9720
  105MOL   H14739875   3.664   5.480   7.514 -1.0060 -0.3001  0.3478
  105MOL   H14839876   3.794   5.725   7.505 -0.3802  0.8923 -0.8996
  105MOL   H14939877   3.626   5.715   7.546 -0.2062 -1.6695 -0.0875
  105MOL   H15039878   3.569   5.819   7.364 -0.7847 -1.3411  0.9181
  105MOL   H15139879   3.730   5.857   7.333  1.6796 -1.0392  0.2465
  105MOL   H15239880   3.581   5.942   7.136 -2.8959  0.6072 -0.6180
  105MOL   H15339881   3.509   5.894   6.992  0.0785  0.2791 -0.2899
  105MOL   C15439882   3.728   5.883   6.985 -0.6006 -0.3307 -0.2358
  105MOL   C15539883   3.752   5.793   6.866  0.3995 -0.8481  0.0451
  105MOL   C15639884   3.889   5.813   6.789  0.0359  0.0312  0.4023
  105MOL   C15739885   3.862   5.778   6.647  1.1638 -0.5410  0.1747
  105MOL   C15839886   3.729   5.842   6.623 -0.2501  0.4012 -0.0181
  105MOL   C15939887   3.646   5.823   6.754  0.1407  0.3395 -0.0106
  105MOL   C16039888   3.759   6.035   6.958 -1.0490  0.3557 -0.4065
  105MOL   H16139889   3.810   5.849   7.048 -0.0051 -0.5001 -1.0895
  105MOL   H16239890   3.746   5.689   6.900  1.6540 -0.7578  0.5568
  105MOL   H16339891   3.920   5.917   6.795 -0.6539  0.1668  1.7720
  105MOL   H16439892   3.967   5.750   6.832 -0.1579  1.1828  2.4648
  105MOL   H16539893   3.945   5.812   6.585  0.6390 -1.5469 -1.1038
  105MOL   H16639894   3.851   5.670   6.636  1.7810 -0.6642  0.7905
  105MOL   H16739895   3.679   5.791   6.541  2.1632  2.5056 -2.9040
  105MOL   H16839896   3.735   5.950   6.613 -1.7455  0.4957 -0.0420
  105MOL   H16939897   3.573   5.743   6.738 -1.3756  1.2071  2.3083
  105MOL   H17039898   3.592   5.917   6.766  0.3773  0.4689  0.0363
  105MOL   H17139899   3.672   6.091   6.992 -1.3695  0.7469 -1.8376
  105MOL   H17239900   3.766   6.045   6.850  0.8648 -2.7208 -0.6317
  105MOL   C17339901   3.881   6.095   7.031  0.2613 -0.1364  0.2255
  105MOL   C17439902   3.874   6.083   7.188  0.5046  0.4625  0.2600
  105MOL   C17539903   3.762   6.171   7.252 -0.2458 -0.1800  0.4736
  105MOL   C17639904   3.819   6.241   7.373  1.3147 -0.0251 -0.1359
  105MOL   C17739905   3.967   6.255   7.352  0.1312  0.4834  0.5558
  105MOL   C17839906   4.002   6.134   7.266  0.5416 -0.2965  0.2637
  105MOL   C17939907   3.898   6.244   6.993 -0.3885  0.2368  0.5439
  105MOL   H18039908   3.964   6.036   6.992 -0.2077  0.5849 -1.9092
  105MOL   H18139909   3.853   5.977   7.205  2.3116 -0.2195 -1.5673
  105MOL   H18239910   3.680   6.111   7.293 -0.0090 -0.2358  0.8762
  105MOL   H18339911   3.710   6.247   7.194  0.5397  0.4010  0.5145
  105MOL   H18439912   3.765   6.335   7.385  0.7251 -0.4150  0.3155
  105MOL   H18539913   3.794   6.182   7.461  0.1086 -0.3777 -0.7165
  105MOL   H18639914   4.021   6.235   7.445  0.6512  2.3545  0.6958
  105MOL   H18739915   3.998   6.350   7.308  1.0797  0.3247  0.8836
  105MOL   H18839916   4.077   6.160   7.190 -2.2048  0.1370 -2.4013
  105MOL   H18939917   4.046   6.054   7.325 -1.0825 -0.3669  1.4102
  105MOL   H19039918   3.798   6.282   7.012 -0.2557 -0.0209  1.8461
  105MOL   H19139919   3.960   6.301   7.063  0.9711  0.9850 -1.2167
  105MOL   C19239920   3.947   6.289   6.853  0.9188 -0.2307 -0.6430
  105MOL   C19339921   4.108   6.305   6.851 -0.0994  0.2536 -0.6368
  105MOL   C19439922   4.172   6.339   6.715 -0.1532  0.1929  0.0213
  105MOL   C19539923   4.320   6.293   6.740 -0.1137  0.4157  0.2641
  105MOL   C19639924   4.312   6.162   6.816  0.1252 -0.8719 -0.7255
  105MOL   C19739925   4.175   6.161   6.885  0.6242  0.0505  0.2865
  105MOL   C19839926   3.884   6.426   6.807  0.0742  0.7634  0.1986
  105MOL   H19939927   3.917   6.207   6.789  0.5191 -1.1050  0.6473
  105MOL   H20039928   4.140   6.375   6.928  1.6268 -0.1556 -0.9651
  105MOL   H20139929   4.159   6.445   6.693  0.2142  0.6200  1.7610
  105MOL   H20239930   4.125   6.281   6.635  1.4329 -0.0189 -0.7887
  105MOL   H20339931   4.388   6.290   6.655 -1.2509 -1.6327 -0.5996
  105MOL   H20439932   4.365   6.364   6.810 -1.0600 -0.4497  1.7890
  105MOL   H20539933   4.395   6.154   6.886 -0.9977  1.0383  0.8784
  105MOL   H20639934   4.324   6.077   6.749 -1.9493 -2.0235  0.3050
  105MOL   H20739935   4.193   6.139   6.990  1.4511  0.1598  0.1734
  105MOL   H20839936   4.113   6.086   6.837  0.4153  1.4837 -1.7668
  105MOL   H20939937   3.804   6.454   6.875  0.3004 -0.0780  0.8270
  105MOL   H21039938   3.959   6.505   6.811  0.9517  0.1197 -2.5694
  105MOL   C21139939   3.820   6.430   6.663 -0.1550  0.4892  0.2641
  105MOL   C21239940   3.711   6.318   6.641 -0.1113  0.0241  0.0012
  105MOL   C21339941   3.598   6.321   6.736 -0.2232  0.3866  0.8923
  105MOL   C21439942   3.493   6.239   6.661  0.6598  0.2156 -0.5188
  105MOL   C21539943   3.514   6.259   6.513  0.1066  0.5579  0.9153
  105MOL   C21639944   3.653   6.324   6.498 -0.0705  0.0692 -0.2344
  105MOL   C21739945   3.765   6.571   6.641 -0.0261 -0.1065  0.7833
  105MOL   H21839946   3.907   6.409   6.601  1.0476  1.0000  1.7314
  105MOL   H21939947   3.756   6.219   6.649 -0.1001  0.0653  0.4552
  105MOL   H22039948   3.619   6.276   6.833  0.2244 -1.0033  0.1583
  105MOL   H22139949   3.554   6.419   6.757 -2.3317 -0.9266  2.8338
  105MOL   H22239950   3.514   6.137   6.695 -0.7657 -0.1932 -0.8267
  105MOL   H22339951   3.388   6.261   6.679  0.5433 -0.3748 -0.4664
  105MOL   H22439952   3.429   6.316   6.476 -0.0811  0.9760  1.9749
  105MOL   H22539953   3.524   6.169   6.452 -0.0989  0.8633  0.4284
  105MOL   H22639954   3.725   6.284   6.427 -0.9451 -0.0671 -1.0719
  105MOL   H22739955   3.640   6.429   6.472  1.2602  0.3103  0.0552
  105MOL   H22839956   3.806   6.633   6.721  2.3107 -0.3361 -0.2013
  105MOL   H22939957   3.656   6.575   6.647 -0.1123 -1.2918  0.1468
  105MOL   C23039958   3.799   6.649   6.502 -0.2621  0.3389  0.0207
  105MOL   C23139959   3.950   6.677   6.468 -0.3527  0.1423 -0.3669
  105MOL   C23239960   3.977   6.705   6.321  0.1946 -0.2860  0.0429
  105MOL   C23339961   4.119   6.757   6.309  0.2793  0.2001  0.0244
  105MOL   C23439962   4.135   6.829   6.443 -0.2414  0.3083 -0.5508
  105MOL   C23539963   4.023   6.791   6.538  0.2338 -0.3302 -0.0630
  105MOL   C23639964   3.710   6.773   6.488  0.3545  0.5576 -0.4702
  105MOL   H23739965   3.778   6.582   6.419 -0.6833 -0.8010  1.0421
  105MOL   H23839966   4.005   6.585   6.490 -0.3043  0.0391 -0.9212
  105MOL   H23939967   3.970   6.610   6.268  1.2644 -0.8134  0.8241
  105MOL   H24039968   3.910   6.779   6.278 -1.4978 -1.0229  1.3398
  105MOL   H24139969   4.197   6.681   6.305  0.7421  0.6954 -0.4734
  105MOL   H24239970   4.147   6.820   6.224 -1.3008  0.7313 -0.1140
  105MOL   H24339971   4.150   6.936   6.432 -0.2145  0.4079  0.3981
  105MOL   H24439972   4.232   6.804   6.488  1.2564  0.0818 -3.7414
  105MOL   H24539973   3.958   6.876   6.556  0.7454  0.2563 -0.9298
  105MOL   H24639974   4.059   6.766   6.637 -1.5498  1.3068  1.0323
  105MOL   H24739975   3.743   6.855   6.425  1.0723 -0.6564 -1.6997
  105MOL   H24839976   3.724   6.831   6.580 -0.5212  0.1486 -0.0764
  105MOL   C24939977   3.561   6.743   6.465  0.2570  0.6794 -0.0469
  105MOL   C25039978   3.514   6.777   6.324  0.1417  0.1765  0.7584
  105MOL   C25139979   3.588   6.723   6.195  0.9174 -0.5582 -0.2943
  105MOL   C25239980   3.601   6.844   6.107 -0.2887 -0.4339 -0.0289
  105MOL   C25339981   3.494   6.942   6.152  0.9074 -0.6920 -0.1732
  105MOL   C25439982   3.488   6.929   6.304 -0.1891 -0.0880 -0.0052
  105MOL   C25539983   3.479   6.803   6.584  0.0193  0.6858  0.5025
  105MOL   H25639984   3.543   6.636   6.464 -1.5421  0.9494  1.6526
  105MOL   H25739985   3.418   6.729   6.306 -1.1115  3.8544 -3.2900
  105MOL   H25839986   3.536   6.640   6.148 -0.3722  0.1430 -0.1457
  105MOL   H25939987   3.689   6.690   6.217  1.1967  0.5494  0.1294
  105MOL   H26039988   3.608   6.822   6.001  0.6607  0.9753 -0.2803
  105MOL   H26139989   3.696   6.891   6.134 -0.7123 -0.0662  0.8404
  105MOL   H26239990   3.404   6.903   6.105 -0.2834 -0.4819  1.8812
  105MOL   H26339991   3.515   7.042   6.113 -0.8801  0.5629  1.9516
  105MOL   H26439992   3.388   6.957   6.339 -0.2665  0.0432 -0.3267
  105MOL   H26539993   3.559   6.998   6.350  1.3968 -2.6086  1.3813
  105MOL   H26639994   3.524   6.770   6.678 -0.5112  1.2159  0.9529
  105MOL   H26739995   3.506   6.909   6.581  0.3185  0.5440 -2.5683
  105MOL   C26839996   3.320   6.779   6.574 -0.0573  0.1913  0.4133
  105MOL   C26939997   3.259   6.839   6.702 -0.4181 -0.2879  0.4061
  105MOL   C27039998   3.153   6.951   6.672 -0.0208 -0.4520  0.1170
  105MOL   C27139999   3.113   7.012   6.807  1.0330  0.5748  0.1202
  105MOL   C27240000   3.234   6.986   6.897 -0.9286  0.0448 -0.0007
  105MOL   C27340001   3.339   6.905   6.813 -0.1523 -0.1568  0.8091
  105MOL   C27440002   3.282   6.634   6.544 -0.2263  0.8057 -0.4713
  105MOL   H27540003   3.278   6.830   6.487  2.4213 -0.9116 -1.4744
  105MOL   H27640004   3.205   6.758   6.752 -0.6914 -0.9581 -0.9721
  105MOL   H27740005   3.193   7.031   6.609 -0.4447 -1.8929 -2.0446
  105MOL   H27840006   3.061   6.913   6.626  0.4889 -2.2981  0.5817
  105MOL   H27940007   3.102   7.120   6.802 -0.3095  0.5371  2.0486
  105MOL   H28040008   3.025   6.966   6.850  0.5538  1.0177 -0.3760
  105MOL   H28140009   3.192   6.936   6.985 -1.3662  0.5588  0.0829
  105MOL   H28240010   3.282   7.080   6.923 -0.3641 -0.0086 -0.8357
  105MOL   H28340011   3.398   6.834   6.870 -0.4521 -1.1394 -0.0929
  105MOL   H28440012   3.399   6.985   6.770  0.6717 -0.8610  0.6348
  105MOL   H28540013   3.336   6.582   6.622  1.6187 -0.1689 -2.3654
  105MOL   H28640014   3.324   6.606   6.448  2.2314  0.3139  0.7264
  105MOL   C28740015   3.130   6.587   6.548 -0.1582 -0.2674 -0.4963
  105MOL   C28840016   3.067   6.615   6.407  0.2107 -0.2665 -0.7173
  105MOL   C28940017   2.913   6.598   6.403  0.0776  0.1433  0.4385
  105MOL   C29040018   2.870   6.656   6.273 -0.1298  0.2532 -0.0561
  105MOL   C29140019   2.955   6.775   6.248 -0.6461  0.5861  0.1276
  105MOL   C29240020   3.072   6.757   6.346  0.2506  0.2546 -0.4991
  105MOL   C29340021   3.105   6.439   6.588 -0.3500 -0.5527  0.0865
  105MOL   H29440022   3.076   6.646   6.623  0.6287  0.9784 -0.8840
  105MOL   H29540023   3.095   6.547   6.327 -2.1404 -0.9257 -0.9978
  105MOL   H29640024   2.877   6.497   6.424  1.6954 -0.5404 -0.0021
  105MOL   H29740025   2.869   6.655   6.486 -0.8000  0.1269 -0.0131
  105MOL   H29840026   2.878   6.579   6.197 -0.6344 -0.9574  1.1021
  105MOL   H29940027   2.762   6.667   6.276 -0.2584 -1.0196  0.2078
  105MOL   H30040028   2.901   6.865   6.276 -0.3669  0.5421  0.8101
  105MOL   H30140029   2.979   6.793   6.143 -0.7260  0.0085  0.0092
  105MOL   H30240030   3.057   6.834   6.421  0.2037 -0.6466  0.4349
  105MOL   H30340031   3.159   6.781   6.284  0.7859  1.2583  0.6155
  105MOL   H30440032   3.204   6.395   6.586 -0.6058 -1.2468  2.0103
  105MOL   H30540033   3.058   6.387   6.504 -0.3085 -2.4383  1.1973
  105MOL   C30640034   3.035   6.412   6.724  0.4021  0.2534 -0.6105
  105MOL   C30740035   2.974   6.267   6.733 -0.2226 -0.6977  0.1654
  105MOL   C30840036   2.856   6.233   6.640  0.4402  0.0113  0.1135
  105MOL   C30940037   2.837   6.085   6.651  0.3194  0.1581  0.1028
  105MOL   C31040038   2.979   6.025   6.668  0.4573 -0.1295 -0.0952
  105MOL   C31140039   3.071   6.151   6.706 -0.2673 -0.4755 -0.0132
  105MOL   C31240040   3.129   6.437   6.839  0.7976 -0.4185 -0.6277
  105MOL   H31340041   2.956   6.487   6.728  1.2364  1.1306 -0.4049
  105MOL   H31440042   2.931   6.249   6.832 -0.0396  0.3147  0.4350
  105MOL   H31540043   2.883   6.261   6.538 -3.5987  1.8176 -0.5190
  105MOL   H31640044   2.769   6.291   6.669  1.5933  0.5597  2.5881
  105MOL   H31740045   2.773   6.062   6.736 -0.1435  1.0719  0.0097
  105MOL   H31840046   2.782   6.052   6.562 -0.4377  0.0780  0.5949
  105MOL   H31940047   3.003   5.975   6.574  1.3134  1.1872 -0.5742
  105MOL   H32040048   2.981   5.950   6.747  0.7384 -2.6042 -2.3523
  105MOL   H32140049   3.136   6.129   6.791 -1.1153  0.8618  1.0013
  105MOL   H32240050   3.149   6.163   6.631  1.7279  0.4862  2.1678
  105MOL   H32340051   3.202   6.516   6.819  1.2873 -0.9487 -0.9303
  105MOL   H32440052   3.192   6.349   6.849  3.0012  1.2322  0.4538
  105MOL   C32540053   3.072   6.475   6.979  0.5182 -0.2896 -0.2294
  105MOL   C32640054   2.934   6.543   6.990  0.1372 -0.0944  0.4865
  105MOL   C32740055   2.799   6.482   6.959 -0.0871  0.0731 -0.3955
  105MOL   C32840056   2.711   6.603   6.947 -0.4288 -0.3064 -0.6058
  105MOL   C32940057   2.795   6.705   6.872  0.1877  0.2100  0.6697
  105MOL   C33040058   2.933   6.681   6.936 -1.0509 -0.5272 -0.6394
  105MOL   C33140059   3.176   6.544   7.072  0.5439 -0.6719 -0.3870
  105MOL   H33240060   3.053   6.378   7.024 -0.5637 -0.6500 -1.4351
  105MOL   H33340061   2.917   6.564   7.096 -0.9875 -0.9258  0.4819
  105MOL   H33440062   2.761   6.410   7.031  2.2019 -0.7423  0.0184
  105MOL   H33540063   2.803   6.428   6.864 -2.1185 -0.2798 -0.3106
  105MOL   H33640064   2.667   6.642   7.039 -1.5455  2.3935 -2.2415
  105MOL   H33740065   2.626   6.581   6.883 -0.9339  0.8604 -0.3514
  105MOL   H33840066   2.747   6.802   6.884  1.4534  0.7440  1.6024
  105MOL   H33940067   2.798   6.685   6.765 -0.9345  0.1225  0.6481
  105MOL   H34040068   2.963   6.764   6.999  2.3756 -2.2837  0.1812
  105MOL   H34140069   3.010   6.679   6.859  1.3373  1.3884  1.6098
  105MOL   H34240070   3.137   6.596   7.160 -0.5109 -2.4239  0.2090
  105MOL   H34340071   3.207   6.625   7.006 -0.7809  0.2908  0.1383
  105MOL   C34440072   3.305   6.458   7.097  0.2685  0.2770  0.0625
  105MOL   C34540073   3.279   6.329   7.175  0.3364 -0.1564 -0.0276
  105MOL   C34640074   3.204   6.350   7.308 -0.6049 -0.3396 -0.3140
  105MOL   C34740075   3.205   6.209   7.369 -0.2722 -0.4966 -0.4936
  105MOL   C34840076   3.338   6.145   7.333 -0.1254 -0.9062 -0.0182
  105MOL   C34940077   3.388   6.223   7.211  0.1761 -0.2268  0.8352
  105MOL   C35040078   3.408   6.542   7.179  0.0092 -0.0726  0.0169
  105MOL   H35140079   3.347   6.425   7.002 -0.2589  1.8711 -0.7546
  105MOL   H35240080   3.209   6.266   7.119 -1.4415 -0.6521  2.6743
  105MOL   H35340081   3.107   6.396   7.291  1.2967  2.7841 -3.4653
  105MOL   H35440082   3.259   6.412   7.379  1.0581 -0.9350 -1.0606
  105MOL   H35540083   3.199   6.205   7.477 -0.3026  2.9802 -0.2922
  105MOL   H35640084   3.122   6.152   7.326 -0.3204 -1.0518  0.3407
  105MOL   H35740085   3.321   6.038   7.327 -1.2511 -0.6937 -0.8429
  105MOL   H35840086   3.399   6.156   7.423  0.2179  0.0353 -0.3630
  105MOL   H35940087   3.484   6.269   7.235  0.9080 -0.5667 -1.3288
  105MOL   H36040088   3.418   6.157   7.130  3.1784  2.5950 -0.4759
  105MOL   H36140089   3.488   6.484   7.226  1.0477 -0.0451 -1.6569
  105MOL   H36240090   3.347   6.576   7.263 -1.8098  0.7089 -1.5994
  105MOL   C36340091   3.472   6.660   7.094 -0.4086 -0.4831 -0.3058
  105MOL   C36440092   3.562   6.745   7.187  0.0473  0.8625 -0.8281
  105MOL   C36540093   3.487   6.802   7.300  0.1526 -0.3782 -0.5140
  105MOL   C36640094   3.567   6.935   7.339  0.4543  0.1864 -0.8705
  105MOL   C36740095   3.691   6.943   7.248  0.4026 -0.2333  0.1009
  105MOL   C36840096   3.639   6.864   7.125 -0.1306  0.9344 -0.0632
  105MOL   C36940097   3.556   6.607   6.975 -0.8391  0.7087 -0.1173
  105MOL   H37040098   3.388   6.724   7.066 -0.2755 -0.3360 -0.3719
  105MOL   H37140099   3.631   6.672   7.228 -1.2300  0.2204  0.2222
  105MOL   H37240100   3.383   6.823   7.275  0.0746  0.6401  0.5863
  105MOL   H37340101   3.467   6.741   7.388 -1.4365  1.4571  0.4376
  105MOL   H37440102   3.503   7.017   7.307 -0.4174 -1.4668 -3.4863
  105MOL   H37540103   3.592   6.943   7.445 -1.5774  0.5883 -0.3993
  105MOL   H37640104   3.719   7.046   7.228 -0.9489  0.1760  0.2201
  105MOL   H37740105   3.776   6.890   7.290  0.6413  0.6912  0.7924
  105MOL   H37840106   3.714   6.852   7.047 -0.6825 -1.4419 -0.2621
  105MOL   H37940107   3.565   6.931   7.080  0.1498  1.2070 -0.1156
  105MOL   H38040108   3.648   6.572   7.022 -1.8761  0.2537  1.6027
  105MOL   H38140109   3.582   6.697   6.920 -0.2610  0.7474  0.2118
  105MOL   H38240110   3.499   6.529   6.925  0.1212 -0.2613  0.2596
  106MOL     C140111   5.312   0.077   0.997  0.0592 -0.1973  0.2710
  106MOL     C240112   5.269   7.625   0.982  0.1304  0.3811  0.2915
  106MOL     C340113   5.132   7.614   0.918 -0.3559  0.2015 -0.3614
  106MOL     C440114   5.102   7.463   0.932  0.0500  0.6465 -0.0151
  106MOL     C540115   5.161   7.415   1.063  0.4659 -0.3602  0.1180
  106MOL     C640116   5.252   7.534   1.107  0.6728 -0.8151  0.2608
  106MOL     C740117   5.319   0.157   0.861  0.3447  0.5327  0.1475
  106MOL     H840118   5.245   0.140   1.056 -0.3302 -1.6673  1.4038
  106MOL     H940119   5.337   7.579   0.910 -0.3726  0.9686 -0.5710
  106MOL    H1040120   5.062   7.676   0.974  0.7069  1.0454  0.0532
  106MOL    H1140121   5.142   7.655   0.817  1.3348 -0.2916 -0.4081
  106MOL    H1240122   4.994   7.458   0.916 -0.1799  1.7534  1.1282
  106MOL    H1340123   5.137   7.396   0.853  1.9597  0.5948  0.8617
  106MOL    H1440124   5.083   7.389   1.135 -0.3768  1.1265 -0.2329
  106MOL    H1540125   5.221   7.325   1.052 -1.6621 -2.0142  1.6177
  106MOL    H1640126   5.354   7.510   1.139  1.2249  0.5315 -0.4423
  106MOL    H1740127   5.194   7.587   1.182  0.1704 -4.8906  2.9129
  106MOL    H1840128   5.350   0.100   0.773 -0.7887  1.2231 -0.7144
  106MOL    H1940129   5.213   0.182   0.858  0.6894  1.8475 -1.5617
  106MOL    H2040130   5.409   0.061   1.042  0.1416 -2.3840 -0.6595
  106MOL    C2140131   5.400   0.292   0.865  0.6491 -0.1966 -0.6240
  106MOL    C2240132   5.555   0.267   0.890 -0.6357  0.2848  0.0464
  106MOL    C2340133   5.652   0.377   0.883  0.1824  0.1748  0.0428
  106MOL    C2440134   5.791   0.316   0.889  0.2658  0.3720  0.0012
  106MOL    C2540135   5.773   0.188   0.804  0.0063  0.3749  0.6226
  106MOL    C2640136   5.616   0.173   0.790 -0.6436 -0.4328  0.0134
  106MOL    C2740137   5.377   0.383   0.742  0.6446 -0.4743  0.0685
  106MOL    H2840138   5.358   0.342   0.951 -2.1338 -0.6029 -1.6962
  106MOL    H2940139   5.566   0.216   0.986  1.8380  0.2825 -0.2182
  106MOL    H3040140   5.639   0.447   0.966  1.1726 -0.6646  0.9291
  106MOL    H3140141   5.643   0.447   0.800 -0.3354  1.9579  1.5473
  106MOL    H3240142   5.869   0.382   0.852  0.7930  0.6926  1.6323
  106MOL    H3340143   5.811   0.295   0.994 -0.6661  1.5384  0.4261
  106MOL    H3440144   5.815   0.097   0.848  0.9736  0.6601  0.3054
  106MOL    H3540145   5.837   0.198   0.716 -0.7784 -0.8575 -0.0957
  106MOL    H3640146   5.575   0.075   0.810  0.1425 -1.1129 -1.5664
  106MOL    H3740147   5.594   0.204   0.687 -0.0251  1.2071  0.3496
  106MOL    H3840148   5.453   0.461   0.734 -0.3290  0.6191  1.2343
  106MOL    H3940149   5.392   0.321   0.654  1.1236  0.3876 -0.4590
  106MOL    C4040150   5.238   0.448   0.720 -0.2954 -0.2432  0.0290
  106MOL    C4140151   5.214   0.574   0.803 -0.2934  0.3652  0.3481
  106MOL    C4240152   5.338   0.665   0.815 -0.0151 -0.4832 -0.0323
  106MOL    C4340153   5.291   0.771   0.911 -0.0259 -0.6561  0.1847
  106MOL    C4440154   5.184   0.706   0.996 -0.9114 -0.4935 -1.0761
  106MOL    C4540155   5.167   0.566   0.945 -0.3889  0.1407 -0.0296
  106MOL    C4640156   5.191   0.457   0.575 -0.2206 -0.2250  0.3689
  106MOL    H4740157   5.181   0.369   0.768 -0.0213  0.5066  1.6214
  106MOL    H4840158   5.138   0.630   0.750  1.0902  2.1610  0.2248
  106MOL    H4940159   5.366   0.720   0.725  0.8195  1.0095  1.1208
  106MOL    H5040160   5.428   0.621   0.858  1.1945 -0.4598 -2.4635
  106MOL    H5140161   5.244   0.855   0.860 -0.0613 -0.6008  0.3077
  106MOL    H5240162   5.383   0.797   0.963 -0.3022  0.8402 -0.0612
  106MOL    H5340163   5.186   0.709   1.105 -0.5163 -1.1143 -1.0640
  106MOL    H5440164   5.096   0.763   0.965 -0.6442  0.6853  0.3006
  106MOL    H5540165   5.233   0.503   1.005 -0.8881  0.3820  0.7701
  106MOL    H5640166   5.062   0.540   0.949  0.0283 -1.4005  1.3655
  106MOL    H5740167   5.243   0.535   0.519 -1.8633 -1.7492 -3.4549
  106MOL    H5840168   5.240   0.371   0.528 -3.6798 -0.7328 -2.5801
  106MOL    C5940169   5.043   0.473   0.548 -0.4157  0.1584  0.0884
  106MOL    C6040170   5.024   0.491   0.399  0.3760 -0.2118  0.1188
  106MOL    C6140171   5.064   0.628   0.338 -0.6360 -0.1221  0.0213
  106MOL    C6240172   5.005   0.631   0.191  0.1178  0.1817 -0.1477
  106MOL    C6340173   4.872   0.556   0.211  0.4485  0.4846 -0.8656
  106MOL    C6440174   4.877   0.489   0.349 -0.7012  0.1974 -0.7369
  106MOL    C6540175   4.959   0.350   0.601 -0.2273  0.1917  0.1549
  106MOL    H6640176   5.012   0.566   0.595  0.5627  1.1059 -1.0905
  106MOL    H6740177   5.075   0.410   0.345 -2.1436 -1.1474 -0.9174
  106MOL    H6840178   5.171   0.650   0.334 -0.1059 -2.7619 -1.3724
  106MOL    H6940179   5.022   0.707   0.400  2.3286  0.6706  1.0912
  106MOL    H7040180   5.070   0.585   0.117  0.2407  0.6208 -0.3112
  106MOL    H7140181   4.992   0.734   0.158  1.2782  1.0346  1.9997
  106MOL    H7240182   4.862   0.475   0.139  0.3773 -1.8561  1.6836
  106MOL    H7340183   4.788   0.624   0.204  0.7282  0.8703 -0.4966
  106MOL    H7440184   4.810   0.546   0.414  1.2696  2.3502 -0.5424
  106MOL    H7540185   4.834   0.389   0.342  0.3629 -0.3672  0.7012
  106MOL    H7640186   5.012   0.297   0.681 -0.1883 -1.8534 -1.1688
  106MOL    H7740187   4.969   0.268   0.530 -1.7467 -2.8935  3.3229
  106MOL    C7840188   4.809   0.368   0.642 -0.0936 -0.8792  0.9527
  106MOL    C7940189   4.735   0.230   0.666  0.0311  0.4545 -0.1862
  106MOL    C8040190   4.736   0.146   0.543  0.8332  0.4480 -0.1330
  106MOL    C8140191   4.611   0.045   0.560 -0.0773 -0.1008 -0.3218
  106MOL    C8240192   4.502   0.131   0.618  0.9549  0.5516  0.0038
  106MOL    C8340193   4.583   0.249   0.684  0.3930  0.7675 -0.4360
  106MOL    C8440194   4.805   0.466   0.767  0.3101 -0.2477  0.3749
  106MOL    H8540195   4.754   0.398   0.553  0.2379 -2.8311  0.0824
  106MOL    H8640196   4.777   0.176   0.751 -0.9165 -1.4508 -0.8905
  106MOL    H8740197   4.826   0.086   0.526 -1.0625 -2.9403  1.3304
  106MOL    H8840198   4.717   0.219   0.465 -0.8122  0.3550  0.1585
  106MOL    H8940199   4.651   7.660   0.628 -0.0707 -0.3867 -0.6363
  106MOL    H9040200   4.575   7.688   0.468 -2.6307  0.7985  0.1826
  106MOL    H9140201   4.452   0.175   0.532 -2.6132 -2.1020  0.6077
  106MOL    H9240202   4.427   0.083   0.681  0.0735 -0.1847 -1.5581
  106MOL    H9340203   4.550   0.340   0.634  2.1804  0.3958 -2.3686
  106MOL    H9440204   4.560   0.251   0.791 -0.3241 -0.2803 -0.5708
  106MOL    H9540205   4.892   0.531   0.754  1.3335 -1.5403  0.6291
  106MOL    H9640206   4.827   0.405   0.855 -0.9165  0.2206  1.0197
  106MOL    C9740207   4.682   0.564   0.780 -0.5729 -0.6568  0.4415
  106MOL    C9840208   4.650   0.660   0.658  0.4299  0.4499 -0.2562
  106MOL    C9940209   4.512   0.741   0.648  0.1342  0.6593  0.3337
  106MOL   C10040210   4.539   0.886   0.603 -0.2625 -0.9318 -0.2737
  106MOL   C10140211   4.692   0.890   0.581 -0.7331  0.1578  0.0831
  106MOL   C10240212   4.762   0.765   0.633  0.6453  1.4114  0.3017
  106MOL   C10340213   4.689   0.645   0.913 -0.1607  0.3626 -0.0386
  106MOL   H10440214   4.594   0.502   0.799 -0.8866 -0.3337  0.0516
  106MOL   H10540215   4.649   0.597   0.569  0.9403  1.9934 -1.3756
  106MOL   H10640216   4.439   0.695   0.581 -0.1467  0.7648  0.5647
  106MOL   H10740217   4.460   0.743   0.744  1.9819  3.5724  1.3278
  106MOL   H10840218   4.497   0.961   0.669  1.0291  1.4766 -2.0986
  106MOL   H10940219   4.491   0.905   0.507 -0.2738  2.2470  0.3035
  106MOL   H11040220   4.734   0.986   0.610 -1.0087  0.5801 -0.8850
  106MOL   H11140221   4.705   0.877   0.473  0.0802 -0.2143  0.2223
  106MOL   H11240222   4.838   0.734   0.561 -0.6378  1.0497 -0.9163
  106MOL   H11340223   4.819   0.790   0.723 -1.3075  0.4933  1.8312
  106MOL   H11440224   4.775   0.711   0.916  1.4883 -1.6642 -1.2491
  106MOL   H11540225   4.606   0.714   0.900 -0.2959  0.1442 -0.3514
  106MOL   C11640226   4.661   0.571   1.050 -0.0138 -0.6923  0.0323
  106MOL   C11740227   4.787   0.535   1.124 -0.0345 -0.0314  0.2929
  106MOL   C11840228   4.858   0.647   1.200  0.5294 -0.4412 -0.8000
  106MOL   C11940229   4.947   0.578   1.306 -0.5607 -0.1412  0.3782
  106MOL   C12040230   4.910   0.433   1.302  0.1448  0.1085  0.4779
  106MOL   C12140231   4.782   0.418   1.221 -0.2195  1.0477 -0.3269
  106MOL   C12240232   4.548   0.645   1.136 -0.5542  0.1595  0.0152
  106MOL   H12340233   4.613   0.474   1.038  0.4065 -0.5436 -3.2237
  106MOL   H12440234   4.854   0.491   1.050 -0.8743 -1.4871  0.3856
  106MOL   H12540235   4.915   0.721   1.144 -0.7335  0.7976 -0.4834
  106MOL   H12640236   4.777   0.704   1.246 -2.3486 -2.3956 -3.2842
  106MOL   H12740237   4.943   0.616   1.408 -1.7542 -2.3987  1.2046
  106MOL   H12840238   5.053   0.593   1.286 -0.4598  0.6680  1.4614
  106MOL   H12940239   4.894   0.389   1.400 -0.7398 -0.2328  0.1864
  106MOL   H13040240   4.982   0.371   1.250 -1.0298 -0.3063 -0.6857
  106MOL   H13140241   4.772   0.319   1.176  1.6631  0.3619  0.6664
  106MOL   H13240242   4.695   0.436   1.285 -0.3126  1.5751 -0.6024
  106MOL   H13340243   4.577   0.748   1.157  2.0975 -0.5839  0.2251
  106MOL   H13440244   4.549   0.598   1.234 -1.5135  1.0809  0.4689
  106MOL   C13540245   4.406   0.617   1.077  0.3361 -0.3624 -0.2228
  106MOL   C13640246   4.333   0.744   1.027 -0.1301 -0.2208 -0.7747
  106MOL   C13740247   4.276   0.832   1.137 -0.0463 -0.7751  0.1544
  106MOL   C13840248   4.152   0.910   1.077  0.2095  0.4233 -0.4781
  106MOL   C13940249   4.134   0.847   0.932 -0.4159  0.1671  0.9237
  106MOL   C14040250   4.213   0.716   0.940  0.1541 -0.2174  0.3636
  106MOL   C14140251   4.328   0.535   1.176  0.0114  0.1791  0.2891
  106MOL   H14240252   4.417   0.553   0.990 -0.3880  0.5590 -1.0084
  106MOL   H14340253   4.411   0.810   0.991 -0.3052  0.4458  0.0593
  106MOL   H14440254   4.255   0.781   1.231  2.1871 -0.3763  0.8973
  106MOL   H14540255   4.350   0.911   1.149  0.8355 -1.5513 -0.0638
  106MOL   H14640256   4.156   1.018   1.085  0.9850  0.3865 -0.3598
  106MOL   H14740257   4.071   0.893   1.148  0.8923  1.3182  0.5276
  106MOL   H14840258   4.174   0.909   0.852  0.1298  0.5523  1.4939
  106MOL   H14940259   4.033   0.811   0.909  0.0321 -0.5783  0.1222
  106MOL   H15040260   4.152   0.639   0.987 -0.7256  0.7408  0.7945
  106MOL   H15140261   4.239   0.691   0.837 -0.9298  0.8695 -0.1845
  106MOL   H15240262   4.226   0.517   1.142  0.8005  0.9128 -2.5094
  106MOL   H15340263   4.325   0.591   1.270 -0.8005 -2.1734  1.7260
  106MOL   C15440264   4.381   0.390   1.206  0.2619  0.6053  1.1066
  106MOL   C15540265   4.353   0.343   1.354  0.6689  0.3812 -0.3628
  106MOL   C15640266   4.198   0.349   1.384 -0.3159 -0.4023 -0.1182
  106MOL   C15740267   4.204   0.369   1.543  0.1165  0.1446  0.3983
  106MOL   C15840268   4.325   0.457   1.570  0.0802  0.0536 -0.6258
  106MOL   C15940269   4.431   0.430   1.459 -0.3710  0.7687  0.2812
  106MOL   C16040270   4.333   0.293   1.092 -0.1323  0.6777  1.0812
  106MOL   H16140271   4.488   0.398   1.189 -0.0664  0.8822 -1.0619
  106MOL   H16240272   4.381   0.239   1.370 -0.7029  0.0984  0.2068
  106MOL   H16340273   4.161   0.441   1.337  1.8437  0.2063 -0.6587
  106MOL   H16440274   4.133   0.265   1.358 -0.7823 -0.2517  0.5497
  106MOL   H16540275   4.123   0.410   1.603 -0.3386 -1.6163  0.9823
  106MOL   H16640276   4.224   0.269   1.580  2.4459  0.4145 -0.0638
  106MOL   H16740277   4.367   0.430   1.666  0.4530  1.1912 -0.4639
  106MOL   H16840278   4.301   0.564   1.574  1.0617  0.2523 -0.0174
  106MOL   H16940279   4.508   0.365   1.501 -2.0069 -1.6609 -0.3768
  106MOL   H17040280   4.467   0.523   1.416  0.9113 -0.3467 -1.1119
  106MOL   H17140281   4.381   0.327   1.000  2.1084 -1.3506  1.4343
  106MOL   H17240282   4.226   0.310   1.082 -0.4171 -1.5601 -0.0168
  106MOL   C17340283   4.371   0.136   1.121 -0.3496 -1.1726  0.8812
  106MOL   C17440284   4.520   0.114   1.154  0.3512  0.1423  0.2480
  106MOL   C17540285   4.622   0.117   1.039 -0.5511 -0.2719 -0.3453
  106MOL   C17640286   4.739   0.027   1.083 -0.4179  0.3389  0.2464
  106MOL   C17740287   4.698   7.669   1.224  0.2182  0.3056 -0.1649
  106MOL   C17840288   4.549   7.672   1.219 -0.2367  0.0472  0.3801
  106MOL   C17940289   4.324   0.039   1.008 -0.5832  0.6570  0.6385
  106MOL   H18040290   4.316   0.104   1.210 -0.8689 -1.2631  0.5302
  106MOL   H18140291   4.553   0.189   1.226 -0.3883 -0.0441  0.7803
  106MOL   H18240292   4.648   0.215   1.000 -0.3474  0.0382  0.5672
  106MOL   H18340293   4.578   0.059   0.958  0.1828  0.7261 -1.4912
  106MOL   H18440294   4.743   7.626   1.023 -0.7991  0.8445 -0.5418
  106MOL   H18540295   4.839   0.071   1.092  0.9521 -2.3391 -1.2783
  106MOL   H18640296   4.749   0.039   1.300 -0.7347 -1.4921  1.9779
  106MOL   H18740297   4.736   7.568   1.243  1.3877  0.8978  0.7254
  106MOL   H18840298   4.501   7.590   1.166  2.6066 -1.1932 -0.4058
  106MOL   H18940299   4.519   7.659   1.323 -2.5421  0.9920 -0.1320
  106MOL   H19040300   4.358   0.076   0.912 -1.2603 -1.6481 -0.5386
  106MOL   H19140301   4.374   7.632   1.020  0.0817  0.6005 -2.2429
  106MOL   C19240302   4.170   0.014   0.993 -0.6755 -0.1372 -0.2237
  106MOL   C19340303   4.100   7.651   1.120  0.0508 -0.4825  0.0411
  106MOL   C19440304   4.120   7.503   1.155  0.7603  0.1982 -0.1074
  106MOL   C19540305   3.983   7.437   1.184 -0.8406 -0.0373 -0.0120
  106MOL   C19640306   3.886   7.558   1.218 -0.4907 -0.3223 -0.5937
  106MOL   C19740307   3.941   7.655   1.112 -0.6780 -0.4288  0.1963
  106MOL   C19840308   4.144   7.605   0.877 -0.6048  0.4738  0.1822
  106MOL   H19940309   4.128   0.109   0.958 -0.3480 -0.1998 -0.7915
  106MOL   H20040310   4.126   0.015   1.211  1.2301 -0.3925 -0.3429
  106MOL   H20140311   4.191   7.502   1.239 -0.9572 -0.0163  1.3656
  106MOL   H20240312   4.175   7.448   1.078  1.0252 -1.0025  0.9166
  106MOL   H20340313   3.952   7.382   1.095  2.1648 -1.7812 -0.0295
  106MOL   H20440314   3.992   7.375   1.273  0.1618  0.8495  0.5147
  106MOL   H20540315   3.911   7.598   1.316  0.4084 -1.7894 -0.2039
  106MOL   H20640316   3.780   7.536   1.208 -0.9164  2.4601 -2.6562
  106MOL   H20740317   3.903   0.065   1.135 -2.3284 -0.7491 -1.0173
  106MOL   H20840318   3.907   7.632   1.011 -0.8527 -1.0715  0.4030
  106MOL   H20940319   4.231   7.540   0.875 -1.4201 -0.6368  0.3020
  106MOL   H21040320   4.064   7.535   0.905 -0.2479  0.0844  0.2291
  106MOL   C21140321   4.126   7.664   0.731  0.0387  0.8154 -0.5979
  106MOL   C21240322   4.140   7.555   0.618 -0.0864 -0.5349 -0.3271
  106MOL   C21340323   4.289   7.515   0.594  0.6856  0.9546 -0.0652
  106MOL   C21440324   4.282   7.372   0.548  0.7171 -0.2171 -0.4050
  106MOL   C21540325   4.168   7.311   0.636 -0.6925 -0.0697  0.4605
  106MOL   C21640326   4.068   7.417   0.647  0.6862  0.1838  0.5609
  106MOL   C21740327   3.991   0.045   0.728 -0.0923 -0.3591  0.3214
  106MOL   H21840328   4.200   0.051   0.708 -0.1511  1.1208 -0.2049
  106MOL   H21940329   4.099   7.583   0.521 -1.5386  1.3229  0.7764
  106MOL   H22040330   4.331   7.565   0.507 -1.4865  1.5112 -0.8461
  106MOL   H22140331   4.350   7.533   0.682  2.4557 -3.3631 -0.3084
  106MOL   H22240332   4.251   7.358   0.445  1.0313  0.0805 -0.5393
  106MOL   H22340333   4.377   7.323   0.567  1.2013  0.8811  0.0655
  106MOL   H22440334   4.208   7.280   0.733 -0.8740 -0.0415  0.5457
  106MOL   H22540335   4.125   7.217   0.601  2.4128 -2.5640  2.9663
  106MOL   H22640336   3.989   7.390   0.577  0.5990  1.5274  0.1320
  106MOL   H22740337   4.021   7.411   0.746 -1.3345  0.2477 -0.3727
  106MOL   H22840338   3.987   0.115   0.811  1.5687  1.9394 -1.4758
  106MOL   H22940339   3.910   7.663   0.745  0.1063 -0.3797  1.2190
  106MOL   C23040340   3.977   0.132   0.602 -0.1276  0.0219  0.2047
  106MOL   C23140341   3.997   0.282   0.643 -0.1924 -0.1209 -0.1703
  106MOL   C23240342   4.129   0.331   0.706  0.4836  0.4310 -0.3033
  106MOL   C23340343   4.144   0.478   0.680  0.6976  0.2579  0.0365
  106MOL   C23440344   4.054   0.504   0.557 -0.2436  0.9440 -0.3812
  106MOL   C23540345   3.979   0.371   0.524 -0.7329 -0.5046  0.1104
  106MOL   C23640346   3.838   0.107   0.540 -0.2548 -0.7738 -0.6306
  106MOL   H23740347   4.065   0.112   0.540 -0.0164 -1.0613  0.7112
  106MOL   H23840348   3.928   0.317   0.720  1.4440 -1.4210  1.9561
  106MOL   H23940349   4.150   0.300   0.808  3.3612  3.3903  0.0661
  106MOL   H24040350   4.204   0.282   0.645  0.8080  0.8444 -0.2403
  106MOL   H24140351   4.106   0.523   0.771 -0.6750 -0.5827 -0.1032
  106MOL   H24240352   4.246   0.513   0.664  0.0830  1.6020 -1.0232
  106MOL   H24340353   4.106   0.542   0.469  0.1701 -1.9712 -1.4315
  106MOL   H24440354   3.970   0.569   0.581 -1.7354 -0.2506 -2.1566
  106MOL   H24540355   4.028   0.323   0.439 -1.9461  0.2808 -1.0378
  106MOL   H24640356   3.875   0.384   0.496 -0.4759  0.0005 -0.6381
  106MOL   H24740357   3.814   0.171   0.455 -2.5035 -1.4575 -0.5500
  106MOL   H24840358   3.757   0.120   0.612 -1.8708  0.4221 -2.6249
  106MOL   C24940359   3.808   7.667   0.471  0.2908  0.0605 -0.9162
  106MOL   C25040360   3.879   7.650   0.343  0.3640  0.2594  0.7380
  106MOL   C25140361   3.826   0.049   0.222  0.4432  0.2738 -0.0783
  106MOL   C25240362   3.891   7.666   0.100  0.4195 -0.1328 -0.4852
  106MOL   C25340363   3.855   7.518   0.131 -0.2686  0.0689  0.0302
  106MOL   C25440364   3.873   7.505   0.282 -0.7895  0.5001  0.4712
  106MOL   C25540365   3.656   7.644   0.471 -0.1943  0.7324 -0.5271
  106MOL   H25640366   3.846   7.592   0.541  0.5959  0.8477 -0.2251
  106MOL   H25740367   3.984   7.677   0.348  0.4888  0.4030 -1.6878
  106MOL   H25840368   3.852   0.155   0.229  0.2610  0.3490 -0.5202
  106MOL   H25940369   3.718   0.039   0.218  0.3681  1.0640 -0.0790
  106MOL   H26040370   3.998   7.684   0.099  0.0134  2.5834 -0.8547
  106MOL   H26140371   3.848   0.022   0.011 -0.8700  1.3566  0.8689
  106MOL   H26240372   3.920   7.450   0.076  0.0297 -1.4869  2.2606
  106MOL   H26340373   3.752   7.501   0.101 -1.3042  3.9032  1.0844
  106MOL   H26440374   3.962   7.448   0.308 -1.1633 -0.7357 -0.8781
  106MOL   H26540375   3.790   7.451   0.327 -2.1305  1.6618 -0.5463
  106MOL   H26640376   3.605   0.039   0.426 -2.2845  0.5463  1.4345
  106MOL   H26740377   3.633   7.564   0.400  0.8948  0.5520 -0.6865
  106MOL   C26840378   3.581   7.612   0.594 -0.2570  0.7762 -0.1734
  106MOL   C26940379   3.635   7.486   0.674  0.3240 -0.1814  0.3689
  106MOL   C27040380   3.587   7.340   0.621 -0.3473 -0.6020 -0.2363
  106MOL   C27140381   3.510   7.270   0.731  0.0389 -0.4173  0.3688
  106MOL   C27240382   3.549   7.341   0.859  0.2740  0.4201 -0.4522
  106MOL   C27340383   3.582   7.487   0.821 -0.3943 -0.4541  0.8985
  106MOL   C27440384   3.425   7.600   0.552 -0.5754 -0.3331  0.5239
  106MOL   H27540385   3.572   0.007   0.662 -2.2116 -2.5941  3.9197
  106MOL   H27640386   3.744   7.481   0.682  0.1820 -1.3379  1.9828
  106MOL   H27740387   3.533   7.335   0.527 -0.7874  0.2429 -0.0353
  106MOL   H27840388   3.670   7.272   0.598 -0.2539 -0.1170 -1.3710
  106MOL   H27940389   3.404   7.292   0.719  0.0499 -1.1983 -1.3899
  106MOL   H28040390   3.524   7.162   0.738  2.8762 -0.1171 -0.0275
  106MOL   H28140391   3.649   7.310   0.892 -0.5700 -1.7540  0.1487
  106MOL   H28240392   3.479   7.328   0.941  3.2529  0.7897  2.2667
  106MOL   H28340393   3.654   7.534   0.888  1.2750 -0.2735 -1.0049
  106MOL   H28440394   3.496   7.555   0.826  0.8705  1.1461  1.2184
  106MOL   H28540395   3.366   7.563   0.636  0.5081  0.2794  1.5650
  106MOL   H28640396   3.421   7.520   0.479 -0.2198 -0.5481  0.7384
  106MOL   C28740397   3.347   0.034   0.494 -0.5946  0.6158 -0.0012
  106MOL   C28840398   3.253   7.689   0.370 -0.3452 -0.1176  0.3662
  106MOL   C28940399   3.331   7.648   0.239 -0.0756 -0.1072  0.2587
  106MOL   C29040400   3.210   7.610   0.149  0.4464 -0.1167 -0.2922
  106MOL   C29140401   3.111   7.536   0.233 -0.3655 -0.2071 -0.1877
  106MOL   C29240402   3.144   7.582   0.377  0.0102 -0.5333 -0.6023
  106MOL   C29340403   3.272   0.106   0.611  0.4464 -0.1134  1.2137
  106MOL   H29440404   3.421   0.104   0.457 -0.2353 -0.7214 -1.9014
  106MOL   H29540405   3.197   0.091   0.352  0.4142  0.4613  0.9478
  106MOL   H29640406   3.385   0.042   0.196 -0.6249 -1.1397 -2.5111
  106MOL   H29740407   3.398   7.566   0.267  2.8267  2.2360  0.3882
  106MOL   H29840408   3.170   0.015   0.113  1.0814  0.5021  0.6145
  106MOL   H29940409   3.232   7.549   0.061 -1.9115  0.3268 -1.2285
  106MOL   H30040410   3.139   7.431   0.231  2.0460  0.3124  2.2701
  106MOL   H30140411   3.008   7.554   0.202  0.6061  1.7155 -2.3810
  106MOL   H30240412   3.184   7.500   0.437  0.9649 -0.8762 -1.6948
  106MOL   H30340413   3.044   7.614   0.408  1.2448  2.4415  0.4585
  106MOL   H30440414   3.304   0.090   0.714 -1.1852 -0.5473  1.6597
  106MOL   H30540415   3.172   0.062   0.606 -0.0331  1.0757 -0.0373
  106MOL   C30640416   3.263   0.263   0.598  0.5288 -0.1322  0.3355
  106MOL   C30740417   3.152   0.323   0.683  0.2412 -0.0761 -0.4403
  106MOL   C30840418   3.010   0.294   0.623 -0.5695 -0.5932  0.5016
  106MOL   C30940419   2.910   0.267   0.738 -0.3452 -0.7111 -0.4228
  106MOL   C31040420   2.991   0.307   0.870 -0.0728  0.1095  0.1342
  106MOL   C31140421   3.139   0.299   0.829  0.6467  0.4748 -0.3837
  106MOL   C31240422   3.400   0.327   0.621  0.2740  0.1876 -0.2028
  106MOL   H31340423   3.241   0.279   0.493 -2.1059 -0.5054  0.8089
  106MOL   H31440424   3.156   0.432   0.679 -1.1408 -0.0242 -0.8652
  106MOL   H31540425   3.033   0.219   0.547  0.6963 -0.1391  0.4394
  106MOL   H31640426   2.982   0.382   0.565  1.1112  0.3940  1.1688
  106MOL   H31740427   2.817   0.320   0.719  0.8189  1.4174 -0.3780
  106MOL   H31840428   2.903   0.159   0.744  0.0057 -0.6984  0.3831
  106MOL   H31940429   2.964   0.251   0.960 -1.1816 -1.6430 -1.2384
  106MOL   H32040430   2.962   0.408   0.898 -2.5919 -0.7357  0.7219
  106MOL   H32140431   3.206   0.361   0.889  0.2471  0.6246 -0.0906
  106MOL   H32240432   3.165   0.198   0.861 -0.6706  0.7500  1.6594
  106MOL   H32340433   3.485   0.263   0.599 -0.4096  0.0074 -2.3884
  106MOL   H32440434   3.413   0.336   0.729  1.5316  2.0864 -0.4847
  106MOL   C32540435   3.413   0.464   0.545  0.2336 -0.3223 -0.1972
  106MOL   C32640436   3.451   0.443   0.396 -0.0054 -0.4176  0.1140
  106MOL   C32740437   3.593   0.376   0.368  0.1258 -0.0781 -0.1514
  106MOL   C32840438   3.640   0.440   0.238  0.3123 -0.1800  0.5083
  106MOL   C32940439   3.517   0.509   0.179 -0.0712 -0.7549  0.0485
  106MOL   C33040440   3.441   0.567   0.301 -0.1486  0.4400  0.3574
  106MOL   C33140441   3.503   0.561   0.616 -0.8996  0.6690 -1.1121
  106MOL   H33240442   3.313   0.506   0.538  0.0512 -0.9175 -1.1683
  106MOL   H33340443   3.393   0.364   0.348 -0.3192  0.6429 -1.2943
  106MOL   H33440444   3.590   0.267   0.360 -1.0651 -0.0483 -0.2124
  106MOL   H33540445   3.660   0.396   0.452 -0.5331 -0.5285  0.4977
  106MOL   H33640446   3.675   0.363   0.169 -1.4950 -1.4333  0.9581
  106MOL   H33740447   3.716   0.513   0.266  0.8505 -0.8906  0.8973
  106MOL   H33840448   3.439   0.445   0.138 -0.6579  0.1405 -0.2458
  106MOL   H33940449   3.545   0.597   0.122 -0.8909  0.0195  0.8299
  106MOL   H34040450   3.337   0.597   0.285  0.4659  2.4316 -0.1015
  106MOL   H34140451   3.493   0.652   0.345  0.4154 -0.3590  1.2328
  106MOL   H34240452   3.535   0.649   0.561  0.3782  1.0773  0.2491
  106MOL   H34340453   3.600   0.514   0.628 -0.8399  1.1345  0.4060
  106MOL   C34440454   3.452   0.605   0.760 -1.2252  0.6262 -0.1944
  106MOL   C34540455   3.391   0.747   0.771 -0.2897 -0.6952 -0.2634
  106MOL   C34640456   3.299   0.762   0.895  0.3494 -0.4281  1.0378
  106MOL   C34740457   3.153   0.796   0.842 -0.5051 -0.4097  0.6546
  106MOL   C34840458   3.173   0.868   0.712  0.1902 -0.0897 -0.7710
  106MOL   C34940459   3.289   0.785   0.653  0.2503  0.1742 -0.5964
  106MOL   C35040460   3.569   0.599   0.865  0.0810 -0.8012  0.0960
  106MOL   H35140461   3.374   0.537   0.794 -0.5635 -0.1424 -0.1924
  106MOL   H35240462   3.464   0.827   0.766 -1.5965  0.5773  0.6425
  106MOL   H35340463   3.328   0.841   0.963  0.1216 -0.3637  1.0622
  106MOL   H35440464   3.280   0.663   0.938 -0.3451 -0.4831  0.6278
  106MOL   H35540465   3.093   0.710   0.810  0.7508  0.3687 -4.1470
  106MOL   H35640466   3.094   0.858   0.909 -0.5200 -0.4681  0.6951
  106MOL   H35740467   3.214   0.968   0.724 -0.9387  0.0713  1.9106
  106MOL   H35840468   3.079   0.864   0.657  0.7575  0.3950 -1.7895
  106MOL   H35940469   3.255   0.687   0.622  1.2572  0.3520 -2.3400
  106MOL   H36040470   3.338   0.835   0.570 -2.6849  1.5584 -1.5579
  106MOL   H36140471   3.529   0.648   0.953 -2.6768 -1.5740 -0.6931
  106MOL   H36240472   3.636   0.674   0.824 -2.1159  1.2951  0.2619
  106MOL   C36340473   3.639   0.462   0.901  0.2812 -0.3057 -0.5747
  106MOL   C36440474   3.774   0.474   0.969  0.0042  0.4284  0.4242
  106MOL   C36540475   3.843   0.343   1.009 -0.1663 -0.3343  0.0129
  106MOL   C36640476   3.842   0.344   1.159  0.2771  0.0004  0.4996
  106MOL   C36740477   3.866   0.492   1.188 -0.4176 -0.2468 -0.6678
  106MOL   C36840478   3.787   0.573   1.085  0.3176 -0.2659  0.6614
  106MOL   C36940479   3.542   0.377   0.984  0.0110  0.0966 -0.6941
  106MOL   H37040480   3.655   0.405   0.810  3.1319 -0.2476 -0.1746
  106MOL   H37140481   3.824   0.515   0.881  0.9465 -1.4375  0.0509
  106MOL   H37240482   3.802   0.253   0.963 -0.4974  0.9437 -2.2710
  106MOL   H37340483   3.948   0.334   0.979 -0.3681 -0.1247 -0.7776
  106MOL   H37440484   3.739   0.314   1.175  0.0410  0.0439 -0.8350
  106MOL   H37540485   3.923   0.275   1.182  2.5999  1.9068 -1.5505
  106MOL   H37640486   3.841   0.512   1.293 -1.3207 -1.8012 -0.5659
  106MOL   H37740487   3.973   0.508   1.182 -0.6402  1.8977  0.5482
  106MOL   H37840488   3.834   0.665   1.049  0.5322  0.1339  1.9278
  106MOL   H37940489   3.689   0.601   1.124  1.1069  1.7744  1.2777
  106MOL   H38040490   3.565   0.270   0.980  1.4956  0.4209 -0.8164
  106MOL   H38140491   3.438   0.393   0.955  0.1252  0.3926 -0.9425
  106MOL   H38240492   3.553   0.407   1.088  0.7262 -1.4370 -0.3058
  107MOL     C140493   6.728   7.411   6.122 -0.6841 -0.6992 -0.3892
  107MOL     C240494   6.822   7.335   6.027  0.4874 -0.6264  0.0798
  107MOL     C340495   6.921   7.254   6.106 -0.2570 -0.0739  0.1177
  107MOL     C440496   7.036   7.349   6.145  0.1976  0.4736 -0.9480
  107MOL     C540497   7.058   7.423   6.021  0.0999 -0.5234  0.4771
  107MOL     C640498   6.921   7.424   5.948  0.1221  0.3120  0.0930
  107MOL     C740499   6.647   7.325   6.215  1.2414  0.7451 -0.1797
  107MOL     H840500   6.781   7.487   6.180 -0.6537 -2.0483  1.3732
  107MOL     H940501   6.761   7.274   5.959 -2.1573  0.3394  1.5139
  107MOL    H1040502   6.882   7.196   6.190 -0.5599  0.1961  0.1628
  107MOL    H1140503   6.950   7.172   6.040 -1.1903  1.0229 -1.6718
  107MOL    H1240504   7.005   7.406   6.233  1.1500 -2.0406  1.0926
  107MOL    H1340505   7.123   7.290   6.172 -0.0059  0.7007  0.2672
  107MOL    H1440506   7.095   7.525   6.037  0.2373 -0.3836 -0.6677
  107MOL    H1540507   7.132   7.380   5.953 -1.6541 -1.0923 -1.1175
  107MOL    H1640508   6.927   7.390   5.844  0.0266 -0.3825  0.3172
  107MOL    H1740509   6.876   7.523   5.941  3.2542  1.8291  0.5020
  107MOL    H1840510   6.603   7.246   6.155 -0.6467  3.0046 -1.8800
  107MOL    H1940511   6.703   7.269   6.289  0.7129 -0.8749 -0.9911
  107MOL    H2040512   6.666   7.477   6.062  0.3699  1.0281  0.3636
  107MOL    C2140513   6.543   7.413   6.289  0.5196 -0.6917  0.2453
  107MOL    C2240514   6.392   7.368   6.282 -0.1807  0.2000 -0.2726
  107MOL    C2340515   6.317   7.366   6.146 -0.0285 -0.3898  0.2198
  107MOL    C2440516   6.165   7.352   6.184  0.6552 -0.2949 -1.2541
  107MOL    C2540517   6.150   7.441   6.303 -0.7866  0.2215  0.0816
  107MOL    C2640518   6.290   7.447   6.363 -0.2034  0.2138  0.1910
  107MOL    C2740519   6.587   7.440   6.433 -0.2770 -0.5709 -0.7772
  107MOL    H2840520   6.537   7.507   6.233  0.1500 -1.5883 -1.2309
  107MOL    H2940521   6.388   7.267   6.324  0.9395 -0.1313 -0.9395
  107MOL    H3040522   6.352   7.279   6.090 -2.6247 -0.3721 -1.5389
  107MOL    H3140523   6.325   7.462   6.095 -0.3538  1.2090  3.0820
  107MOL    H3240524   6.103   7.380   6.099 -0.5780 -1.4761 -0.7481
  107MOL    H3340525   6.134   7.249   6.199 -0.3773 -0.0388 -1.6455
  107MOL    H3440526   6.071   7.405   6.370 -1.9045 -0.4539 -1.5529
  107MOL    H3540527   6.117   7.537   6.265 -0.8772 -0.3329 -1.2992
  107MOL    H3640528   6.279   7.407   6.464  0.2831  1.1089  0.6012
  107MOL    H3740529   6.323   7.550   6.378 -0.0714  0.2751 -0.5359
  107MOL    H3840530   6.503   7.485   6.486 -0.8119 -1.4448 -0.8683
  107MOL    H3940531   6.614   7.348   6.485  1.8568  0.4880  0.0322
  107MOL    C4040532   6.693   7.549   6.459  0.0417 -0.0350 -0.0687
  107MOL    C4140533   6.637   7.656   6.562  0.3220  0.4281 -0.8959
  107MOL    C4240534   6.601   7.611   6.705 -0.3469 -0.5276 -0.3294
  107MOL    C4340535   6.491   0.019   6.745  0.0825 -0.6087 -0.9541
  107MOL    C4440536   6.415   0.067   6.621  0.7394  0.2931 -0.3552
  107MOL    C4540537   6.533   0.068   6.517 -0.0052 -0.0111 -0.1445
  107MOL    C4640538   6.833   7.501   6.505  0.3889  0.6336  1.0233
  107MOL    H4740539   6.706   7.614   6.372  3.0239 -0.9703 -0.3608
  107MOL    H4840540   6.723   0.029   6.585  0.0458  1.3378 -2.3080
  107MOL    H4940541   6.686   7.608   6.772 -0.6744  2.9591  0.2942
  107MOL    H5040542   6.566   7.507   6.705 -0.1648 -0.5931  0.7049
  107MOL    H5140543   6.529   0.105   6.801  2.3731 -1.7041 -0.7804
  107MOL    H5240544   6.419   7.661   6.813  0.5008  1.5739  1.1132
  107MOL    H5340545   6.336   7.686   6.592 -0.1269  0.8789  0.5511
  107MOL    H5440546   6.365   0.163   6.630  1.6990  0.5639  2.6548
  107MOL    H5540547   6.505   0.032   6.417 -4.0238  2.5725 -0.0522
  107MOL    H5640548   6.562   0.170   6.493 -1.1634  0.3990  0.1633
  107MOL    H5740549   6.814   7.445   6.597 -0.2135  0.3446  0.7282
  107MOL    H5840550   6.859   7.420   6.437  0.3652  1.3343  0.1776
  107MOL    C5940551   6.945   7.610   6.510 -0.4988  0.6633  0.3751
  107MOL    C6040552   7.082   7.565   6.574 -0.1876 -0.7037 -0.0081
  107MOL    C6140553   7.148   7.452   6.501 -0.2723 -0.0844  0.2151
  107MOL    C6240554   7.239   7.387   6.598 -0.3175 -0.3056  0.0973
  107MOL    C6340555   7.221   7.458   6.732  0.0009  0.1001  0.0097
  107MOL    C6440556   7.081   7.518   6.720  0.1884  0.1899 -0.8982
  107MOL    C6540557   6.946   0.010   6.385  0.8541 -0.1776  0.1824
  107MOL    H6640558   6.908   7.676   6.588 -0.1840 -0.6195  1.6202
  107MOL    H6740559   7.142   7.655   6.584  0.6570 -1.1580 -0.9766
  107MOL    H6840560   7.210   7.498   6.425  0.4590 -0.4477  0.5883
  107MOL    H6940561   7.083   7.379   6.453  1.2740 -2.3205  1.4202
  107MOL    H7040562   7.341   7.391   6.561  0.6002 -2.4250  2.2536
  107MOL    H7140563   7.216   7.281   6.600  0.6686 -0.4990  2.2285
  107MOL    H7240564   7.308   7.524   6.731  0.0521  0.0348  0.2283
  107MOL    H7340565   7.227   7.396   6.821  0.9299  1.2210  0.7453
  107MOL    H7440566   7.001   7.446   6.737 -0.1097  0.7391  0.0546
  107MOL    H7540567   7.055   7.606   6.778  0.3749 -0.2394 -0.1547
  107MOL    H7640568   6.850   0.051   6.352  0.3264 -2.3898 -1.1305
  107MOL    H7740569   6.984   7.642   6.301 -1.7987 -1.5625 -0.1314
  107MOL    C7840570   7.030   0.140   6.394 -0.2360  0.3520  0.2799
  107MOL    C7940571   7.071   0.184   6.247 -0.5411 -0.1375  0.8997
  107MOL    C8040572   6.955   0.185   6.149 -0.1304 -0.2364  0.4013
  107MOL    C8140573   7.039   0.223   6.030 -0.5450  0.6068  0.0258
  107MOL    C8240574   7.159   0.127   6.029  0.9163 -0.1006 -0.5126
  107MOL    C8340575   7.172   0.093   6.181  0.1063  0.4203  0.1344
  107MOL    C8440576   6.964   0.251   6.478 -0.0196  0.1262 -0.0619
  107MOL    H8540577   7.124   0.106   6.439 -0.6714  0.5840  1.3674
  107MOL    H8640578   7.118   0.282   6.253 -0.4430 -0.1193 -0.1484
  107MOL    H8740579   6.874   0.255   6.174 -0.0249  0.9688 -2.3801
  107MOL    H8840580   6.909   0.087   6.135 -0.5770  0.0279 -0.0147
  107MOL    H8940581   7.054   0.331   6.025  0.8009  0.4788  0.9857
  107MOL    H9040582   6.990   0.211   5.933  2.3551  1.6262 -1.6229
  107MOL    H9140583   7.134   0.042   5.965  0.3629 -1.3483  1.3206
  107MOL    H9240584   7.248   0.184   6.004  0.8845  0.0730 -0.2251
  107MOL    H9340585   7.162   7.675   6.196  0.9511  0.1366 -1.2648
  107MOL    H9440586   7.273   0.114   6.216 -0.6107  2.9022  0.7923
  107MOL    H9540587   6.857   0.260   6.462 -0.0898 -0.3900  0.1379
  107MOL    H9640588   6.978   0.344   6.423  0.1474 -1.3365 -2.5375
  107MOL    C9740589   7.001   0.261   6.631 -1.0813 -0.3467 -0.2047
  107MOL    C9840590   6.903   0.336   6.726  0.1129  0.8383 -0.3901
  107MOL    C9940591   6.877   0.483   6.699 -0.4641  0.2837  0.1367
  107MOL   C10040592   6.746   0.515   6.782 -0.9773  0.0873 -0.2153
  107MOL   C10140593   6.682   0.378   6.810  0.4049 -0.1694  0.1729
  107MOL   C10240594   6.764   0.268   6.738  0.3319 -0.1818 -0.8393
  107MOL   C10340595   7.148   0.312   6.654  0.2171  0.5880  0.0684
  107MOL   H10440596   7.004   0.155   6.657  0.2597 -0.2275  0.1590
  107MOL   H10540597   6.935   0.327   6.830 -1.1284  0.2789 -0.0521
  107MOL   H10640598   6.958   0.553   6.723  0.1518 -0.3440 -0.1024
  107MOL   H10740599   6.854   0.522   6.600  1.5548  2.3225  0.4250
  107MOL   H10840600   6.691   0.590   6.725 -0.3640  0.8152  0.1468
  107MOL   H10940601   6.778   0.571   6.870  0.0132  1.6730 -1.5487
  107MOL   H11040602   6.577   0.356   6.794  0.0907  1.1442  0.3682
  107MOL   H11140603   6.697   0.362   6.917  0.5688 -0.5987  0.0841
  107MOL   H11240604   6.780   0.174   6.790  3.0921  1.4050  1.3281
  107MOL   H11340605   6.735   0.241   6.637  0.8964 -0.0535 -1.0366
  107MOL   H11440606   7.203   0.229   6.610 -1.2251 -0.0888 -0.5042
  107MOL   H11540607   7.155   0.402   6.593  2.4692  0.2358 -0.2193
  107MOL   C11640608   7.211   0.330   6.803 -1.0762 -0.2894 -0.5138
  107MOL   C11740609   7.198   0.205   6.893  0.3768 -0.0032  0.1364
  107MOL   C11840610   7.319   0.113   6.879 -0.0666  0.4265  0.4796
  107MOL   C11940611   7.299   0.008   6.980  0.5802  0.4908 -0.3979
  107MOL   C12040612   7.229   0.082   7.094 -0.2319  0.1586  0.1213
  107MOL   C12140613   7.195   0.218   7.043 -0.0872  0.4434  0.0211
  107MOL   C12240614   7.340   0.412   6.795  0.3585  0.4930 -0.7996
  107MOL   H12340615   7.141   0.396   6.855 -0.8750  1.0494 -1.9098
  107MOL   H12440616   7.117   0.145   6.852 -1.1931  2.8572 -1.0933
  107MOL   H12540617   7.314   0.071   6.779 -1.4446  2.2510 -0.2296
  107MOL   H12640618   7.407   0.173   6.901 -0.3809  1.2974 -0.6388
  107MOL   H12740619   7.396   7.663   7.014  0.4375 -0.6558 -1.1201
  107MOL   H12840620   7.238   7.610   6.956  0.8766  0.3140 -0.5064
  107MOL   H12940621   7.286   0.099   7.185 -0.6437  3.4965 -0.2040
  107MOL   H13040622   7.131   0.041   7.120 -1.0600  0.9865 -1.6206
  107MOL   H13140623   7.103   0.255   7.089  0.5301 -0.7179  2.2754
  107MOL   H13240624   7.270   0.288   7.080  0.5911 -0.3416  0.1411
  107MOL   H13340625   7.406   0.356   6.729  1.1799 -1.4810  1.6281
  107MOL   H13440626   7.399   0.397   6.886 -1.1453 -2.0696 -0.1710
  107MOL   C13540627   7.338   0.566   6.760 -0.9787 -0.3771 -0.0644
  107MOL   C13640628   7.470   0.609   6.689 -0.0804 -0.3674  0.3896
  107MOL   C13740629   7.520   0.528   6.567  0.5591 -0.1887  0.0488
  107MOL   C13840630   7.674   0.530   6.562 -0.4814  0.0964 -0.0404
  107MOL   C13940631   0.021   0.619   6.677 -0.0651  0.3659 -0.4550
  107MOL   C14040632   7.594   0.613   6.777  1.0352  0.2717 -0.5167
  107MOL   C14140633   7.314   0.656   6.885  0.3313 -0.1206 -0.1395
  107MOL   H14240634   7.262   0.592   6.686 -2.4265  4.2937  2.8184
  107MOL   H14340635   7.458   0.708   6.644  0.1298 -0.9400 -0.9361
  107MOL   H14440636   7.486   0.425   6.564  1.7049 -0.5803  0.0807
  107MOL   H14540637   7.494   0.571   6.470  0.8744 -1.4258 -0.5913
  107MOL   H14640638   0.031   0.567   6.471  1.9435  1.0030  1.5149
  107MOL   H14740639   0.024   0.429   6.578  0.8783  0.2500 -2.1957
  107MOL   H14840640   0.024   0.723   6.647  0.7729  1.4374  3.0986
  107MOL   H14940641   0.121   0.594   6.713  0.7197  2.1518 -1.3630
  107MOL   H15040642   7.596   0.518   6.830  0.4895  0.1531 -0.7043
  107MOL   H15140643   7.601   0.689   6.854 -0.7504 -0.0004 -0.0556
  107MOL   H15240644   7.389   0.645   6.963 -0.4631 -4.4284  0.1157
  107MOL   H15340645   7.223   0.614   6.927 -0.4852  2.1941  0.4872
  107MOL   C15440646   7.283   0.810   6.861 -0.0417  0.1217  0.2572
  107MOL   C15540647   7.142   0.824   6.821  0.2550  0.4627 -0.2667
  107MOL   C15640648   7.097   0.952   6.747  0.1973 -0.6484  0.2270
  107MOL   C15740649   6.945   0.957   6.762 -0.3941  0.1162 -0.0194
  107MOL   C15840650   6.906   0.868   6.875  0.4355  0.0244 -0.3836
  107MOL   C15940651   7.035   0.806   6.928 -0.4245 -0.3117  0.8697
  107MOL   C16040652   7.326   0.896   6.989  0.4658  0.8886  0.1884
  107MOL   H16140653   7.330   0.852   6.772  1.7890  0.0767  1.2001
  107MOL   H16240654   7.132   0.744   6.747 -1.6691 -0.8476  1.3410
  107MOL   H16340655   7.132   1.047   6.787  1.1892  0.3722 -2.8771
  107MOL   H16440656   7.136   0.971   6.647 -1.7023  1.0628 -0.2294
  107MOL   H16540657   6.914   1.060   6.780 -1.1345  0.0297 -0.7646
  107MOL   H16640658   6.897   0.921   6.671 -0.2685 -0.4093  0.1255
  107MOL   H16740659   6.833   0.793   6.843 -0.7474  1.3033 -0.7365
  107MOL   H16840660   6.863   0.922   6.960  2.8342 -1.7491  2.0599
  107MOL   H16940661   7.018   0.698   6.925 -0.9512 -0.1926 -0.6547
  107MOL   H17040662   7.060   0.838   7.030 -1.3417 -1.8053  1.5845
  107MOL   H17140663   7.303   0.834   7.076 -0.4989 -0.7525 -1.2107
  107MOL   H17240664   7.265   0.982   7.018  1.4519  1.7365 -0.2252
  107MOL   C17340665   7.478   0.940   6.992 -0.3583  0.2514 -0.1906
  107MOL   C17440666   7.526   0.939   7.139 -0.2467 -0.1275  1.0710
  107MOL   C17540667   7.671   0.977   7.153  0.0624 -0.6255 -0.5447
  107MOL   C17640668   0.012   0.947   7.296  0.1402 -0.1897  0.7457
  107MOL   C17740669   7.623   0.818   7.322  0.0839  0.0798 -0.1430
  107MOL   C17840670   7.503   0.816   7.233 -0.7996 -0.6506  1.1953
  107MOL   C17940671   7.497   1.074   6.922  0.2858 -0.8935 -0.0326
  107MOL   H18040672   7.526   0.863   6.932  0.4185 -0.0657  0.8228
  107MOL   H18140673   7.482   1.026   7.187  0.2318  0.0833  1.1305
  107MOL   H18240674   0.002   1.080   7.126  0.0116 -0.9133 -1.7438
  107MOL   H18340675   0.051   0.918   7.093  0.5262  0.1566 -0.7798
  107MOL   H18440676   0.119   0.935   7.315  0.0241  2.1845  3.1307
  107MOL   H18540677   7.659   1.024   7.360 -1.8281 -0.7386  0.1348
  107MOL   H18640678   7.613   0.796   7.428 -1.2479 -2.0632 -0.6718
  107MOL   H18740679   7.674   0.728   7.289  0.3555  0.9639 -2.1975
  107MOL   H18840680   7.494   0.722   7.179 -0.3286  0.2402 -0.4569
  107MOL   H18940681   7.406   0.819   7.283 -0.9727  2.2957  0.7692
  107MOL   H19040682   7.448   1.151   6.981  1.3518  0.4922 -0.9327
  107MOL   H19140683   7.603   1.094   6.932  0.1174  0.1840 -0.3696
  107MOL   C19240684   7.468   1.094   6.773  0.2808 -0.2111  0.0882
  107MOL   C19340685   7.558   1.005   6.690 -0.2798  0.0171 -0.0624
  107MOL   C19440686   0.019   1.033   6.699 -0.9127  0.0973 -0.0146
  107MOL   C19540687   0.085   1.027   6.562  0.5229  0.7333 -0.0750
  107MOL   C19640688   7.656   1.039   6.467  0.4553  0.2733  0.8191
  107MOL   C19740689   7.531   1.010   6.544  0.1241 -0.3300  0.6288
  107MOL   C19840690   7.464   1.250   6.735 -0.3958 -0.2610  0.0889
  107MOL   H19940691   7.366   1.058   6.755 -0.5501  1.7369  0.7810
  107MOL   H20040692   7.534   0.902   6.718  3.1653 -1.3437 -1.9294
  107MOL   H20140693   0.067   0.962   6.767 -1.4406  1.5480  1.9228
  107MOL   H20240694   0.036   1.130   6.746 -0.8251  0.3049 -0.4696
  107MOL   H20340695   0.167   1.098   6.553  1.4328 -0.2638  0.2662
  107MOL   H20440696   0.141   0.933   6.556  0.6749  0.7992  0.3609
  107MOL   H20540697   7.679   0.992   6.371  1.8841 -2.2940  2.3794
  107MOL   H20640698   7.654   1.143   6.434 -0.4800  0.3043  0.9568
  107MOL   H20740699   7.494   0.911   6.517 -2.0107  0.4103  0.7570
  107MOL   H20840700   7.448   1.076   6.517  0.7533  0.3620  0.3768
  107MOL   H20940701   7.534   1.305   6.798 -0.9724 -0.8022  1.2189
  107MOL   H21040702   7.517   1.262   6.641 -3.7699 -0.7927 -1.9800
  107MOL   C21140703   7.321   1.312   6.721  0.3889 -0.2678  0.4641
  107MOL   C21240704   7.257   1.344   6.856 -0.4330 -0.1958 -0.2823
  107MOL   C21340705   7.334   1.436   6.959  0.0946  0.1489 -0.0799
  107MOL   C21440706   7.227   1.468   7.062 -0.3612  0.9339 -0.6877
  107MOL   C21540707   7.097   1.432   7.002  0.1309  0.2356 -0.4596
  107MOL   C21640708   7.120   1.403   6.853  0.3440 -0.2787 -0.2096
  107MOL   C21740709   7.329   1.445   6.628  0.3102 -0.0284  0.3781
  107MOL   H21840710   7.265   1.235   6.668 -0.5761  1.4147 -1.0226
  107MOL   H21940711   7.249   1.251   6.912  0.4979 -0.8711 -1.2401
  107MOL   H22040712   7.418   1.390   7.011  1.4293  3.6530  1.0319
  107MOL   H22140713   7.374   1.525   6.910  1.9476 -0.8580 -0.4342
  107MOL   H22240714   7.246   1.399   7.145  1.0260  1.3791 -0.6217
  107MOL   H22340715   7.240   1.572   7.090 -0.6090  0.6312  0.6134
  107MOL   H22440716   7.014   1.503   7.004  0.7224  0.9184 -0.0040
  107MOL   H22540717   7.071   1.338   7.049  0.0027  0.3885 -0.2273
  107MOL   H22640718   7.053   1.324   6.822  0.2421 -1.1536  2.1528
  107MOL   H22740719   7.106   1.489   6.787 -0.8831  0.7405  1.3481
  107MOL   H22840720   7.431   1.483   6.635  0.0824  0.8380 -0.7686
  107MOL   H22940721   7.276   1.529   6.674  0.3020  0.6679 -0.8969
  107MOL   C23040722   7.304   1.416   6.482 -0.2320  0.5461  0.3828
  107MOL   C23140723   7.359   1.529   6.386  0.2832 -0.0931 -1.0479
  107MOL   C23240724   7.307   1.662   6.421 -0.0195 -0.7687 -0.4118
  107MOL   C23340725   7.433   1.750   6.440 -0.0380 -0.0780 -0.1956
  107MOL   C23440726   7.555   1.652   6.449  0.9197  0.0628 -0.4834
  107MOL   C23540727   7.512   1.527   6.378 -0.2165 -0.5293 -0.4678
  107MOL   C23640728   7.156   1.372   6.453  0.5097 -0.2359  0.4011
  107MOL   H23740729   7.370   1.331   6.464  1.0507  1.3098  1.3879
  107MOL   H23840730   7.302   1.507   6.295 -0.3405  0.0210 -0.6834
  107MOL   H23940731   7.236   1.703   6.350 -1.8515 -3.2260 -0.0780
  107MOL   H24040732   7.251   1.670   6.514  1.0948 -0.8849  0.2823
  107MOL   H24140733   7.429   1.803   6.345 -1.2806  2.2778  1.1219
  107MOL   H24240734   7.424   1.837   6.505 -2.6607 -0.6793  0.3343
  107MOL   H24340735   7.588   1.632   6.551  3.1592  4.0971 -0.2967
  107MOL   H24440736   7.636   1.712   6.406  0.0070  0.4954 -1.6089
  107MOL   H24540737   7.559   1.439   6.424  1.1698  1.2986  1.7614
  107MOL   H24640738   7.545   1.525   6.274  0.7897 -0.5072 -0.1580
  107MOL   H24740739   7.088   1.456   6.440  0.4346 -0.1586  1.2764
  107MOL   H24840740   7.116   1.311   6.534  0.8280 -2.2922 -0.9459
  107MOL   C24940741   7.139   1.274   6.333 -0.7585 -0.0603 -0.5836
  107MOL   C25040742   6.992   1.290   6.274 -0.3536  0.4342  0.5445
  107MOL   C25140743   6.966   1.413   6.184  0.6410  0.1556 -0.7482
  107MOL   C25240744   6.816   1.420   6.166  0.7276 -0.2363  0.5545
  107MOL   C25340745   6.750   1.324   6.264  0.1208 -0.5340 -0.8380
  107MOL   C25440746   6.868   1.277   6.359 -0.8938 -0.6151  0.1553
  107MOL   C25540747   7.173   1.129   6.372  0.0414  0.7873 -0.1218
  107MOL   H25640748   7.212   1.294   6.255  0.5710 -1.4793  0.2513
  107MOL   H25740749   6.988   1.210   6.200 -1.5970 -0.1614  1.2320
  107MOL   H25840750   7.025   1.417   6.093  1.4148  2.2514 -0.1848
  107MOL   H25940751   6.993   1.500   6.243  1.2794  0.0350 -0.8572
  107MOL   H26040752   6.781   1.402   6.065 -1.7929 -0.4022  1.4222
  107MOL   H26140753   6.790   1.525   6.180 -2.2561 -0.3782 -3.1645
  107MOL   H26240754   6.709   1.245   6.201  1.5037 -1.7956 -0.1960
  107MOL   H26340755   6.667   1.364   6.323 -0.2933  0.4789 -2.0795
  107MOL   H26440756   6.859   1.178   6.403  0.9066  0.1178  2.2358
  107MOL   H26540757   6.881   1.346   6.443 -1.5898  0.2479 -0.4412
  107MOL   H26640758   7.265   1.136   6.430 -0.1580  0.6194  0.2206
  107MOL   H26740759   7.103   1.098   6.450  4.0072  0.7256  3.6277
  107MOL   C26840760   7.175   1.023   6.259  0.5410 -0.5169 -0.0937
  107MOL   C26940761   7.133   0.882   6.284  0.7935 -0.3725 -0.7699
  107MOL   C27040762   6.983   0.876   6.317 -0.4464  0.9842  0.3430
  107MOL   C27140763   6.969   0.737   6.387  0.4577 -0.1611  0.0303
  107MOL   C27240764   7.106   0.683   6.420  0.4302  0.9774  1.2005
  107MOL   C27340765   7.209   0.799   6.385 -0.2442  0.4291  0.6144
  107MOL   C27440766   7.315   1.029   6.188  0.5831  0.3977 -0.3332
  107MOL   H27540767   7.100   1.041   6.182 -1.1965 -0.5293  1.5546
  107MOL   H27640768   7.140   0.834   6.187  0.9341  2.1787 -2.0771
  107MOL   H27740769   6.954   0.953   6.388  0.6666  1.4455  0.3231
  107MOL   H27840770   6.923   0.888   6.227  1.2085  0.1694 -0.9095
  107MOL   H27940771   6.907   0.740   6.476 -0.4413  4.9318 -0.6218
  107MOL   H28040772   6.919   0.663   6.324  0.7838  0.4601 -0.9733
  107MOL   H28140773   7.124   0.601   6.350 -0.0554  0.5109  1.6140
  107MOL   H28240774   7.114   0.650   6.523  0.6368 -2.8773  0.0405
  107MOL   H28340775   7.314   0.775   6.364  0.3506  2.5170  1.0097
  107MOL   H28440776   7.220   0.879   6.458  0.9640  1.5379 -0.7207
  107MOL   H28540777   7.352   0.929   6.166 -2.1347 -0.7893  0.1917
  107MOL   H28640778   7.386   1.078   6.254 -0.2004  2.6748 -1.1209
  107MOL   C28740779   7.319   1.098   6.050 -0.2329 -0.2454 -0.2507
  107MOL   C28840780   7.449   1.175   6.020 -0.4438  0.2013  0.1227
  107MOL   C28940781   7.485   1.288   6.115 -0.3705 -0.1340  0.2926
  107MOL   C29040782   7.632   1.316   6.076  0.0625  0.4603 -0.3223
  107MOL   C29140783   0.002   1.180   6.041  0.1775 -0.2484  0.5593
  107MOL   C29240784   7.575   1.091   6.009 -0.1978 -0.0119  0.4736
  107MOL   C29340785   7.280   0.997   5.933  0.2615 -0.2735  0.4271
  107MOL   H29440786   7.251   1.183   6.043 -1.1364 -0.8631  0.9393
  107MOL   H29540787   7.438   1.228   5.925 -3.8003 -1.7515 -0.6409
  107MOL   H29640788   7.428   1.377   6.085 -1.5854 -1.1368 -0.4180
  107MOL   H29740789   7.481   1.275   6.223  0.0689 -0.4201  0.2720
  107MOL   H29840790   7.634   1.391   5.997 -0.9714  1.9147  1.0005
  107MOL   H29940791   7.680   1.365   6.161  0.1058 -1.9235  1.0929
  107MOL   H30040792   0.053   1.144   6.131  1.4708 -0.7594 -0.3659
  107MOL   H30140793   0.068   1.184   5.954  0.7898 -0.6392  0.9962
  107MOL   H30240794   7.575   1.010   6.082 -0.7185  0.7180  1.2920
  107MOL   H30340795   7.566   1.050   5.908 -2.1068 -1.5312  1.2314
  107MOL   H30440796   7.186   0.946   5.949 -1.7095  2.5672 -1.5850
  107MOL   H30540797   7.364   0.928   5.923  1.0398  0.7015  0.1644
  107MOL   C30640798   7.260   1.066   5.789  0.2695 -0.1575 -0.3575
  107MOL   C30740799   7.282   0.961   5.671 -0.4770  0.2949  0.3280
  107MOL   C30840800   7.419   0.915   5.625 -0.2735 -0.2382  0.1643
  107MOL   C30940801   7.405   0.788   5.549 -0.3809  0.3663 -0.6060
  107MOL   C31040802   7.279   0.723   5.591 -0.1757  0.3689 -0.3821
  107MOL   C31140803   7.204   0.824   5.682  0.1546 -0.2515  0.6550
  107MOL   C31240804   7.125   1.143   5.772  0.6794 -0.3602  0.1520
  107MOL   H31340805   7.342   1.136   5.782 -0.0937  0.1606 -1.4764
  107MOL   H31440806   7.244   1.021   5.588 -0.2155 -1.1345 -0.8230
  107MOL   H31540807   7.489   0.896   5.707 -0.7265 -1.9160  0.1951
  107MOL   H31640808   7.458   0.999   5.568  0.8218 -0.7461  0.1478
  107MOL   H31740809   7.407   0.811   5.443  0.7624 -4.1148 -1.7016
  107MOL   H31840810   7.494   0.725   5.560 -0.2085  0.5441 -0.9784
  107MOL   H31940811   7.308   0.631   5.640  1.6214  0.9799 -0.2620
  107MOL   H32040812   7.226   0.700   5.499  2.8348 -0.1138 -2.0747
  107MOL   H32140813   7.097   0.839   5.669  0.3194  0.7004  0.3452
  107MOL   H32240814   7.204   0.783   5.783 -0.1019 -0.6405  0.4941
  107MOL   H32340815   7.066   1.135   5.863  1.4274 -0.3373  0.6439
  107MOL   H32440816   7.064   1.102   5.692 -0.1527  1.3821 -0.1270
  107MOL   C32540817   7.105   1.298   5.753 -0.2901 -0.9289 -0.0858
  107MOL   C32640818   6.961   1.334   5.785 -0.1636 -0.1754  0.1265
  107MOL   C32740819   6.847   1.253   5.719  0.8006 -0.5393 -0.1835
  107MOL   C32840820   6.724   1.335   5.759  0.0240  0.3771 -0.0411
  107MOL   C32940821   6.768   1.480   5.785 -0.0783  0.0510  0.3174
  107MOL   C33040822   6.919   1.480   5.767  0.3720 -0.2409 -0.1001
  107MOL   C33140823   7.142   1.349   5.608  0.2051  0.5238  0.2506
  107MOL   H33240824   7.165   1.357   5.822 -0.4665 -1.4354  0.5106
  107MOL   H33340825   6.955   1.324   5.894 -0.2008 -0.7339  0.0736
  107MOL   H33440826   6.845   1.153   5.761 -0.4029 -0.5337 -0.2130
  107MOL   H33540827   6.858   1.249   5.610 -0.9674  3.0831 -0.5877
  107MOL   H33640828   6.669   1.294   5.844  1.2683 -1.2860 -0.0242
  107MOL   H33740829   6.652   1.328   5.678  0.5284  0.3625 -0.4880
  107MOL   H33840830   6.723   1.525   5.873 -2.3173 -0.1351 -0.7064
  107MOL   H33940831   6.721   1.541   5.708 -0.3370 -0.3854  0.1267
  107MOL   H34040832   6.967   1.542   5.843 -0.8061  0.8938 -0.2568
  107MOL   H34140833   6.934   1.511   5.663  1.6139 -1.1151 -0.1931
  107MOL   H34240834   7.133   1.458   5.605 -0.1904  0.4823 -0.4775
  107MOL   H34340835   7.072   1.297   5.542  0.4522  2.0143 -1.2208
  107MOL   C34440836   7.290   1.322   5.549  0.3413  0.4276 -0.0897
  107MOL   C34540837   7.411   1.384   5.632 -0.1925 -0.3672  0.0185
  107MOL   C34640838   7.452   1.534   5.616 -0.4648  0.2745  0.1815
  107MOL   C34740839   7.588   1.527   5.698  0.1605  0.2641 -0.3950
  107MOL   C34840840   7.659   1.393   5.651  0.1948 -0.9478 -0.3184
  107MOL   C34940841   7.545   1.305   5.612 -0.0884 -0.3864 -0.0601
  107MOL   C35040842   7.294   1.371   5.406 -0.4812 -0.4206 -0.2233
  107MOL   H35140843   7.321   1.218   5.546 -0.2457  0.2104  1.0409
  107MOL   H35240844   7.378   1.369   5.735 -0.3762 -1.4478 -0.2020
  107MOL   H35340845   7.386   1.604   5.667 -3.0864 -1.5280 -0.6478
  107MOL   H35440846   7.464   1.566   5.512  0.4857 -0.9860 -0.1128
  107MOL   H35540847   7.643   1.613   5.660  1.5116  0.2000  1.3230
  107MOL   H35640848   7.575   1.533   5.806  1.9762  1.7051 -0.2215
  107MOL   H35740849   0.035   1.358   5.731  0.9798  1.8361  0.3162
  107MOL   H35840850   0.027   1.426   5.564 -0.8903 -1.0023 -1.0676
  107MOL   H35940851   7.553   1.284   5.505  1.2295  0.1175 -0.0730
  107MOL   H36040852   7.535   1.218   5.677  2.0055 -1.3480 -0.9962
  107MOL   H36140853   7.391   1.333   5.375 -0.4501 -2.5264  2.2819
  107MOL   H36240854   7.284   1.479   5.416 -1.3443 -0.4308 -0.9085
  107MOL   C36340855   7.196   1.322   5.310 -0.0560 -0.1359 -0.5289
  107MOL   C36440856   7.227   1.364   5.167 -0.0415  0.2195 -0.1529
  107MOL   C36540857   7.208   1.516   5.148 -0.4219  0.1168 -0.0076
  107MOL   C36640858   7.175   1.540   5.001 -0.2679 -0.0878  0.1177
  107MOL   C36740859   7.132   1.405   4.945 -0.5664 -0.3706 -0.7738
  107MOL   C36840860   7.134   1.308   5.057 -0.1434  0.0635 -0.4537
  107MOL   C36940861   7.189   1.170   5.320  0.1387  0.2762 -0.1948
  107MOL   H37040862   7.100   1.366   5.335  1.4105  2.6566  0.3897
  107MOL   H37140863   7.326   1.328   5.140 -1.1939 -0.0786 -4.3841
  107MOL   H37240864   7.118   1.547   5.201  0.0989  2.0729 -0.2460
  107MOL   H37340865   7.293   1.574   5.183  0.5100 -1.2682  0.0545
  107MOL   H37440866   7.100   1.618   4.992 -1.1077 -0.8182  0.7527
  107MOL   H37540867   7.261   1.582   4.948  0.1927 -0.8521  0.2413
  107MOL   H37640868   7.039   1.421   4.891  0.0341  0.4295 -1.6050
  107MOL   H37740869   7.205   1.367   4.873 -0.5466  1.1770 -1.6058
  107MOL   H37840870   7.150   1.205   5.025  1.7012  0.4200 -0.7152
  107MOL   H37940871   7.032   1.297   5.095 -0.4176  0.0588 -1.1861
  107MOL   H38040872   7.176   1.135   5.423  0.8431  1.0368  0.1616
  107MOL   H38140873   7.284   1.135   5.281  0.3373  1.2148 -0.5754
  107MOL   H38240874   7.108   1.130   5.259 -0.4456 -0.2178  0.8732
  108MOL     C140875   2.484   2.525   1.771  0.3726  0.2680  0.4871
  108MOL     C240876   2.629   2.504   1.813 -0.0126 -1.1261  0.1327
  108MOL     C340877   2.706   2.433   1.708 -0.2882 -0.0163  0.3932
  108MOL     C440878   2.822   2.355   1.783  0.2859  0.5088  0.1001
  108MOL     C540879   2.798   2.379   1.931 -0.2279 -0.1707  0.3976
  108MOL     C640880   2.652   2.424   1.942  0.2918 -0.3937 -0.0523
  108MOL     C740881   2.399   2.621   1.864  0.1582 -0.4874  0.1989
  108MOL     H840882   2.493   2.566   1.671  1.0847 -1.4361 -0.1626
  108MOL     H940883   2.677   2.601   1.822  2.2186 -2.2737  1.1119
  108MOL    H1040884   2.659   2.352   1.653  3.0191 -1.1264 -0.9583
  108MOL    H1140885   2.742   2.497   1.628  1.4834 -0.9586  0.3977
  108MOL    H1240886   2.806   2.248   1.774 -2.8935  0.9608 -0.0516
  108MOL    H1340887   2.925   2.386   1.764  0.4531  0.5509  1.0204
  108MOL    H1440888   2.821   2.301   2.003 -1.4693 -0.2348  0.7457
  108MOL    H1540889   2.852   2.465   1.970  0.7892  0.2060 -1.7659
  108MOL    H1640890   2.622   2.468   2.037  0.9526 -0.4128  0.1715
  108MOL    H1740891   2.589   2.336   1.942 -0.8104  0.3857  0.4228
  108MOL    H1840892   2.383   2.582   1.964  1.9673  4.2720  2.4886
  108MOL    H1940893   2.461   2.707   1.888 -0.2342  0.4929 -2.2102
  108MOL    H2040894   2.444   2.424   1.759  1.2931  0.0817 -1.0855
  108MOL    C2140895   2.266   2.677   1.806 -0.2810 -0.2064  0.8189
  108MOL    C2240896   2.283   2.787   1.695  0.0996  0.5515 -0.0516
  108MOL    C2340897   2.384   2.903   1.723 -0.8722 -0.7024 -0.3382
  108MOL    C2440898   2.334   3.043   1.677  0.2254  0.5995  0.0111
  108MOL    C2540899   2.209   3.008   1.600 -0.2079  0.0112 -0.3277
  108MOL    C2640900   2.159   2.871   1.656  0.4300  0.0285 -0.4884
  108MOL    C2740901   2.171   2.564   1.755 -0.5303  1.1026 -0.3583
  108MOL    H2840902   2.216   2.733   1.884 -0.9271  1.1386 -0.5297
  108MOL    H2940903   2.323   2.745   1.603 -1.4866  2.6284 -1.7273
  108MOL    H3040904   2.480   2.892   1.672  0.7551  1.2141  2.1784
  108MOL    H3140905   2.399   2.917   1.830 -1.1500  0.2514 -0.4115
  108MOL    H3240906   2.314   3.110   1.761  0.7157  0.2442  0.4141
  108MOL    H3340907   2.413   3.100   1.629  3.0776 -0.3166  3.3637
  108MOL    H3440908   2.244   3.002   1.497 -1.6117  0.6641 -0.8540
  108MOL    H3540909   2.123   3.075   1.605 -0.8144 -0.7331 -0.6114
  108MOL    H3640910   2.091   2.825   1.585 -0.2958 -1.6450  1.2475
  108MOL    H3740911   2.093   2.885   1.742  0.5090 -2.2941 -0.0239
  108MOL    H3840912   2.080   2.600   1.708 -1.1098 -0.0287 -0.1093
  108MOL    H3940913   2.223   2.497   1.686 -1.2784  0.9730 -0.7989
  108MOL    C4040914   2.123   2.459   1.860 -0.3909 -0.1266 -0.1012
  108MOL    C4140915   2.046   2.524   1.975 -1.7236 -0.3406 -0.1398
  108MOL    C4240916   2.028   2.442   2.101 -0.1207  0.1055  0.0972
  108MOL    C4340917   1.921   2.501   2.191 -0.2546 -0.8616  0.3885
  108MOL    C4440918   1.827   2.557   2.086  0.4386 -0.3089 -0.3536
  108MOL    C4540919   1.902   2.570   1.950  0.0162 -1.1878 -0.6496
  108MOL    C4640920   2.039   2.345   1.785  0.0918 -0.6097 -0.9265
  108MOL    H4740921   2.217   2.428   1.907  0.2321 -1.2223 -2.0113
  108MOL    H4840922   2.095   2.612   2.016 -2.8991  0.1033  0.3532
  108MOL    H4940923   2.125   2.449   2.149 -1.6384 -1.0315  3.5445
  108MOL    H5040924   2.004   2.337   2.079 -0.0304  0.7399 -3.2795
  108MOL    H5140925   1.952   2.589   2.248  1.5261 -2.0982  1.3838
  108MOL    H5240926   1.874   2.422   2.251  0.2511 -0.7384  0.9537
  108MOL    H5340927   1.747   2.485   2.072 -0.8736  0.7230  1.4890
  108MOL    H5440928   1.800   2.659   2.114 -1.1216 -0.6358 -0.6519
  108MOL    H5540929   1.847   2.512   1.876 -0.9647  0.0434 -0.8929
  108MOL    H5640930   1.902   2.670   1.907 -1.3987 -0.6537  0.5246
  108MOL    H5740931   1.972   2.297   1.856  0.1709  1.1010  0.3341
  108MOL    H5840932   1.967   2.387   1.714 -0.0550  1.4456  0.4122
  108MOL    C5940933   2.120   2.244   1.705  0.2917  0.5871 -0.3467
  108MOL    C6040934   2.160   2.126   1.796  0.2461  0.5186  0.2880
  108MOL    C6140935   2.241   2.148   1.923 -0.1014  0.1513  0.4545
  108MOL    C6240936   2.293   2.018   1.967 -0.4333 -0.0496 -0.1722
  108MOL    C6340937   2.320   1.934   1.832 -0.0844  0.3256  0.4364
  108MOL    C6440938   2.256   2.025   1.726 -0.2862  0.5231  0.3081
  108MOL    C6540939   2.045   2.187   1.577  0.1950 -0.6882  0.3402
  108MOL    H6640940   2.213   2.295   1.681  0.1008  1.3372  0.4821
  108MOL    H6740941   2.071   2.066   1.815  0.5822 -0.3082 -0.7361
  108MOL    H6840942   2.186   2.203   2.000 -1.3554 -0.1217 -0.2387
  108MOL    H6940943   2.312   2.230   1.910 -0.0670 -0.0033 -0.3177
  108MOL    H7040944   2.217   1.975   2.032 -0.3777  0.8856  0.5145
  108MOL    H7140945   2.380   2.031   2.031 -2.0072  2.4253  1.5328
  108MOL    H7240946   2.281   1.832   1.831  0.0501  0.2738  0.0463
  108MOL    H7340947   2.424   1.910   1.809 -1.0008 -1.5453 -2.0705
  108MOL    H7440948   2.333   2.088   1.680 -0.4296  1.1284  0.8901
  108MOL    H7540949   2.212   1.960   1.651 -1.4732 -0.0493  1.4883
  108MOL    H7640950   1.937   2.205   1.585  0.1954 -1.3892  2.0181
  108MOL    H7740951   2.032   2.079   1.573 -1.0202 -0.5699  0.9289
  108MOL    C7840952   2.108   2.222   1.444 -0.6942 -0.1795 -0.0137
  108MOL    C7940953   2.019   2.141   1.347  0.1812  0.1974 -0.0964
  108MOL    C8040954   2.083   2.002   1.322  0.0611  0.0440 -0.0197
  108MOL    C8140955   2.023   1.954   1.187  0.2521  0.1207  0.3174
  108MOL    C8240956   1.978   2.077   1.109 -0.3481  0.2518 -0.2826
  108MOL    C8340957   2.010   2.195   1.197 -0.8643 -0.0791  0.0319
  108MOL    C8440958   2.088   2.378   1.425 -0.6177 -0.8838 -0.8834
  108MOL    H8540959   2.214   2.197   1.446 -1.2307 -2.6838 -0.9670
  108MOL    H8640960   1.916   2.136   1.383  0.7430  2.9911  2.0291
  108MOL    H8740961   2.068   1.926   1.398 -0.8023  1.1659  0.9585
  108MOL    H8840962   2.189   2.011   1.299 -0.3205  0.9671 -1.5019
  108MOL    H8940963   1.941   1.885   1.206  0.9719 -0.3349  1.8796
  108MOL    H9040964   2.089   1.888   1.130 -0.4712  1.8533 -2.6011
  108MOL    H9140965   2.023   2.090   1.010  1.6949 -0.5739  0.5118
  108MOL    H9240966   1.870   2.076   1.096 -0.4644  0.7774  0.6547
  108MOL    H9340967   2.103   2.240   1.164 -0.9824  0.6500  0.6599
  108MOL    H9440968   1.932   2.269   1.179 -1.2376  0.2098  2.6317
  108MOL    H9540969   2.079   2.414   1.528 -0.0111 -1.0470 -0.7727
  108MOL    H9640970   1.985   2.380   1.389 -1.1332  0.7355  0.6164
  108MOL    C9740971   2.170   2.461   1.329 -0.5347  0.1658  0.3183
  108MOL    C9840972   2.319   2.416   1.319  0.3233 -0.6555  0.6723
  108MOL    C9940973   2.384   2.474   1.194 -0.1302  0.1569 -0.0247
  108MOL   C10040974   2.524   2.430   1.223  0.1632  0.2783  0.7695
  108MOL   C10140975   2.551   2.434   1.373  0.2076  0.1924  0.8907
  108MOL   C10240976   2.411   2.451   1.433 -0.2749 -0.3902 -0.2643
  108MOL   C10340977   2.148   2.607   1.351  0.0949 -0.7051 -0.4757
  108MOL   H10440978   2.131   2.436   1.231  1.0606  4.1868 -1.4128
  108MOL   H10540979   2.321   2.308   1.304  0.7213 -0.7765  1.5505
  108MOL   H10640980   2.346   2.453   1.094 -0.0655  2.6888 -0.6154
  108MOL   H10740981   2.384   2.583   1.188 -0.1927  0.2157  0.9596
  108MOL   H10840982   2.592   2.489   1.162 -0.6358 -2.1893 -2.6041
  108MOL   H10940983   2.537   2.329   1.185  0.5597  0.9730 -0.9569
  108MOL   H11040984   2.617   2.513   1.407 -1.5362  1.9572  0.3097
  108MOL   H11140985   2.599   2.348   1.419 -0.1747 -0.1597  0.6407
  108MOL   H11240986   2.393   2.395   1.524  3.5780  0.9223  1.4298
  108MOL   H11340987   2.392   2.555   1.463  0.8010 -0.2485 -0.0484
  108MOL   H11440988   2.113   2.615   1.454 -1.1268 -1.5526 -0.8223
  108MOL   H11540989   2.244   2.659   1.356  0.2229 -0.8754 -1.0962
  108MOL   C11640990   2.043   2.683   1.261 -0.0403 -0.5071  0.7549
  108MOL   C11740991   1.901   2.683   1.324  0.4362  1.1827  0.5086
  108MOL   C11840992   1.878   2.776   1.443 -0.0213 -0.2189 -0.8473
  108MOL   C11940993   1.724   2.802   1.463  0.7186 -0.5991  0.6850
  108MOL   C12040994   1.662   2.750   1.324  0.0631  0.5416 -0.5203
  108MOL   C12140995   1.792   2.717   1.233 -0.0935  0.3556  0.1683
  108MOL   C12240996   2.095   2.828   1.225 -0.0151 -0.3292 -0.0526
  108MOL   H12340997   2.032   2.612   1.179 -0.8282 -2.2329  2.3057
  108MOL   H12440998   1.886   2.583   1.367  2.7328  1.3239  1.7459
  108MOL   H12540999   1.924   2.733   1.532  2.7533  0.8593 -1.7303
  108MOL   H12641000   1.939   2.862   1.416  2.5929 -1.3948  1.1405
  108MOL   H12741001   1.700   2.907   1.475  1.6982 -0.4350  1.1941
  108MOL   H12841002   1.666   2.750   1.540 -0.8427  2.4157  1.6002
  108MOL   H12941003   1.606   2.834   1.283 -1.1365 -0.2194 -0.4771
  108MOL   H13041004   1.600   2.662   1.339 -0.6163  1.1506  0.2844
  108MOL   H13141005   1.783   2.643   1.154  1.8874 -0.4610  0.6871
  108MOL   H13241006   1.821   2.810   1.185  2.0871 -0.0089  0.7486
  108MOL   H13341007   2.163   2.851   1.307 -1.1451  1.9084  0.2870
  108MOL   H13441008   2.015   2.902   1.230  0.6957  0.3257  2.6949
  108MOL   C13541009   2.179   2.832   1.095 -0.2030 -0.9197 -0.7599
  108MOL   C13641010   2.274   2.957   1.084 -0.2860  0.3915 -0.0697
  108MOL   C13741011   2.394   2.957   1.178 -0.5683  0.4462 -0.2087
  108MOL   C13841012   2.432   3.102   1.188 -0.2019 -0.4512  0.0824
  108MOL   C13941013   2.324   3.184   1.121 -0.1012  0.1540 -0.6143
  108MOL   C14041014   2.202   3.092   1.114 -0.1429  0.1221  0.2875
  108MOL   C14141015   2.085   2.818   0.971 -0.0880 -0.0560  1.0382
  108MOL   H14241016   2.243   2.745   1.103 -1.1110 -1.6497 -1.4008
  108MOL   H14341017   2.313   2.957   0.982 -0.9687 -4.2310 -0.4192
  108MOL   H14441018   2.363   2.922   1.276  0.5198 -2.1146 -0.7272
  108MOL   H14541019   2.478   2.890   1.156 -0.5553  0.1016  0.8732
  108MOL   H14641020   2.524   3.121   1.133  0.6508 -0.6928  1.3892
  108MOL   H14741021   2.453   3.145   1.286 -1.7603  0.2579  0.1108
  108MOL   H14841022   2.358   3.214   1.022  1.0262  2.8053  0.5464
  108MOL   H14941023   2.305   3.280   1.170 -1.1335  0.2075 -1.0942
  108MOL   H15041024   2.153   3.084   1.212 -2.3555 -1.0458 -0.8666
  108MOL   H15141025   2.130   3.129   1.041  0.3577 -0.1337 -0.3311
  108MOL   H15241026   2.049   2.919   0.951  1.6349  0.4551  0.4275
  108MOL   H15341027   1.997   2.760   0.999 -0.8630 -0.3572 -1.8558
  108MOL   C15441028   2.153   2.756   0.843  0.3993 -0.1674  0.0678
  108MOL   C15541029   2.183   2.601   0.861 -0.1253  0.0318 -0.6823
  108MOL   C15641030   2.276   2.534   0.758 -0.1703 -0.7791  0.1087
  108MOL   C15741031   2.243   2.383   0.767 -0.2489 -0.1923  0.6297
  108MOL   C15841032   2.126   2.369   0.866  0.0326  0.1993  0.3165
  108MOL   C15941033   2.062   2.506   0.872 -0.1413 -0.1996 -0.2480
  108MOL   C16041034   2.082   2.807   0.713  0.2519 -0.2489  0.1198
  108MOL   H16141035   2.254   2.797   0.840 -0.1367  1.0765 -1.6368
  108MOL   H16241036   2.245   2.591   0.950 -0.0447  2.4500 -0.4259
  108MOL   H16341037   2.251   2.565   0.656 -1.7435 -0.5993  0.5368
  108MOL   H16441038   2.378   2.568   0.773 -0.1005  0.4758 -2.8767
  108MOL   H16541039   2.214   2.340   0.672  1.1066 -0.7790  0.4626
  108MOL   H16641040   2.334   2.330   0.796 -0.4893 -0.4281  0.9551
  108MOL   H16741041   2.166   2.344   0.964  0.2948 -0.4146  0.0567
  108MOL   H16841042   2.058   2.289   0.834  3.5320 -2.0641 -1.7271
  108MOL   H16941043   2.013   2.524   0.968  1.0185 -1.3029  0.5658
  108MOL   H17041044   1.985   2.527   0.797 -1.5038  0.8121  1.3914
  108MOL   H17141045   1.976   2.792   0.731 -0.0693 -1.3849 -2.4190
  108MOL   H17241046   2.101   2.735   0.633 -2.0110 -1.2773  0.4763
  108MOL   C17341047   2.124   2.948   0.662 -0.0353 -0.3550  0.8797
  108MOL   C17441048   2.019   3.001   0.564  0.2498 -0.2797  0.4676
  108MOL   C17541049   1.876   3.029   0.616  0.0206  0.6936 -0.0692
  108MOL   C17641050   1.790   3.037   0.483 -0.2782  0.6152 -0.1322
  108MOL   C17741051   1.863   2.961   0.368  0.7999  0.0085  0.3227
  108MOL   C17841052   2.000   2.921   0.433 -0.2421 -0.5918  0.0736
  108MOL   C17941053   2.269   2.944   0.603  0.7059  0.3233 -0.1746
  108MOL   H18041054   2.122   3.010   0.751  1.2070 -0.9474  1.3262
  108MOL   H18141055   2.051   3.103   0.543 -1.7818  0.0453 -1.2199
  108MOL   H18241056   1.868   3.118   0.679  0.5146  0.7200 -0.0416
  108MOL   H18341057   1.843   2.942   0.673 -2.6594  0.6095 -1.6912
  108MOL   H18441058   1.690   2.994   0.494 -0.2388  0.4229 -0.5093
  108MOL   H18541059   1.771   3.140   0.452 -2.1399  0.5282  0.6518
  108MOL   H18641060   1.886   3.030   0.286  1.6275 -0.3797  0.2203
  108MOL   H18741061   1.815   2.878   0.316  1.2676 -0.0979  0.0586
  108MOL   H18841062   1.992   2.815   0.457 -2.0062 -0.1036  1.8285
  108MOL   H18941063   2.088   2.930   0.369 -0.9055  1.1672 -0.6274
  108MOL   H19041064   2.334   2.907   0.682 -1.3768 -0.9178  0.9691
  108MOL   H19141065   2.268   2.872   0.521  1.8706 -0.9765  0.9315
  108MOL   C19241066   2.326   3.084   0.563 -0.4168 -0.8442  0.0834
  108MOL   C19341067   2.475   3.083   0.525 -0.2876  0.2453 -0.0926
  108MOL   C19441068   2.517   3.002   0.400 -0.1770  0.6143 -0.3511
  108MOL   C19541069   2.667   3.001   0.424  0.2585 -0.3562  0.4684
  108MOL   C19641070   2.706   3.042   0.566  0.3040 -0.1445 -0.3767
  108MOL   C19741071   2.577   3.045   0.642  0.1453  0.0153 -0.3118
  108MOL   C19841072   2.314   3.206   0.669  0.0121  1.1656  0.3540
  108MOL   H19941073   2.279   3.114   0.470  2.1831 -0.0335 -1.0379
  108MOL   H20041074   2.499   3.186   0.499 -0.9262  0.4442  0.0998
  108MOL   H20141075   2.484   3.056   0.311 -2.8307 -0.3255  0.0208
  108MOL   H20241076   2.475   2.903   0.412 -2.5438  1.3745 -1.9994
  108MOL   H20341077   2.709   2.904   0.400 -0.3471 -0.5252  0.0970
  108MOL   H20441078   2.718   3.062   0.350 -1.4264 -0.0136 -0.4281
  108MOL   H20541079   2.748   3.143   0.561  0.3363 -0.1605 -0.4175
  108MOL   H20641080   2.785   2.982   0.612  0.5321 -0.5313 -1.2557
  108MOL   H20741081   2.585   3.126   0.716 -2.7310  0.4971 -0.4543
  108MOL   H20841082   2.557   2.951   0.693 -0.5080  0.2144 -0.1917
  108MOL   H20941083   2.282   3.170   0.767 -0.1671 -0.8917 -0.4466
  108MOL   H21041084   2.416   3.242   0.688  0.6713 -0.3025 -0.4016
  108MOL   C21141085   2.225   3.334   0.623 -0.9097 -0.0952  0.0698
  108MOL   C21241086   2.177   3.430   0.739 -0.0209 -0.3776 -0.6810
  108MOL   C21341087   2.063   3.385   0.820  0.3135 -0.0985  0.8843
  108MOL   C21441088   2.072   3.455   0.957 -0.3043  0.1091 -0.3367
  108MOL   C21541089   2.206   3.531   0.952  0.2726  0.6680 -0.4655
  108MOL   C21641090   2.284   3.462   0.844  0.9523  0.2913  0.6575
  108MOL   C21741091   2.295   3.413   0.507  0.6176  0.2068  0.1891
  108MOL   H21841092   2.133   3.295   0.580  0.2510 -1.2655 -1.4122
  108MOL   H21941093   2.147   3.525   0.696 -0.0846  0.2797  0.8105
  108MOL   H22041094   1.968   3.398   0.768 -0.2344 -1.6548  1.4753
  108MOL   H22141095   2.069   3.278   0.839 -1.9785 -0.7758 -1.8033
  108MOL   H22241096   1.991   3.515   0.999 -2.1890 -1.7051 -1.2901
  108MOL   H22341097   2.067   3.367   1.021 -0.3895  0.9109  0.7705
  108MOL   H22441098   2.263   3.530   1.045  0.4297 -0.4864 -0.5626
  108MOL   H22541099   2.171   3.630   0.924 -0.5081  0.3241 -0.7314
  108MOL   H22641100   2.370   3.518   0.807  1.3475 -0.4677  0.4260
  108MOL   H22741101   2.319   3.367   0.884  1.9337 -0.1384 -1.1705
  108MOL   H22841102   2.341   3.330   0.454  0.8569 -1.0171  2.2826
  108MOL   H22941103   2.390   3.455   0.540  1.5464 -2.8357  1.5869
  108MOL   C23041104   2.213   3.498   0.409  0.1556  0.2692  0.7492
  108MOL   C23141105   2.182   3.429   0.275 -0.5275 -0.9179  0.4413
  108MOL   C23241106   2.299   3.401   0.176 -0.2347 -0.0345 -0.5807
  108MOL   C23341107   2.269   3.261   0.111 -0.1709 -0.0869 -0.7674
  108MOL   C23441108   2.123   3.217   0.150 -0.1531  0.3902  0.0181
  108MOL   C23541109   2.102   3.294   0.284  0.5903  0.4846  0.2580
  108MOL   C23641110   2.258   3.643   0.378  0.5298 -0.5015  0.5526
  108MOL   H23741111   2.115   3.510   0.455  0.4912  1.7143  1.1090
  108MOL   H23841112   2.119   3.500   0.222 -1.0010 -0.6779  1.3106
  108MOL   H23941113   2.308   3.473   0.095  1.9871  1.7560  1.1507
  108MOL   H24041114   2.392   3.394   0.234 -0.8985 -0.8323  0.4031
  108MOL   H24141115   2.296   3.264   0.005 -1.3880 -0.0334 -1.0772
  108MOL   H24241116   2.342   3.187   0.144  1.9375  1.2033 -2.4210
  108MOL   H24341117   2.095   3.112   0.148 -0.4370  0.4745 -0.6300
  108MOL   H24441118   2.052   3.264   0.081  0.2670 -0.3105 -0.9031
  108MOL   H24541119   2.140   3.230   0.363  2.9822 -1.0738 -2.0633
  108MOL   H24641120   1.995   3.305   0.300  0.5263  1.0573 -0.5467
  108MOL   H24741121   2.189   3.686   0.305  1.0211 -1.4022 -0.4643
  108MOL   H24841122   2.352   3.646   0.323  0.3989 -2.7173  0.1372
  108MOL   C24941123   2.261   3.734   0.497  0.1911 -0.1184 -0.4249
  108MOL   C25041124   2.127   3.808   0.516 -0.0483  0.3788 -0.5940
  108MOL   C25141125   2.092   3.939   0.438 -0.4184 -0.0463  0.4130
  108MOL   C25241126   2.031   4.036   0.533 -0.2190 -0.6297  0.1820
  108MOL   C25341127   2.069   3.979   0.667  0.6569  0.1743 -0.0729
  108MOL   C25441128   2.082   3.831   0.657  1.0567 -0.4026  0.6009
  108MOL   C25541129   2.376   3.840   0.487 -0.4501  0.7975 -0.8344
  108MOL   H25641130   2.272   3.666   0.581 -0.8094  2.1819  1.6043
  108MOL   H25741131   2.056   3.736   0.478  0.4377 -0.2013 -0.4141
  108MOL   H25841132   2.030   3.920   0.350  0.8681 -4.0140  0.2754
  108MOL   H25941133   2.184   3.983   0.401 -0.2767 -0.9107 -0.2857
  108MOL   H26041134   1.924   4.036   0.515 -0.5006  4.0276  1.2256
  108MOL   H26141135   2.067   4.137   0.515  1.1677 -0.7261  2.2516
  108MOL   H26241136   2.003   4.001   0.751  0.3419  0.3625 -0.3671
  108MOL   H26341137   2.172   4.007   0.686  0.6394 -0.2713  0.6936
  108MOL   H26441138   1.978   3.798   0.664  0.3767  1.8814  1.6752
  108MOL   H26541139   2.141   3.784   0.736  1.3388 -0.8161  0.1528
  108MOL   H26641140   2.378   3.893   0.391  2.2268 -0.6006 -1.5995
  108MOL   H26741141   2.370   3.912   0.569 -0.6738 -0.2104  0.0419
  108MOL   C26841142   2.516   3.778   0.500  0.7929 -0.5140  0.3928
  108MOL   C26941143   2.596   3.801   0.633  0.5239  0.8212 -0.1772
  108MOL   C27041144   2.528   3.766   0.763 -0.0668 -0.7432  0.2377
  108MOL   C27141145   2.568   3.869   0.871  0.2740 -0.0848  0.5607
  108MOL   C27241146   2.625   3.989   0.797  0.0806 -0.0388 -0.0658
  108MOL   C27341147   2.656   3.943   0.650 -0.1382 -0.1347  0.4390
  108MOL   C27441148   2.593   3.806   0.367 -0.5313  0.0482  1.1953
  108MOL   H27541149   2.507   3.669   0.500  1.9287 -0.6185 -0.4718
  108MOL   H27641150   2.685   3.738   0.635  0.8702  1.2800 -0.7678
  108MOL   H27741151   2.423   3.747   0.738 -0.2482 -1.7713  1.7296
  108MOL   H27841152   2.561   3.666   0.793  1.7171 -0.1135  0.4403
  108MOL   H27941153   2.482   3.901   0.928  2.1455  2.4213  2.0943
  108MOL   H28041154   2.637   3.830   0.946  0.8888 -3.3393 -1.5617
  108MOL   H28141155   2.698   4.049   0.851 -0.5092  2.4059 -1.8844
  108MOL   H28241156   2.537   4.053   0.792  2.0259  2.8113  1.0648
  108MOL   H28341157   2.765   3.946   0.641 -0.1231  0.0096  0.6825
  108MOL   H28441158   2.619   4.016   0.578  2.3685 -0.2893 -1.0926
  108MOL   H28541159   2.597   3.915   0.361 -0.6281 -0.0795 -1.4956
  108MOL   H28641160   2.535   3.782   0.278  1.4350  2.4797 -0.8099
  108MOL   C28741161   2.735   3.749   0.348 -0.8531 -0.5248  0.1814
  108MOL   C28841162   2.733   3.593   0.365 -0.7168 -0.8607  0.0121
  108MOL   C28941163   2.655   3.518   0.259  0.1541 -0.5987 -0.0992
  108MOL   C29041164   2.696   3.373   0.288 -0.6419  0.0459  0.6889
  108MOL   C29141165   2.841   3.382   0.354 -0.5219 -0.8114  0.0161
  108MOL   C29241166   2.873   3.534   0.363  0.3105  0.7183  0.5263
  108MOL   C29341167   2.785   3.797   0.213 -0.4525  0.5504  0.0924
  108MOL   H29441168   2.802   3.794   0.421  2.3796 -3.7477 -0.6130
  108MOL   H29541169   2.694   3.576   0.466 -0.1875 -0.0286  0.3643
  108MOL   H29641170   2.548   3.534   0.268  0.2596  0.4747 -0.6028
  108MOL   H29741171   2.681   3.547   0.157  0.4077  2.2023  0.6958
  108MOL   H29841172   2.639   3.311   0.358 -0.9109 -1.1023 -0.5303
  108MOL   H29941173   2.714   3.313   0.199 -0.6157  0.6927  0.2550
  108MOL   H30041174   2.911   3.313   0.306  0.6391  0.2174  0.2084
  108MOL   H30141175   2.825   3.347   0.456 -0.4122 -1.7362 -0.2788
  108MOL   H30241176   2.924   3.560   0.270  1.8875  1.2080  1.4934
  108MOL   H30341177   2.937   3.569   0.444 -1.0151  0.3362  1.7396
  108MOL   H30441178   2.728   3.881   0.174 -0.0123  0.1781 -1.3718
  108MOL   H30541179   2.758   3.723   0.137 -2.4392 -0.2983  1.5615
  108MOL   C30641180   2.932   3.833   0.200  0.4187 -1.0721 -0.2684
  108MOL   C30741181   2.996   3.815   0.056  0.0886  0.7889 -0.8009
  108MOL   C30841182   3.150   3.812   0.050 -0.0797 -0.8308  0.0783
  108MOL   C30941183   3.187   3.766   7.599 -0.0662  0.1984  0.2304
  108MOL   C31041184   3.069   3.682   7.547  0.4172  0.4456 -0.0017
  108MOL   C31141185   2.962   3.687   7.662  0.5887 -0.2915  0.4715
  108MOL   C31241186   2.956   3.978   0.258  0.0851  0.3227  0.8454
  108MOL   H31341187   2.975   3.761   0.270  0.4962 -1.2017 -0.4486
  108MOL   H31441188   2.953   3.891   7.680 -2.9965  1.9628  2.3933
  108MOL   H31541189   3.190   3.743   0.124  3.3248  1.5470  0.5203
  108MOL   H31641190   3.197   3.905   0.081  2.3312 -2.6438  2.0579
  108MOL   H31741191   3.206   3.847   7.529 -0.6322 -1.3108 -1.7345
  108MOL   H31841192   3.282   3.712   7.609 -0.4419 -0.2337  1.6593
  108MOL   H31941193   3.097   3.581   7.519  1.9802 -0.3524  4.1023
  108MOL   H32041194   3.034   3.739   7.461  0.9464  0.5651 -0.1355
  108MOL   H32141195   2.862   3.696   7.620  0.6809 -2.1921 -0.2241
  108MOL   H32241196   2.970   3.598   0.035  1.6364  0.6350  1.6754
  108MOL   H32341197   2.864   4.034   0.242  0.5999  1.4916  1.9546
  108MOL   H32441198   3.028   4.025   0.190 -1.1194 -0.9495 -1.3590
  108MOL   C32541199   3.011   4.000   0.400  0.3018  0.4909  1.0285
  108MOL   C32641200   3.010   4.151   0.458 -0.0950 -1.2184  0.5886
  108MOL   C32741201   2.861   4.208   0.483 -0.1810 -0.5966  0.7307
  108MOL   C32841202   2.879   4.358   0.485 -0.0976 -0.4934  0.9191
  108MOL   C32941203   2.999   4.385   0.393  0.3366 -1.0094 -0.4808
  108MOL   C33041204   3.060   4.256   0.365  0.4817 -0.3486  0.4885
  108MOL   C33141205   3.153   3.946   0.415 -0.4996  0.4199 -0.7506
  108MOL   H33241206   2.936   3.957   0.466  0.6685 -0.1176  1.0546
  108MOL   H33341207   3.068   4.170   0.549  0.8761 -1.9015  0.1097
  108MOL   H33441208   2.810   4.176   0.573 -1.1819  1.1659  0.8252
  108MOL   H33541209   2.801   4.179   0.397  1.0211 -2.2791  0.4284
  108MOL   H33641210   2.901   4.397   0.585  2.4256 -1.2604  0.6966
  108MOL   H33741211   2.795   4.412   0.440  0.5992  0.1960  0.4295
  108MOL   H33841212   3.066   4.441   0.459 -1.3385  0.4413  0.0179
  108MOL   H33941213   2.984   4.440   0.300  1.2272 -1.2207 -0.7572
  108MOL   H34041214   3.167   4.260   0.387  0.5969 -1.3591  0.1392
  108MOL   H34141215   3.032   4.232   0.262 -0.7940  0.4945  0.6320
  108MOL   H34241216   3.234   4.012   0.384  0.8276 -0.3228  1.0612
  108MOL   H34341217   3.160   3.862   0.345 -0.1577 -0.1455 -0.0430
  108MOL   C34441218   3.180   3.886   0.563  0.1142 -0.1117  0.0932
  108MOL   C34541219   3.330   3.865   0.603  0.1436  0.8295 -0.1159
  108MOL   C34641220   3.418   3.988   0.603  0.7137 -0.4772  0.4796
  108MOL   C34741221   3.561   3.935   0.586  0.2413 -0.3720 -0.3514
  108MOL   C34841222   3.533   3.819   0.486 -0.1582 -0.2523 -0.8161
  108MOL   C34941223   3.396   3.761   0.512  0.1485 -0.0996 -0.7529
  108MOL   C35041224   3.092   3.768   0.606  0.4748  0.7130 -0.0277
  108MOL   H35141225   3.160   3.961   0.639  0.8250  0.1325  0.0463
  108MOL   H35241226   3.339   3.814   0.699 -0.1879  1.5696  0.3055
  108MOL   H35341227   3.406   4.044   0.696  0.6266 -0.8719  0.7048
  108MOL   H35441228   3.396   4.066   0.530  0.9728  1.1162  2.0405
  108MOL   H35541229   3.634   4.007   0.549  0.6688 -0.2660  0.6614
  108MOL   H35641230   3.607   3.897   0.678  2.0891 -0.1723 -1.1725
  108MOL   H35741231   3.614   3.747   0.481  0.2322  0.0574  0.6906
  108MOL   H35841232   3.522   3.857   0.385 -0.5938  0.0184 -0.6703
  108MOL   H35941233   3.346   3.753   0.416  0.0279 -0.6210 -0.6488
  108MOL   H36041234   3.387   3.659   0.551  0.7021  0.1326 -0.0077
  108MOL   H36141235   3.141   3.684   0.557 -1.5839  0.8346 -2.3633
  108MOL   H36241236   2.990   3.780   0.572  0.0649  1.8203  1.5241
  108MOL   C36341237   3.087   3.723   0.756  0.1794  0.3618  0.4137
  108MOL   C36441238   3.032   3.830   0.853 -0.6765 -1.0550 -0.2734
  108MOL   C36541239   3.136   3.918   0.912 -0.6625 -0.4293  0.1033
  108MOL   C36641240   3.092   3.959   1.051 -0.6379  0.1919  0.1770
  108MOL   C36741241   2.945   3.917   1.052  0.3520 -0.0104  0.1335
  108MOL   C36841242   2.948   3.781   0.977 -0.4495  0.4105  0.0263
  108MOL   C36941243   2.992   3.596   0.757 -0.2243 -0.2813 -1.1575
  108MOL   H37041244   3.183   3.691   0.797  0.5855  4.2709  2.7343
  108MOL   H37141245   2.972   3.898   0.792  1.2079  2.1573  1.3258
  108MOL   H37241246   3.229   3.867   0.937  0.0802 -0.5688 -2.8167
  108MOL   H37341247   3.176   3.986   0.837  1.7850 -1.5926  0.2974
  108MOL   H37441248   3.152   3.901   1.121 -1.8394 -0.2784  0.8171
  108MOL   H37541249   3.099   4.065   1.076 -1.0267 -0.1154  1.6260
  108MOL   H37641250   2.920   3.906   1.157 -2.3381  0.5575 -0.4221
  108MOL   H37741251   2.875   3.990   1.012  1.1047  0.5901 -0.1229
  108MOL   H37841252   2.848   3.748   0.952 -0.5811  0.8099  0.0300
  108MOL   H37941253   3.002   3.718   1.048  3.1742  3.1604 -0.1523
  108MOL   H38041254   3.031   3.509   0.704  1.8712  0.2853 -0.5844
  108MOL   H38141255   2.888   3.617   0.731 -0.3729  0.7194  0.1905
  108MOL   H38241256   3.001   3.561   0.860  1.8452 -1.9025 -1.8592
  109MOL     C141257   4.517   4.487   4.984  0.3707 -0.1684  0.9876
  109MOL     C241258   4.576   4.574   4.868  0.9248 -0.4625 -0.6946
  109MOL     C341259   4.483   4.590   4.750  0.0555  1.1172 -0.0054
  109MOL     C441260   4.576   4.613   4.636 -0.2233  0.3462  0.0600
  109MOL     C541261   4.719   4.588   4.676 -0.2729 -0.2011 -0.0539
  109MOL     C641262   4.702   4.512   4.805  0.6009  0.0660 -0.6343
  109MOL     C741263   4.610   4.480   5.110  0.6122 -0.3727  0.4117
  109MOL     H841264   4.416   4.523   5.005 -0.3975 -0.6939 -1.6420
  109MOL     H941265   4.592   4.677   4.901 -1.1168  0.2010 -1.7070
  109MOL    H1041266   4.431   4.497   4.728  4.0635 -1.1104 -0.5250
  109MOL    H1141267   4.404   4.665   4.758  0.6290  1.6159  1.2200
  109MOL    H1241268   4.548   4.547   4.554 -0.5128 -0.6251  0.9348
  109MOL    H1341269   4.565   4.717   4.605 -1.4003 -0.0080 -0.7608
  109MOL    H1441270   4.777   4.532   4.603  2.4626 -0.4796  2.2812
  109MOL    H1541271   4.772   4.681   4.694  2.4891 -1.8982  0.8588
  109MOL    H1641272   4.791   4.524   4.867  1.2522 -0.9530 -1.3318
  109MOL    H1741273   4.697   4.406   4.779 -1.2154 -0.2396  0.9116
  109MOL    H1841274   4.669   4.572   5.108 -2.7563  1.8525 -0.2102
  109MOL    H1941275   4.542   4.487   5.195  0.7513  2.0450  0.3876
  109MOL    H2041276   4.502   4.387   4.944  1.1262  0.7935 -1.8309
  109MOL    C2141277   4.715   4.364   5.126  0.2539 -0.5736  0.2112
  109MOL    C2241278   4.810   4.401   5.246 -0.1748 -0.0227  0.0498
  109MOL    C2341279   4.935   4.315   5.263  0.1534  0.1228  0.4165
  109MOL    C2441280   4.958   4.335   5.413 -0.3276  0.1526 -0.0640
  109MOL    C2541281   4.827   4.327   5.478 -0.4435  0.6269 -0.3877
  109MOL    C2641282   4.736   4.401   5.383  0.0438 -0.1691 -0.3093
  109MOL    C2741283   4.666   4.214   5.121 -0.7768  0.0509  0.6027
  109MOL    H2841284   4.792   4.370   5.049  1.5720  2.9176  1.7095
  109MOL    H2941285   4.871   4.490   5.228  2.8848 -1.2738  3.4525
  109MOL    H3041286   5.015   4.346   5.196  0.7256  1.0287  1.4830
  109MOL    H3141287   4.909   4.212   5.239  1.5132 -0.1478  0.0618
  109MOL    H3241288   5.030   4.263   5.452  1.4377  3.4401  3.1209
  109MOL    H3341289   5.004   4.429   5.445 -0.2659  0.8920 -2.2581
  109MOL    H3441290   4.833   4.375   5.575 -2.0823  0.4544 -0.1903
  109MOL    H3541291   4.811   4.219   5.478  1.4192  0.3291  0.7707
  109MOL    H3641292   4.722   4.507   5.405 -3.2245 -0.4051 -0.9997
  109MOL    H3741293   4.635   4.361   5.379  0.3444 -1.0001  0.4321
  109MOL    H3841294   4.669   4.157   5.214 -1.3871 -2.0293 -0.6266
  109MOL    H3941295   4.557   4.217   5.123 -0.8297 -0.8971 -0.5583
  109MOL    C4041296   4.711   4.148   4.990 -0.5377 -1.4614 -0.3171
  109MOL    C4141297   4.868   4.109   4.994  0.0469 -0.3771 -0.6390
  109MOL    C4241298   4.942   4.072   4.864 -0.2170 -1.0222  0.3041
  109MOL    C4341299   4.998   3.925   4.884  0.5017 -0.4660  0.4625
  109MOL    C4441300   4.933   3.878   5.008  0.2059  0.4478  0.3910
  109MOL    C4541301   4.901   3.999   5.090  0.1781  0.8783 -1.1325
  109MOL    C4641302   4.627   4.027   4.939 -0.3091 -0.2617 -0.1028
  109MOL    H4741303   4.695   4.230   4.920 -0.1209  1.2763  2.6787
  109MOL    H4841304   4.922   4.200   5.019  1.6080 -1.5916  0.6085
  109MOL    H4941305   5.024   4.139   4.840 -0.7927 -0.3808  0.1149
  109MOL    H5041306   4.875   4.084   4.778 -1.1105  0.0938  1.1438
  109MOL    H5141307   5.106   3.919   4.893  0.4537 -1.0788  0.6801
  109MOL    H5241308   4.964   3.853   4.808  1.0700 -0.6770  0.4082
  109MOL    H5341309   4.843   3.823   4.979  0.3033  1.1193 -1.1987
  109MOL    H5441310   4.995   3.813   5.070 -1.3055 -1.5191 -0.1043
  109MOL    H5541311   4.822   3.966   5.157 -0.5405  2.1516 -1.3347
  109MOL    H5641312   4.988   4.029   5.148  1.2580 -0.1298 -2.1975
  109MOL    H5741313   4.696   3.981   4.867 -0.9072 -1.3177 -0.0133
  109MOL    H5841314   4.629   3.949   5.015  2.8815 -1.4982 -1.3498
  109MOL    C5941315   4.493   4.041   4.877  0.2493 -0.1147 -0.4133
  109MOL    C6041316   4.497   4.139   4.754  0.3789 -0.1509 -0.0580
  109MOL    C6141317   4.366   4.158   4.667 -0.2076 -0.2053  0.3082
  109MOL    C6241318   4.406   4.242   4.550 -0.3282 -0.1569  0.5934
  109MOL    C6341319   4.553   4.199   4.522 -0.0171 -0.3708 -0.0730
  109MOL    C6441320   4.603   4.120   4.643  1.2845  0.0051 -0.4356
  109MOL    C6541321   4.450   3.896   4.829 -1.1661 -0.0649  0.4877
  109MOL    H6641322   4.430   4.097   4.946 -0.3565 -0.3545 -0.7698
  109MOL    H6741323   4.506   4.240   4.794  0.9863 -0.9801  1.9374
  109MOL    H6841324   4.291   4.208   4.728  1.1504  0.1187  1.7396
  109MOL    H6941325   4.328   4.065   4.625  1.3131 -0.4874 -0.4873
  109MOL    H7041326   4.412   4.348   4.572 -0.5145  0.1255 -0.7017
  109MOL    H7141327   4.332   4.219   4.474 -0.0999 -0.1703  0.3733
  109MOL    H7241328   4.622   4.281   4.502 -0.1319 -0.2445  0.0475
  109MOL    H7341329   4.558   4.146   4.427 -0.7423  1.1720 -0.9788
  109MOL    H7441330   4.617   4.016   4.612 -4.1065 -0.9653 -0.0991
  109MOL    H7541331   4.700   4.160   4.671  1.4770 -1.1699  0.6366
  109MOL    H7641332   4.534   3.828   4.824 -1.2573 -0.3388  2.2581
  109MOL    H7741333   4.424   3.890   4.724  1.6048 -0.6348 -0.1990
  109MOL    C7841334   4.341   3.821   4.915  0.1749  0.2622 -0.1919
  109MOL    C7941335   4.200   3.834   4.844  0.0921 -0.5436 -0.5045
  109MOL    C8041336   4.074   3.817   4.938  0.2786 -0.0491  0.1815
  109MOL    C8141337   3.969   3.827   4.829 -0.0501 -0.3465  0.2993
  109MOL    C8241338   4.022   3.737   4.718  0.7409  0.7034  0.0088
  109MOL    C8341339   4.170   3.750   4.721  0.1663  0.3433 -0.6650
  109MOL    C8441340   4.369   3.674   4.954  0.6960 -0.3811  0.5433
  109MOL    H8541341   4.337   3.884   5.004 -0.2904 -1.1155  0.7894
  109MOL    H8641342   4.192   3.938   4.813 -1.3356 -0.4547  0.1153
  109MOL    H8741343   4.075   3.891   5.018  1.6467 -1.1057  1.1633
  109MOL    H8841344   4.065   3.718   4.983 -1.1396  0.1432  0.3677
  109MOL    H8941345   3.966   3.932   4.802  0.2647 -0.3435  0.2759
  109MOL    H9041346   3.870   3.800   4.867 -1.5085  1.1874 -2.2904
  109MOL    H9141347   4.005   3.638   4.760  0.5826  1.8546  2.7997
  109MOL    H9241348   3.979   3.751   4.619  0.0374 -2.1282 -0.1136
  109MOL    H9341349   4.204   3.647   4.733  1.9211  1.0976  1.1602
  109MOL    H9441350   4.212   3.797   4.632 -0.3960  1.1177 -0.5288
  109MOL    H9541351   4.413   3.617   4.872 -0.0404 -0.8104  0.4441
  109MOL    H9641352   4.280   3.612   4.961 -1.1407  2.3591  2.4328
  109MOL    C9741353   4.446   3.663   5.085  0.1481 -0.1665 -0.3591
  109MOL    C9841354   4.552   3.549   5.100  0.2944 -0.0035 -0.1245
  109MOL    C9941355   4.504   3.411   5.067 -0.0912  0.4758 -0.4143
  109MOL   C10041356   4.633   3.329   5.030  0.3499 -0.1652 -0.3674
  109MOL   C10141357   4.743   3.436   4.991  0.3904  0.3195 -0.3359
  109MOL   C10241358   4.682   3.575   5.013  0.3036  0.4505 -0.5231
  109MOL   C10341359   4.344   3.669   5.208 -0.4476 -0.2957 -0.1712
  109MOL   H10441360   4.510   3.752   5.086 -2.0629  1.4619  0.5277
  109MOL   H10541361   4.598   3.546   5.198  0.1221 -0.9890 -0.0654
  109MOL   H10641362   4.459   3.390   5.164  2.8880 -2.0276  0.5193
  109MOL   H10741363   4.432   3.415   4.986  0.6785  0.4283 -1.1125
  109MOL   H10841364   4.619   3.249   4.958  0.1700 -1.8553  1.5148
  109MOL   H10941365   4.662   3.276   5.120 -1.9817 -0.0746  0.4565
  109MOL   H11041366   4.759   3.440   4.883 -1.6546  0.7363 -0.6503
  109MOL   H11141367   4.843   3.426   5.033  1.1597  1.8701 -1.7815
  109MOL   H11241368   4.750   3.638   5.070  0.5547 -1.4830  1.4040
  109MOL   H11341369   4.679   3.628   4.918  0.6951 -1.0097 -1.3696
  109MOL   H11441370   4.285   3.761   5.207  1.8910  1.2742 -0.8830
  109MOL   H11541371   4.282   3.582   5.192 -0.6202 -0.1616 -0.2295
  109MOL   C11641372   4.399   3.659   5.354  0.5701  0.6058  0.3089
  109MOL   C11741373   4.521   3.760   5.390 -0.5314 -0.4154  0.0755
  109MOL   C11841374   4.496   3.907   5.397 -0.4242  0.8967 -0.5420
  109MOL   C11941375   4.605   3.964   5.488 -0.3728 -1.0746 -0.2446
  109MOL   C12041376   4.617   3.855   5.593  0.5332  0.7042  0.1142
  109MOL   C12141377   4.598   3.723   5.511  0.3179  0.3450 -0.4118
  109MOL   C12241378   4.284   3.658   5.463  0.1947  0.2395 -0.2948
  109MOL   H12341379   4.436   3.557   5.364 -0.8528  0.1980  1.4650
  109MOL   H12441380   4.582   3.755   5.300  1.6790 -4.1723  1.6489
  109MOL   H12541381   4.505   3.949   5.297 -1.5638  3.1357  0.2590
  109MOL   H12641382   4.392   3.917   5.429 -0.0621 -0.6590  1.2419
  109MOL   H12741383   4.555   4.056   5.520 -0.1549 -0.6608 -1.0685
  109MOL   H12841384   4.697   3.982   5.432  0.4013  0.8099  1.5735
  109MOL   H12941385   4.544   3.873   5.673  1.0108  0.4884  0.6015
  109MOL   H13041386   4.716   3.860   5.639  0.4527 -0.8851  0.5051
  109MOL   H13141387   4.699   3.687   5.496  0.9240  0.7436  2.3184
  109MOL   H13241388   4.546   3.642   5.562 -0.3934  0.3779 -1.0791
  109MOL   H13341389   4.239   3.757   5.463  0.8207  0.5354 -1.5984
  109MOL   H13441390   4.318   3.646   5.566 -3.1469  0.4248  0.8673
  109MOL   C13541391   4.188   3.532   5.461 -0.8471 -0.1914  0.4302
  109MOL   C13641392   4.055   3.569   5.531  0.5077  0.8701 -0.7522
  109MOL   C13741393   4.056   3.593   5.687 -0.1162 -0.3269  0.7449
  109MOL   C13841394   3.915   3.595   5.732  0.2293 -0.7675 -0.0365
  109MOL   C13941395   3.836   3.525   5.621  0.3233  0.1670  0.2437
  109MOL   C14041396   3.932   3.479   5.518 -0.0121  0.1814  0.3078
  109MOL   C14141397   4.246   3.395   5.516 -0.0015 -0.2530  0.3595
  109MOL   H14241398   4.157   3.518   5.358 -2.7893 -2.4454  1.2777
  109MOL   H14341399   4.021   3.656   5.474 -1.1869 -1.0044 -2.7130
  109MOL   H14441400   4.102   3.505   5.732  1.6473 -0.3281 -0.9770
  109MOL   H14541401   4.099   3.690   5.710  0.0598 -0.3100  0.3573
  109MOL   H14641402   3.889   3.701   5.731 -0.7108 -1.0044 -0.6051
  109MOL   H14741403   3.885   3.548   5.826 -0.6482  0.5917  0.3683
  109MOL   H14841404   3.758   3.593   5.587  1.3901  1.4889  0.3789
  109MOL   H14941405   3.794   3.431   5.655  0.4315  0.1410  0.3049
  109MOL   H15041406   3.953   3.372   5.518 -0.6555  0.0539  1.3477
  109MOL   H15141407   3.895   3.501   5.418 -1.6275  1.7190  1.2177
  109MOL   H15241408   4.177   3.338   5.577 -1.0182 -1.3094 -1.7442
  109MOL   H15341409   4.333   3.414   5.580  0.6319 -2.0398  0.0530
  109MOL   C15441410   4.281   3.299   5.409 -0.4781  0.1678 -0.5322
  109MOL   C15541411   4.400   3.205   5.434 -0.0727  0.1939 -0.7586
  109MOL   C15641412   4.388   3.128   5.562  0.4008 -0.8104  0.0819
  109MOL   C15741413   4.529   3.103   5.618  0.2658 -0.4184  0.8207
  109MOL   C15841414   4.627   3.158   5.515  0.0244 -0.0353  0.3287
  109MOL   C15941415   4.544   3.259   5.436 -0.0576 -0.8571 -0.8462
  109MOL   C16041416   4.156   3.215   5.367  0.4279  0.3129  0.5002
  109MOL   H16141417   4.314   3.357   5.322 -1.6152  2.9134  0.8189
  109MOL   H16241418   4.389   3.137   5.350  0.3120  0.0995 -0.7351
  109MOL   H16341419   4.330   3.173   5.643  0.0206  1.7208 -1.5436
  109MOL   H16441420   4.347   3.029   5.546  0.3795 -0.9700  1.1138
  109MOL   H16541421   4.540   3.166   5.706 -1.8088  1.7839 -0.4502
  109MOL   H16641422   4.554   3.000   5.645 -0.4656 -0.5379  1.0394
  109MOL   H16741423   4.678   3.082   5.455  0.5238  0.2050  0.4463
  109MOL   H16841424   4.703   3.206   5.577 -1.8251  1.1843  1.7153
  109MOL   H16941425   4.577   3.273   5.333  1.8728 -0.4867 -0.2058
  109MOL   H17041426   4.544   3.354   5.490 -2.2964 -1.0160 -0.5308
  109MOL   H17141427   4.068   3.274   5.393 -0.9644 -0.9967 -1.0832
  109MOL   H17241428   4.147   3.138   5.444 -0.4202  1.4218  1.5352
  109MOL   C17341429   4.159   3.148   5.229 -0.1590  0.4593 -0.4436
  109MOL   C17441430   4.050   3.219   5.138  0.3538 -0.1873  0.3638
  109MOL   C17541431   4.069   3.179   4.988  0.4581  0.0024 -0.5097
  109MOL   C17641432   3.996   3.279   4.903  0.3956 -0.0516  0.1713
  109MOL   C17741433   3.983   3.406   4.998  0.3508 -0.1632 -0.8211
  109MOL   C17841434   4.061   3.373   5.129  0.2201 -0.2521  0.1367
  109MOL   C17941435   4.119   2.991   5.228  0.1453 -0.6444 -0.2451
  109MOL   H18041436   4.257   3.164   5.185  0.2836 -0.0805  0.3373
  109MOL   H18141437   3.949   3.202   5.175  0.5494  1.6413  1.8368
  109MOL   H18241438   4.052   3.073   4.974  1.0851 -0.1411 -0.2298
  109MOL   H18341439   4.174   3.189   4.962  0.1662 -1.0536 -2.1090
  109MOL   H18441440   4.048   3.299   4.809  1.4010  0.3111  0.7918
  109MOL   H18541441   3.895   3.244   4.879  0.3658 -0.0754  0.3313
  109MOL   H18641442   3.877   3.416   5.023  0.0643  0.8569 -2.3516
  109MOL   H18741443   4.021   3.492   4.942 -0.1884  1.2771  0.9462
  109MOL   H18841444   4.161   3.414   5.112 -0.6584  1.8920 -0.1348
  109MOL   H18941445   4.024   3.427   5.216  0.5224 -0.0391  0.1350
  109MOL   H19041446   4.020   2.979   5.270  0.5524 -0.2335  0.8641
  109MOL   H19141447   4.119   2.951   5.127  1.4932 -0.4305 -0.3503
  109MOL   C19241448   4.197   2.886   5.309 -0.5005 -0.8993  0.1668
  109MOL   C19341449   4.343   2.866   5.253 -0.8391  0.2797  0.3987
  109MOL   C19441450   4.350   2.803   5.121 -0.4587  0.6746  0.9034
  109MOL   C19541451   4.497   2.741   5.113 -0.5273 -0.2055  0.6226
  109MOL   C19641452   4.559   2.750   5.255  0.3664 -0.5838 -0.3370
  109MOL   C19741453   4.431   2.776   5.338  0.2384  0.1180  0.4613
  109MOL   C19841454   4.119   2.749   5.314  0.2342 -0.4257  0.5814
  109MOL   H19941455   4.218   2.918   5.411  1.3234  2.6285 -1.2294
  109MOL   H20041456   4.400   2.959   5.242  1.3348 -1.2084 -1.2216
  109MOL   H20141457   4.337   2.889   5.055 -1.8726  0.3964  0.8096
  109MOL   H20241458   4.275   2.730   5.088  2.0435 -0.7274 -2.0132
  109MOL   H20341459   4.479   2.637   5.086 -0.2639  0.3030 -1.5390
  109MOL   H20441460   4.563   2.795   5.045 -0.5302  0.7336  1.3464
  109MOL   H20541461   4.631   2.831   5.265 -1.5380  1.6689 -3.9027
  109MOL   H20641462   4.623   2.664   5.277  2.7061  1.3512  0.6572
  109MOL   H20741463   4.463   2.830   5.427  0.4639 -0.0622  0.4885
  109MOL   H20841464   4.378   2.683   5.359 -1.6069  1.0778  0.1543
  109MOL   H20941465   4.059   2.738   5.224  0.7167 -0.6312  0.2849
  109MOL   H21041466   4.186   2.663   5.311  0.1061 -0.5866  1.9369
  109MOL   C21141467   4.032   2.704   5.434  0.2908  0.2459 -0.1464
  109MOL   C21241468   3.933   2.597   5.385  0.0387 -0.3948 -0.2367
  109MOL   C21341469   3.841   2.533   5.489  0.6798  0.5001  0.5710
  109MOL   C21441470   3.715   2.484   5.423 -0.4228 -0.2069  1.0371
  109MOL   C21541471   3.694   2.578   5.297 -0.0671 -0.4446 -0.0397
  109MOL   C21641472   3.828   2.646   5.279 -0.0468  0.5250  0.2811
  109MOL   C21741473   4.114   2.671   5.568 -0.3437 -0.7106 -0.3322
  109MOL   H21841474   3.968   2.788   5.463  1.0687  0.8366 -0.1203
  109MOL   H21941475   3.983   2.513   5.337  0.9288 -0.2481  0.4307
  109MOL   H22041476   3.887   2.456   5.551  2.4088  0.0976 -1.1519
  109MOL   H22141477   3.816   2.607   5.565  3.4486  1.2779  0.7689
  109MOL   H22241478   3.721   2.382   5.385 -0.7435 -0.1005  0.6857
  109MOL   H22341479   3.626   2.488   5.487 -0.1566 -1.6484  1.5142
  109MOL   H22441480   3.625   2.658   5.322  1.1681 -0.1068  2.4600
  109MOL   H22541481   3.656   2.532   5.206  1.2138 -2.0359  0.1957
  109MOL   H22641482   3.876   2.632   5.182 -0.1097 -0.5235  0.3881
  109MOL   H22741483   3.836   2.755   5.279  1.6200  0.4378  1.7937
  109MOL   H22841484   4.220   2.678   5.541  0.3397  0.2434  2.5168
  109MOL   H22941485   4.101   2.569   5.603  2.0508 -1.0749 -0.4083
  109MOL   C23041486   4.110   2.773   5.690  0.1163 -0.8962  0.8309
  109MOL   C23141487   4.223   2.746   5.800  0.2928  0.4311 -0.1635
  109MOL   C23241488   4.254   2.601   5.824  0.3065 -0.1373 -0.3398
  109MOL   C23341489   4.393   2.602   5.898 -0.5826 -0.3671  0.4926
  109MOL   C23441490   4.464   2.721   5.836  0.7512 -0.0228 -0.3748
  109MOL   C23541491   4.356   2.802   5.767  0.3234 -0.2184  0.5887
  109MOL   C23641492   3.968   2.759   5.751 -0.2283  0.2302 -0.1643
  109MOL   H23741493   4.114   2.872   5.646  3.6118  0.7707  4.6223
  109MOL   H23841494   4.190   2.797   5.890 -0.6933  1.0274 -0.8562
  109MOL   H23941495   4.184   2.540   5.880 -0.9578  0.1915 -1.5356
  109MOL   H24041496   4.274   2.557   5.727  0.7838  0.7242 -0.6409
  109MOL   H24141497   4.372   2.625   6.002 -1.3158 -0.4278  0.3584
  109MOL   H24241498   4.437   2.504   5.876 -1.0556 -0.3288 -0.6314
  109MOL   H24341499   4.550   2.710   5.770  2.4749 -1.4246  2.0360
  109MOL   H24441500   4.493   2.777   5.925 -0.7667  0.2471 -0.0493
  109MOL   H24541501   4.376   2.784   5.661 -0.5746 -0.1091  0.3929
  109MOL   H24641502   4.380   2.907   5.785 -0.0194  0.2601 -1.5298
  109MOL   H24741503   3.949   2.653   5.768  0.2904  0.2625  0.6489
  109MOL   H24841504   3.898   2.801   5.679 -0.4838  2.1956  1.2203
  109MOL   C24941505   3.922   2.833   5.879 -0.0911 -0.1328 -1.0806
  109MOL   C25041506   3.967   2.976   5.882 -0.0947  0.3202  0.1191
  109MOL   C25141507   3.922   3.068   5.995 -0.0285  0.0018  0.1144
  109MOL   C25241508   3.959   3.209   5.950 -0.3411 -0.8794 -0.0750
  109MOL   C25341509   3.913   3.196   5.799 -0.1507  0.6590 -0.0697
  109MOL   C25441510   3.911   3.050   5.760  0.1298 -0.1347 -0.2342
  109MOL   C25541511   3.958   2.752   6.010  0.2510 -0.5844  0.5346
  109MOL   H25641512   3.815   2.852   5.884  0.1069  1.1571 -1.5009
  109MOL   H25741513   4.075   2.986   5.869 -0.2639  1.0849 -0.7123
  109MOL   H25841514   3.965   3.054   6.094 -0.7795  0.4911  0.5157
  109MOL   H25941515   3.817   3.054   6.020 -0.3523 -1.1471 -1.7293
  109MOL   H26041516   4.068   3.220   5.949 -0.3925 -0.2882  0.9945
  109MOL   H26141517   3.918   3.282   6.018 -0.0782  0.1203 -0.9835
  109MOL   H26241518   3.976   3.263   5.740 -0.5099 -0.4781 -1.7475
  109MOL   H26341519   3.808   3.223   5.790 -0.2371 -0.3592 -2.3943
  109MOL   H26441520   3.966   3.011   5.675  0.6691  2.6452 -1.2246
  109MOL   H26541521   3.804   3.031   5.749  0.3769 -1.5313 -0.2115
  109MOL   H26641522   4.035   2.677   5.995  1.8614  0.8181  1.4779
  109MOL   H26741523   4.002   2.833   6.069 -2.2041  0.9753  0.2872
  109MOL   C26841524   3.850   2.682   6.087  0.2627 -0.6588 -0.4183
  109MOL   C26941525   3.879   2.655   6.237 -0.2179  0.3089 -0.9918
  109MOL   C27041526   3.889   2.783   6.321 -0.1248 -0.0062 -0.5376
  109MOL   C27141527   3.957   2.729   6.445 -0.8947  0.0886  0.3355
  109MOL   C27241528   4.045   2.609   6.405  0.3819 -0.2941 -0.3156
  109MOL   C27341529   4.007   2.581   6.256  0.5747 -0.2505  0.1253
  109MOL   C27441530   3.804   2.549   6.024  1.1769 -0.6728 -0.1172
  109MOL   H27541531   3.765   2.750   6.092  1.0026  0.2333  0.3359
  109MOL   H27641532   3.798   2.595   6.279  1.1787 -1.5854 -0.9415
  109MOL   H27741533   3.965   2.843   6.270  2.8538 -1.5254  1.9311
  109MOL   H27841534   3.803   2.844   6.348  0.7342 -0.0979  2.5843
  109MOL   H27941535   4.014   2.805   6.499 -0.2494 -0.3482  0.2775
  109MOL   H28041536   3.887   2.710   6.526  0.8177  0.5814  1.9626
  109MOL   H28141537   4.021   2.529   6.475  0.5180  0.0031  0.0717
  109MOL   H28241538   4.149   2.638   6.416  0.1460  0.6327 -0.4302
  109MOL   H28341539   3.980   2.478   6.235 -0.4952  0.2540 -1.0093
  109MOL   H28441540   4.090   2.613   6.193  0.0385 -0.6858 -0.8109
  109MOL   H28541541   3.806   2.464   6.093  0.3859  0.3837  1.2412
  109MOL   H28641542   3.875   2.522   5.947 -1.1688 -1.2287 -2.1286
  109MOL   C28741543   3.657   2.547   5.973  0.4868  0.5863 -0.3359
  109MOL   C28841544   3.613   2.409   5.904 -0.9605 -0.9780 -0.9950
  109MOL   C28941545   3.704   2.366   5.787  0.2159 -0.3242 -0.2285
  109MOL   C29041546   3.703   2.216   5.789 -0.1156  0.9551  0.6947
  109MOL   C29141547   3.640   2.166   5.917 -0.0526  0.0874 -0.0880
  109MOL   C29241548   3.620   2.292   6.000  0.0973  0.2789 -0.0634
  109MOL   C29341549   3.550   2.588   6.079  0.0488 -0.3916  0.1083
  109MOL   H29441550   3.666   2.623   5.894  0.6144  0.6892 -0.2227
  109MOL   H29541551   3.509   2.417   5.873 -0.9426 -1.1441 -1.1001
  109MOL   H29641552   3.663   2.404   5.694  0.5148 -0.0925 -0.2645
  109MOL   H29741553   3.805   2.404   5.802  0.5061 -1.0896 -0.1947
  109MOL   H29841554   3.646   2.172   5.707  0.5360 -0.9589  1.2521
  109MOL   H29941555   3.796   2.162   5.772  0.0279  1.2182  0.6461
  109MOL   H30041556   3.698   2.089   5.968  0.4049 -0.2428 -1.0846
  109MOL   H30141557   3.540   2.127   5.897  0.2718 -0.4490 -0.6797
  109MOL   H30241558   3.714   2.285   6.055 -0.1135 -1.5261  0.0859
  109MOL   H30341559   3.537   2.285   6.071 -0.7326  3.4477 -0.6351
  109MOL   H30441560   3.585   2.682   6.124  0.8977  0.1636 -1.6602
  109MOL   H30541561   3.559   2.506   6.150 -0.4275 -0.6401 -0.1200
  109MOL   C30641562   3.409   2.628   6.028 -0.0068 -0.0363  0.0882
  109MOL   C30741563   3.318   2.693   6.128 -0.3627 -0.5973  0.3629
  109MOL   C30841564   3.164   2.692   6.106  0.3428  0.4077  0.4648
  109MOL   C30941565   3.097   2.697   6.246  0.3401 -0.1160  0.4894
  109MOL   C31041566   3.207   2.661   6.346  0.2242 -0.6998 -0.3637
  109MOL   C31141567   3.323   2.612   6.263  0.6979  0.2316  0.3888
  109MOL   C31241568   3.422   2.724   5.902  0.1215  0.4956 -0.1618
  109MOL   H31341569   3.359   2.537   5.994  0.3934 -1.0775  2.2184
  109MOL   H31441570   3.348   2.795   6.152  2.6653 -1.8342  2.0182
  109MOL   H31541571   3.133   2.605   6.048  1.2442  1.0885 -1.0652
  109MOL   H31641572   3.135   2.778   6.045 -0.5270  0.2753  0.6907
  109MOL   H31741573   3.055   2.796   6.265 -3.0484 -1.2836 -0.4289
  109MOL   H31841574   3.015   2.625   6.248  1.4209 -1.6064 -3.4303
  109MOL   H31941575   3.187   2.596   6.431  0.7483  0.4108  0.6156
  109MOL   H32041576   3.239   2.758   6.384  1.2865 -0.6914 -1.2316
  109MOL   H32141577   3.415   2.636   6.316  0.2891  3.6879 -0.3382
  109MOL   H32241578   3.310   2.506   6.240  1.9400  0.0138  0.6132
  109MOL   H32341579   3.521   2.769   5.888  0.4658  0.1366  1.0295
  109MOL   H32441580   3.347   2.801   5.916 -1.3929 -1.3972  2.6518
  109MOL   C32541581   3.384   2.669   5.767 -0.1041 -0.1661  0.0622
  109MOL   C32641582   3.405   2.779   5.656  0.2997  0.5709 -0.2377
  109MOL   C32741583   3.551   2.819   5.626  0.2576  0.5125  0.6730
  109MOL   C32841584   3.539   2.933   5.518 -0.7711 -0.1116 -0.0934
  109MOL   C32941585   3.411   3.004   5.561  0.3531  0.5726 -0.9967
  109MOL   C33041586   3.335   2.916   5.658  0.0769  0.3535  0.4857
  109MOL   C33141587   3.237   2.617   5.764  0.4092  0.4085 -0.1958
  109MOL   H33241588   3.456   2.590   5.744 -0.4554 -1.0233  1.7771
  109MOL   H33341589   3.371   2.734   5.563 -1.7340 -0.2762  0.8787
  109MOL   H33441590   3.610   2.730   5.603 -0.3923  0.1800  0.2974
  109MOL   H33541591   3.591   2.865   5.717 -0.3029  0.7013  0.8253
  109MOL   H33641592   3.529   2.888   5.419 -0.1485 -0.2351 -0.1044
  109MOL   H33741593   3.625   3.000   5.520  0.1809 -1.3248  1.4719
  109MOL   H33841594   3.347   3.022   5.474 -1.3188 -5.3449 -1.1991
  109MOL   H33941595   3.433   3.096   5.615  0.0701 -0.0347  0.1699
  109MOL   H34041596   3.232   2.893   5.629 -0.0154  0.1293  1.0042
  109MOL   H34141597   3.337   2.955   5.759  2.1847  0.6236  0.3641
  109MOL   H34241598   3.171   2.703   5.774 -0.9340 -0.4471 -1.4377
  109MOL   H34341599   3.218   2.547   5.845  0.5218 -1.2532 -1.5869
  109MOL   C34441600   3.178   2.545   5.643 -0.6266  0.1004 -0.0819
  109MOL   C34541601   3.034   2.486   5.671  0.7337 -0.4054 -1.0092
  109MOL   C34641602   2.929   2.579   5.728 -0.1216 -0.0764 -0.0499
  109MOL   C34741603   2.815   2.484   5.770 -0.2888 -0.1356  0.2848
  109MOL   C34841604   2.885   2.359   5.820 -0.0331 -0.9284  0.3131
  109MOL   C34941605   3.028   2.367   5.763  0.0672  0.6186  0.5332
  109MOL   C35041606   3.287   2.447   5.589  0.0661  0.3239 -0.2926
  109MOL   H35141607   3.156   2.629   5.577  0.4137 -0.3398 -1.0093
  109MOL   H35241608   2.990   2.450   5.578  2.0343 -4.1008 -0.2704
  109MOL   H35341609   2.889   2.662   5.670 -0.1704  1.9820  2.7966
  109MOL   H35441610   2.956   2.641   5.814 -0.9504  2.3237 -1.4713
  109MOL   H35541611   2.762   2.531   5.853  1.3047 -0.3152  1.4323
  109MOL   H35641612   2.748   2.482   5.684  2.2430  0.5285 -1.7789
  109MOL   H35741613   2.833   2.267   5.793  0.1478 -0.1563 -2.8206
  109MOL   H35841614   2.884   2.373   5.928 -1.8175  1.2645  0.0438
  109MOL   H35941615   3.095   2.377   5.849  0.0576  1.9326  0.3891
  109MOL   H36041616   3.049   2.279   5.703  0.4432  0.9705  0.1460
  109MOL   H36141617   3.333   2.393   5.672 -0.2790 -0.2376 -0.4656
  109MOL   H36241618   3.360   2.514   5.542  0.0843  1.2448  1.0115
  109MOL   C36341619   3.246   2.353   5.480 -0.2920 -0.2301  0.1920
  109MOL   C36441620   3.202   2.427   5.354  0.1837 -0.5007 -0.5052
  109MOL   C36541621   3.107   2.346   5.269  0.2388 -0.4120  0.2591
  109MOL   C36641622   3.102   2.420   5.132  0.7185 -0.2888 -0.1969
  109MOL   C36741623   3.252   2.465   5.125 -0.2937 -0.3466  0.0333
  109MOL   C36841624   3.315   2.477   5.262  0.2350  0.5122 -0.5299
  109MOL   C36941625   3.358   2.244   5.458 -0.4605 -0.2048  0.4565
  109MOL   H37041626   3.156   2.302   5.512 -0.1915 -0.8205 -0.4592
  109MOL   H37141627   3.149   2.518   5.381  0.0831 -0.7430  0.1217
  109MOL   H37241628   3.149   2.247   5.254 -1.0509 -0.5726 -2.6037
  109MOL   H37341629   3.011   2.343   5.320 -0.9996  0.3581 -1.9353
  109MOL   H37441630   3.071   2.352   5.053 -0.5355  1.3063 -1.1161
  109MOL   H37541631   3.034   2.505   5.141 -1.2830 -2.0119  1.6181
  109MOL   H37641632   3.281   2.374   5.073  1.1391 -0.5748  1.2131
  109MOL   H37741633   3.278   2.542   5.053  1.7938 -1.9224 -0.9291
  109MOL   H37841634   3.352   2.575   5.290  1.8025 -0.8457  2.4140
  109MOL   H37941635   3.402   2.412   5.265 -0.0593  0.0149 -2.0917
  109MOL   H38041636   3.452   2.295   5.439 -0.9328  1.0526  1.4015
  109MOL   H38141637   3.324   2.188   5.371 -2.3987  1.6060 -0.0083
  109MOL   H38241638   3.368   2.176   5.543 -0.9133  0.6453  1.1959
  110MOL     C141639   3.520   6.358   5.999 -0.6545  1.1652 -0.0851
  110MOL     C241640   3.627   6.298   6.099  0.1795  0.6313 -0.1123
  110MOL     C341641   3.768   6.346   6.072 -0.2666  0.1409 -0.6503
  110MOL     C441642   3.858   6.230   6.110  0.5735  0.3614  0.8805
  110MOL     C541643   3.766   6.108   6.150  0.6022 -0.2899  0.2073
  110MOL     C641644   3.636   6.148   6.079 -0.9504 -0.0668 -0.2659
  110MOL     C741645   3.375   6.327   6.037  0.5620 -0.7287 -0.2779
  110MOL     H841646   3.533   6.466   6.002  1.7372  0.9414 -1.0935
  110MOL     H941647   3.592   6.323   6.199  0.9151 -0.2554  0.3747
  110MOL    H1041648   3.780   6.382   5.970  0.1216  2.6423  0.2416
  110MOL    H1141649   3.793   6.426   6.141  0.2099 -1.2883  0.8507
  110MOL    H1241650   3.922   6.199   6.028 -2.7174  1.3672 -2.1788
  110MOL    H1341651   3.933   6.261   6.184 -0.2706 -1.7683  2.6854
  110MOL    H1441652   3.813   6.011   6.138  2.3575  0.2226  2.6209
  110MOL    H1541653   3.737   6.107   6.255 -0.5318 -1.0940 -0.1065
  110MOL    H1641654   3.549   6.101   6.125 -0.7222 -1.4683 -1.2506
  110MOL    H1741655   3.630   6.118   5.975  1.0872 -0.4093 -0.2913
  110MOL    H1841656   3.383   6.219   6.047  1.5544 -0.8577 -2.2599
  110MOL    H1941657   3.346   6.364   6.135  0.2416 -0.9014 -0.3067
  110MOL    H2041658   3.536   6.325   5.896  1.1220 -2.5689  1.2743
  110MOL    C2141659   3.268   6.350   5.924 -0.1613  0.2497 -0.3097
  110MOL    C2241660   3.124   6.298   5.962 -0.3158 -0.0126 -0.2493
  110MOL    C2341661   3.064   6.366   6.090 -0.1269 -0.5113  0.4201
  110MOL    C2441662   2.959   6.267   6.138 -0.1449  0.0713 -0.8671
  110MOL    C2541663   3.010   6.124   6.105 -0.3169 -0.2540  0.5719
  110MOL    C2641664   3.111   6.143   5.986 -0.6139 -0.5397 -0.4651
  110MOL    C2741665   3.265   6.504   5.885 -0.2284  0.6021 -0.4077
  110MOL    H2841666   3.304   6.290   5.840  0.6487  0.1039  0.1375
  110MOL    H2941667   3.064   6.315   5.872  0.4241  1.8050 -0.4117
  110MOL    H3041668   3.016   6.459   6.061 -0.2077 -0.6055  0.2479
  110MOL    H3141669   3.138   6.385   6.168  0.6029 -2.2597  0.1770
  110MOL    H3241670   2.925   6.275   6.241 -2.6817 -2.5434 -1.4299
  110MOL    H3341671   2.869   6.288   6.079  0.3399  1.6832 -1.0468
  110MOL    H3441672   2.928   6.057   6.082  1.0305 -1.1590 -1.7294
  110MOL    H3541673   3.074   6.091   6.187 -1.5142  0.6815  1.9317
  110MOL    H3641674   3.068   6.101   5.895  0.0058 -0.7672 -0.6597
  110MOL    H3741675   3.210   6.101   6.007  0.1060  2.0138  1.5546
  110MOL    H3841676   3.218   6.554   5.970 -0.9225  1.1754 -1.1199
  110MOL    H3941677   3.368   6.537   5.874 -0.2055  1.4828  2.0837
  110MOL    C4041678   3.194   6.547   5.755 -0.4881 -0.4816  0.9190
  110MOL    C4141679   3.177   6.701   5.756 -0.3193 -0.1187  0.1835
  110MOL    C4241680   3.300   6.793   5.780  0.5838 -0.3431 -0.7431
  110MOL    C4341681   3.239   6.931   5.796 -0.0650 -0.2390  0.3217
  110MOL    C4441682   3.100   6.905   5.873  0.3298  0.2477 -0.7828
  110MOL    C4541683   3.065   6.761   5.845  0.5532  0.2531 -0.0702
  110MOL    C4641684   3.277   6.506   5.632  0.4669  0.4682  1.1612
  110MOL    H4741685   3.095   6.504   5.752 -0.5556 -0.1773 -1.9471
  110MOL    H4841686   3.145   6.713   5.653 -1.5764  1.0772  0.6799
  110MOL    H4941687   3.355   6.790   5.686 -0.2014  2.1089 -1.3275
  110MOL    H5041688   3.360   6.765   5.867  1.5248  3.2752 -0.1494
  110MOL    H5141689   3.223   6.967   5.694 -0.6765 -0.8990  0.1777
  110MOL    H5241690   3.308   6.998   5.847  0.6180  0.8847 -1.9880
  110MOL    H5341691   3.104   6.920   5.981  1.2175  2.1236 -1.0533
  110MOL    H5441692   3.022   6.973   5.839  0.1976  1.2997  1.5169
  110MOL    H5541693   3.044   6.706   5.937 -0.9281 -0.8910 -1.0702
  110MOL    H5641694   2.969   6.755   5.794  0.1517 -1.1133  0.8208
  110MOL    H5741695   3.363   6.571   5.617  0.9351 -0.7853 -1.9631
  110MOL    H5841696   3.329   6.410   5.641 -1.0623 -0.3310  1.6987
  110MOL    C5941697   3.187   6.482   5.507 -0.8889 -0.0246  0.7754
  110MOL    C6041698   3.289   6.502   5.383  0.4960  0.0438 -0.6829
  110MOL    C6141699   3.428   6.431   5.388  0.0331 -1.6217 -0.5138
  110MOL    C6241700   3.541   6.527   5.355  0.2583 -0.1758  0.0409
  110MOL    C6341701   3.468   6.650   5.294 -0.2190  0.9435  0.5058
  110MOL    C6441702   3.323   6.650   5.352 -0.3736  0.5128 -0.1054
  110MOL    C6541703   3.098   6.354   5.516 -0.9102 -0.1113  0.1987
  110MOL    H6641704   3.112   6.560   5.493 -0.8896 -0.1421  0.1249
  110MOL    H6741705   3.230   6.450   5.308  0.2856  0.1614 -0.6011
  110MOL    H6841706   3.428   6.349   5.316  1.0480 -0.5308 -1.7734
  110MOL    H6941707   3.449   6.385   5.485  1.5702 -0.4373 -0.2720
  110MOL    H7041708   3.601   6.493   5.271 -0.1319  1.5144 -0.9265
  110MOL    H7141709   3.601   6.552   5.443  0.5489 -0.7392  0.0033
  110MOL    H7241710   3.459   6.639   5.186  0.0638  2.6646  0.2962
  110MOL    H7341711   3.520   6.745   5.305  0.8399  0.3272  0.8868
  110MOL    H7441712   3.320   6.709   5.444 -0.1457 -0.7074  0.7028
  110MOL    H7541713   3.241   6.695   5.296 -2.5142 -0.8552  1.8363
  110MOL    H7641714   3.066   6.347   5.620  1.2419 -0.7164  0.8515
  110MOL    H7741715   3.161   6.266   5.503 -0.5078  0.3600 -1.0446
  110MOL    C7841716   2.978   6.349   5.422  0.2386  0.1784 -0.1507
  110MOL    C7941717   3.001   6.234   5.318  0.0110  0.2251 -0.9009
  110MOL    C8041718   2.978   6.280   5.173  0.4082  0.1066  1.2206
  110MOL    C8141719   2.893   6.168   5.101 -0.2510 -0.0112 -0.6398
  110MOL    C8241720   2.913   6.046   5.177  0.3291 -0.3672  0.6743
  110MOL    C8341721   2.916   6.098   5.326 -0.2856 -0.2299  0.3038
  110MOL    C8441722   2.844   6.353   5.499 -0.7341  0.4496  0.7518
  110MOL    H8541723   2.975   6.443   5.366  0.2347  1.4614  1.9403
  110MOL    H8641724   3.106   6.206   5.328 -0.3859 -0.7007  0.9226
  110MOL    H8741725   3.078   6.279   5.129 -0.4755 -0.1633 -0.8177
  110MOL    H8841726   2.940   6.381   5.158 -1.6411 -1.1115 -2.1332
  110MOL    H8941727   2.921   6.160   4.996 -2.0287  1.8531 -1.3053
  110MOL    H9041728   2.787   6.192   5.109 -0.2571 -1.2542  4.1533
  110MOL    H9141729   2.835   5.975   5.150 -2.0624  2.4345  0.1040
  110MOL    H9241730   3.008   6.002   5.145  0.6074  0.1163  0.8343
  110MOL    H9341731   2.810   6.117   5.343 -0.0046  0.2485  1.6711
  110MOL    H9441732   2.961   6.030   5.399  1.3934 -0.3471 -0.8213
  110MOL    H9541733   2.859   6.273   5.571 -1.6790  0.8466  1.3929
  110MOL    H9641734   2.761   6.312   5.442  1.3691 -1.4283 -1.0161
  110MOL    C9741735   2.807   6.495   5.554 -0.1849  0.1290 -0.1271
  110MOL    C9841736   2.715   6.486   5.684 -0.0477  0.8928 -0.2732
  110MOL    C9941737   2.587   6.404   5.666 -0.2206 -0.1005  0.0656
  110MOL   C10041738   2.546   6.385   5.810  0.1379  0.1807  0.2921
  110MOL   C10141739   2.674   6.375   5.896 -0.6044  0.4109  0.2934
  110MOL   C10241740   2.787   6.430   5.800  0.2118  0.0749 -0.4296
  110MOL   C10341741   2.735   6.578   5.449 -0.5950  0.4617  0.3898
  110MOL   H10441742   2.898   6.550   5.578 -0.2679  0.3539 -0.3196
  110MOL   H10541743   2.682   6.589   5.700 -1.9524  0.1622  0.6674
  110MOL   H10641744   2.503   6.460   5.624 -1.5503  0.7034  3.6448
  110MOL   H10741745   2.605   6.308   5.618  1.0553  0.6354 -0.9528
  110MOL   H10841746   2.480   6.299   5.822 -0.6325  0.6572 -0.4699
  110MOL   H10941747   2.490   6.468   5.852 -0.6804 -0.6997  0.9708
  110MOL   H11041748   2.703   6.273   5.919 -0.2103  0.5136  0.2589
  110MOL   H11141749   2.668   6.434   5.987  0.9103  2.1075 -0.6632
  110MOL   H11241750   2.847   6.506   5.852 -1.7142  1.4616 -0.1662
  110MOL   H11341751   2.855   6.348   5.777 -0.1225 -0.3880  0.2304
  110MOL   H11441752   2.756   6.563   5.343 -0.6096 -0.0277  0.4526
  110MOL   H11541753   2.630   6.549   5.449  0.4680 -3.7328  0.5556
  110MOL   C11641754   2.737   6.733   5.467 -0.0578 -0.2588  0.2363
  110MOL   C11741755   2.883   6.794   5.434 -0.1379 -0.2532 -0.3936
  110MOL   C11841756   2.913   6.797   5.283  0.4045  0.0008 -0.4130
  110MOL   C11941757   2.954   6.944   5.245  0.5230  0.0577 -0.1016
  110MOL   C12041758   2.998   7.007   5.373 -0.0742  0.0661 -0.0734
  110MOL   C12141759   2.916   6.942   5.486  0.4779 -0.0005  0.6125
  110MOL   C12241760   2.615   6.801   5.402  0.2414 -0.0632 -0.2014
  110MOL   H12341761   2.733   6.755   5.574  0.6567  3.9468 -0.4880
  110MOL   H12441762   2.960   6.739   5.487  0.5344  1.8428  0.8570
  110MOL   H12541763   2.998   6.731   5.264  1.0357  0.5742  0.4215
  110MOL   H12641764   2.831   6.760   5.222  0.0442 -0.8058  0.5516
  110MOL   H12741765   2.867   6.997   5.206 -0.1242 -1.0939 -0.2622
  110MOL   H12841766   3.036   6.937   5.173  1.7127 -2.6087  1.4446
  110MOL   H12941767   2.973   7.112   5.361  1.5154  0.4831  0.1292
  110MOL   H13041768   3.106   6.993   5.380  0.0029  0.3624 -0.7200
  110MOL   H13141769   2.969   6.949   5.581  1.1851 -1.7492  0.3749
  110MOL   H13241770   2.824   7.000   5.489  0.5935  0.1812  0.6176
  110MOL   H13341771   2.593   6.743   5.312 -2.7436 -0.5811  0.8157
  110MOL   H13441772   2.652   6.897   5.367  0.5251  0.4742  1.5389
  110MOL   C13541773   2.485   6.799   5.488  0.2505  0.3004 -1.0529
  110MOL   C13641774   2.358   6.789   5.408  0.5918  0.2146  1.0515
  110MOL   C13741775   2.344   6.662   5.318  0.6834 -0.2304 -0.4578
  110MOL   C13841776   2.285   6.706   5.184 -0.4835  0.1954 -0.1366
  110MOL   C13941777   2.233   6.853   5.203 -0.2531 -1.1674 -0.0608
  110MOL   C14041778   2.318   6.908   5.325  0.4140 -0.0298 -0.1698
  110MOL   C14141779   2.480   6.917   5.594  0.2512  0.0701 -0.4117
  110MOL   H14241780   2.487   6.706   5.544 -2.9899 -0.6356 -2.4063
  110MOL   H14341781   2.275   6.778   5.478 -2.2727  2.5007 -1.8350
  110MOL   H14441782   2.431   6.598   5.309  1.0560 -0.2132  2.5671
  110MOL   H14541783   2.280   6.583   5.357 -0.2173  0.4168 -0.6006
  110MOL   H14641784   2.208   6.637   5.151  1.0472 -3.4383  3.4560
  110MOL   H14741785   2.369   6.697   5.115  0.9080  3.6065  0.9761
  110MOL   H14841786   2.129   6.829   5.225 -1.2996  3.4874  0.5988
  110MOL   H14941787   2.231   6.919   5.117 -0.4201  0.9212  1.4884
  110MOL   H15041788   2.405   6.968   5.295 -0.2357  1.7167  1.3082
  110MOL   H15141789   2.271   6.987   5.383  1.2696 -1.7703  3.0177
  110MOL   H15241790   2.430   7.001   5.547 -0.7793 -0.7596 -0.8365
  110MOL   H15341791   2.579   6.961   5.603  0.8170 -0.6349 -2.7855
  110MOL   C15441792   2.414   6.882   5.733  0.1885  0.3196 -0.0311
  110MOL   C15541793   2.522   6.816   5.825 -0.3166 -0.0286  0.2893
  110MOL   C15641794   2.469   6.768   5.956  0.5166 -0.6907  0.0167
  110MOL   C15741795   2.581   6.766   6.059  0.4008  0.4471  0.1745
  110MOL   C15841796   2.699   6.840   5.990 -0.0067  0.7040 -0.4312
  110MOL   C15941797   2.653   6.891   5.851  0.5204  0.9893  0.3793
  110MOL   C16041798   2.338   7.002   5.798 -0.4922 -0.8298  0.1683
  110MOL   H16141799   2.337   6.807   5.712  1.9357 -1.4220 -0.3662
  110MOL   H16241800   2.551   6.720   5.783  0.8078 -0.1443  1.2938
  110MOL   H16341801   2.402   6.848   5.988 -0.0955 -2.0975  2.3492
  110MOL   H16441802   2.395   6.687   5.961  0.4673 -0.7038 -0.8361
  110MOL   H16541803   2.543   6.810   6.151  0.9154  0.4814  0.3716
  110MOL   H16641804   2.603   6.660   6.075  2.7328  0.9386  0.3605
  110MOL   H16741805   2.780   6.770   5.975 -0.4515  0.1388 -0.2241
  110MOL   H16841806   2.741   6.924   6.047  0.4542 -0.1540  0.5183
  110MOL   H16941807   2.734   6.879   5.779 -0.6700 -1.3972 -0.6344
  110MOL   H17041808   2.640   6.998   5.862  1.6958  1.1191  0.5988
  110MOL   H17141809   2.322   7.081   5.724  1.6865 -0.8833 -0.3982
  110MOL   H17241810   2.402   7.047   5.874  1.1411 -1.5577 -0.7520
  110MOL   C17341811   2.192   6.966   5.854 -0.5494 -0.0211  0.7276
  110MOL   C17441812   2.089   6.932   5.739 -1.0470 -0.2223  0.2836
  110MOL   C17541813   1.958   7.006   5.726 -0.2079 -0.2963 -0.1802
  110MOL   C17641814   1.874   6.923   5.627 -0.5100  0.6198  0.2509
  110MOL   C17741815   1.928   6.779   5.636 -0.0217 -0.1311 -0.4234
  110MOL   C17841816   2.048   6.787   5.726  0.0832 -0.3044 -0.3557
  110MOL   C17941817   2.145   7.069   5.957  0.0778  0.1077 -0.4023
  110MOL   H18041818   2.202   6.870   5.905  0.3506 -1.4406 -2.0476
  110MOL   H18141819   2.141   6.958   5.647 -1.5702 -1.3488 -0.3440
  110MOL   H18241820   1.971   7.111   5.697  1.3852 -1.0409 -2.2959
  110MOL   H18341821   1.913   7.002   5.825 -1.2023 -4.4342 -0.7359
  110MOL   H18441822   1.769   6.929   5.656 -0.7766 -0.3874 -0.4666
  110MOL   H18541823   1.891   6.969   5.529  1.0316  1.3742  0.8574
  110MOL   H18641824   1.967   6.739   5.543 -1.1573  2.3031 -2.0019
  110MOL   H18741825   1.855   6.709   5.676  2.6062 -0.4153  4.3640
  110MOL   H18841826   2.012   6.756   5.824  1.4636 -0.3365  0.1579
  110MOL   H18941827   2.123   6.722   5.682 -0.0554  1.0386 -2.6963
  110MOL   H19041828   2.229   7.116   6.010 -1.9732  3.1921  0.2091
  110MOL   H19141829   2.100   7.153   5.903  1.6750  0.9423 -0.5059
  110MOL   C19241830   2.045   7.015   6.062 -0.3516  0.1831 -0.1574
  110MOL   C19341831   1.962   7.134   6.119 -0.1510 -0.7548 -0.1989
  110MOL   C19441832   1.873   7.095   6.242 -0.1013  0.1147  1.1436
  110MOL   C19541833   1.763   7.202   6.246  0.5394 -0.1683  0.8799
  110MOL   C19641834   1.769   7.281   6.113  0.6102 -0.3530  0.2891
  110MOL   C19741835   1.858   7.195   6.021 -0.4641  0.0227 -0.3350
  110MOL   C19841836   2.137   6.945   6.173 -0.0504 -0.0414  0.3080
  110MOL   H19941837   1.986   6.937   6.015  0.3266  0.7962 -2.0871
  110MOL   H20041838   2.031   7.212   6.150 -0.6774 -0.7394  0.9564
  110MOL   H20141839   1.929   7.075   6.334  1.4975 -3.4248 -0.4833
  110MOL   H20241840   1.827   7.000   6.215 -1.4237  1.0828 -0.0566
  110MOL   H20341841   1.673   7.146   6.272 -0.0906  0.7726  0.7928
  110MOL   H20441842   1.787   7.274   6.324 -0.4397  0.2510  0.8035
  110MOL   H20541843   1.800   7.385   6.126  2.0678 -0.7501  0.1155
  110MOL   H20641844   1.665   7.295   6.084  0.1935  0.3892  2.0588
  110MOL   H20741845   1.895   7.255   5.938  1.4776 -0.2178  0.3350
  110MOL   H20841846   1.808   7.104   5.990  0.3815 -0.6929  0.3675
  110MOL   H20941847   2.224   6.899   6.127  1.3297  0.6612  2.1233
  110MOL   H21041848   2.188   7.021   6.234 -0.5614  1.0202 -0.5727
  110MOL   C21141849   2.077   6.832   6.253 -0.0873 -0.0502 -0.4916
  110MOL   C21241850   2.029   6.710   6.154 -0.9651  0.3259  0.2786
  110MOL   C21341851   2.143   6.634   6.086 -0.3413  0.8893  0.2980
  110MOL   C21441852   2.086   6.496   6.073 -0.0437  0.2290  0.2044
  110MOL   C21541853   2.015   6.469   6.203  1.1549 -0.0624  0.5647
  110MOL   C21641854   1.947   6.607   6.240 -0.1332 -0.0524 -0.1702
  110MOL   C21741855   2.176   6.783   6.362 -0.1419 -0.6596 -0.5801
  110MOL   H21841856   1.992   6.874   6.307  2.4840  2.5054  1.7450
  110MOL   H21941857   1.958   6.738   6.076 -2.3019 -1.4859  0.8158
  110MOL   H22041858   2.162   6.682   5.990  1.9336  1.5347  1.0427
  110MOL   H22141859   2.236   6.635   6.144 -1.0655  1.8473  1.4523
  110MOL   H22241860   2.018   6.498   5.988 -0.2933  0.7713  0.4187
  110MOL   H22341861   2.163   6.419   6.069  0.4502  0.6381  1.4903
  110MOL   H22441862   2.078   6.431   6.283  1.3197 -0.6396  0.1630
  110MOL   H22541863   1.942   6.389   6.191  1.9173 -0.9381  1.6966
  110MOL   H22641864   1.847   6.610   6.198 -0.1784 -0.4351 -0.0875
  110MOL   H22741865   1.951   6.613   6.349 -1.1590 -0.4812 -0.1117
  110MOL   H22841866   2.266   6.753   6.308 -0.5879 -0.4069 -1.4695
  110MOL   H22941867   2.140   6.689   6.405 -1.3439  0.1623  0.2068
  110MOL   C23041868   2.231   6.889   6.459  0.1942  0.1506  0.5419
  110MOL   C23141869   2.352   6.835   6.540  0.4882 -0.3710 -0.1222
  110MOL   C23241870   2.345   6.697   6.613 -0.7853  0.5340 -0.0130
  110MOL   C23341871   2.493   6.667   6.644  0.3603  0.6388 -0.1170
  110MOL   C23441872   2.565   6.719   6.523  0.2698 -0.0325 -0.0513
  110MOL   C23541873   2.482   6.835   6.462  0.4506 -0.4357 -0.2031
  110MOL   C23641874   2.116   6.931   6.558  1.5326 -0.4703  0.6170
  110MOL   H23741875   2.264   6.978   6.406  3.0083 -0.8536  0.4648
  110MOL   H23841876   2.375   6.905   6.620 -1.8154 -0.0413  0.2914
  110MOL   H23941877   2.288   6.689   6.705 -0.4321  1.0699  0.2573
  110MOL   H24041878   2.304   6.618   6.551 -1.6072 -0.5846  1.9305
  110MOL   H24141879   2.524   6.715   6.736 -1.0224 -1.3563  1.4365
  110MOL   H24241880   2.509   6.560   6.663  0.0368  0.4895 -0.6533
  110MOL   H24341881   2.586   6.639   6.452 -0.3820 -0.4747  0.2519
  110MOL   H24441882   2.661   6.764   6.551  1.0467 -2.3936  1.1864
  110MOL   H24541883   2.456   6.803   6.361 -1.2163  2.4996 -0.7640
  110MOL   H24641884   2.525   6.935   6.458 -0.0161 -0.1414  1.6663
  110MOL   H24741885   2.096   6.859   6.637 -1.3249  1.9964  2.2859
  110MOL   H24841886   2.021   6.933   6.504  2.5982 -0.6590 -1.3111
  110MOL   C24941887   2.135   7.080   6.620 -0.3008  0.2443  0.0188
  110MOL   C25041888   2.054   7.100   6.752 -0.1163 -0.5065  0.5500
  110MOL   C25141889   2.098   7.017   6.872 -0.5843 -0.3185 -0.0089
  110MOL   C25241890   1.975   7.011   6.966  0.1708  0.7253 -0.3103
  110MOL   C25341891   1.860   7.005   6.866 -0.4126  0.4837 -0.5874
  110MOL   C25441892   1.903   7.074   6.739  0.3421 -0.3145 -0.1027
  110MOL   C25541893   2.114   7.200   6.524  0.7048  0.7316  0.6168
  110MOL   H25641894   2.239   7.079   6.652 -0.5608 -0.9048  0.8551
  110MOL   H25741895   2.070   7.200   6.794  2.9939 -1.3794  1.5776
  110MOL   H25841896   2.182   7.059   6.929  0.7829 -0.6281 -1.7555
  110MOL   H25941897   2.117   6.915   6.839  1.1425  0.5212 -1.7376
  110MOL   H26041898   1.963   7.109   7.013 -1.6733  1.0353 -1.3782
  110MOL   H26141899   1.983   6.929   7.038 -1.3469 -1.0777 -2.1435
  110MOL   H26241900   1.766   7.047   6.900 -0.0429  1.6398 -0.9771
  110MOL   H26341901   1.843   6.900   6.840  0.6441 -0.0524  0.7970
  110MOL   H26441902   1.844   7.166   6.734 -0.5307 -0.6841  2.4061
  110MOL   H26541903   1.870   7.009   6.658 -0.8201 -0.3430  0.3713
  110MOL   H26641904   2.152   7.187   6.423 -1.9273  2.7051 -0.7054
  110MOL   H26741905   2.007   7.197   6.500  0.5811 -2.0422  1.2321
  110MOL   C26841906   2.155   7.344   6.569 -0.1420  0.0324 -0.0752
  110MOL   C26941907   2.093   7.473   6.500  0.1024 -0.5043  0.3681
  110MOL   C27041908   1.938   7.491   6.517  0.2720 -0.6196  0.0724
  110MOL   C27141909   1.892   7.583   6.402  0.3008  0.5650 -0.8852
  110MOL   C27241910   1.996   7.566   6.291  0.5066  0.5212  0.5413
  110MOL   C27341911   2.111   7.479   6.349 -0.0266  0.1740 -0.0105
  110MOL   C27441912   2.307   7.351   6.567 -0.1191  0.6992  0.0750
  110MOL   H27541913   2.132   7.357   6.675 -1.8256  1.1734 -0.5629
  110MOL   H27641914   2.138   7.562   6.545 -0.5188 -0.0286  0.0551
  110MOL   H27741915   1.894   7.391   6.513 -0.3630 -0.2754 -1.8508
  110MOL   H27841916   1.927   7.527   6.620 -0.8877 -0.0889 -0.2266
  110MOL   H27941917   1.790   7.568   6.368 -0.6649 -0.4899  2.3154
  110MOL   H28041918   1.915   7.684   6.435  2.1160 -0.6489  1.7053
  110MOL   H28141919   2.026   7.668   6.268  2.1162 -0.1452 -0.3744
  110MOL   H28241920   1.955   7.510   6.207  2.5461  2.0244 -1.4896
  110MOL   H28341921   2.204   7.525   6.316  0.3948 -0.2960  0.4960
  110MOL   H28441922   2.099   7.380   6.304  0.0063  0.1417  0.0511
  110MOL   H28541923   2.334   7.438   6.507 -3.0352  0.4187 -1.7379
  110MOL   H28641924   2.345   7.268   6.507 -3.6363 -0.1701 -1.0769
  110MOL   C28741925   2.371   7.363   6.708 -0.4267  1.1106 -0.1266
  110MOL   C28841926   2.515   7.314   6.716  0.5996 -0.1058 -0.0287
  110MOL   C28941927   2.530   7.165   6.705 -0.6302  0.4214 -0.1955
  110MOL   C29041928   2.674   7.150   6.670 -0.7401 -0.1532 -0.5530
  110MOL   C29141929   2.721   7.269   6.590  0.2319 -0.0999 -0.0657
  110MOL   C29241930   2.618   7.377   6.624  1.0052 -0.2478 -0.6206
  110MOL   C29341931   2.370   7.509   6.759 -0.2408  0.1315  0.3355
  110MOL   H29441932   2.317   7.303   6.781  1.8583  0.4473  1.0888
  110MOL   H29541933   2.550   7.330   6.817  0.9074  0.1273 -0.1751
  110MOL   H29641934   2.506   7.099   6.789  0.9523  1.0668  0.7859
  110MOL   H29741935   2.474   7.125   6.620  1.5799 -2.4760 -0.3895
  110MOL   H29841936   2.723   7.144   6.767 -4.0411  2.4775  1.3648
  110MOL   H29941937   2.693   7.051   6.628  0.2459  0.6418 -2.0087
  110MOL   H30041938   2.727   7.250   6.483  2.8326 -0.0005  0.0368
  110MOL   H30141939   2.824   7.282   6.623  0.5836  0.0316 -1.1830
  110MOL   H30241940   2.585   7.411   6.526 -0.2842 -0.0983 -0.1412
  110MOL   H30341941   2.679   7.450   6.678  1.3259 -0.3457 -0.8497
  110MOL   H30441942   2.272   7.551   6.738 -1.3481 -1.7112  1.6244
  110MOL   H30541943   2.435   7.564   6.691 -0.5188  0.9365  0.7180
  110MOL   C30641944   2.398   7.547   6.910  0.9166 -0.6728 -0.4920
  110MOL   C30741945   2.416   0.009   6.924 -0.8430 -0.3557 -0.4955
  110MOL   C30841946   2.549   0.065   6.878  0.2674  0.2559  0.2469
  110MOL   C30941947   2.522   0.212   6.839  0.7291 -0.6705  1.0826
  110MOL   C31041948   2.370   0.240   6.851  0.6663 -0.1748  0.2296
  110MOL   C31141949   2.312   0.101   6.862  0.5711  0.0903 -0.5646
  110MOL   C31241950   2.298   7.481   7.011  0.8280 -0.7159 -0.2720
  110MOL   H31341951   2.495   7.501   6.932  0.8623 -2.3143 -3.3601
  110MOL   H31441952   2.402   0.031   7.030  1.3466 -0.7379 -0.1099
  110MOL   H31541953   2.573   0.018   6.783  1.0318 -1.3114  1.2008
  110MOL   H31641954   2.628   0.054   6.952 -0.0471  2.1306  0.9021
  110MOL   H31741955   2.587   0.275   6.900  0.4227  0.0890  0.6274
  110MOL   H31841956   2.540   0.230   6.733 -0.8483 -0.2043  0.8903
  110MOL   H31941957   2.320   0.304   6.778 -0.0711 -0.1142  0.7793
  110MOL   H32041958   2.349   0.281   6.950 -1.6449 -1.2889  0.2400
  110MOL   H32141959   2.216   0.115   6.911  0.5901  0.3709 -0.6094
  110MOL   H32241960   2.283   0.074   6.761  1.7962  2.6777 -1.6489
  110MOL   H32341961   2.251   7.400   6.955  0.0487  1.6939 -3.2400
  110MOL   H32441962   2.218   7.553   7.025  2.0067  0.4522  0.5803
  110MOL   C32541963   2.333   7.416   7.148  0.3851 -0.6115  0.2915
  110MOL   C32641964   2.367   7.529   7.242  0.1801  0.4441 -0.6128
  110MOL   C32741965   2.420   7.501   7.387  0.2798 -0.1996 -0.3604
  110MOL   C32841966   2.422   7.641   7.449  0.2618  0.1089  0.3058
  110MOL   C32941967   2.301   0.026   7.387 -0.3380  1.4629 -0.3165
  110MOL   C33041968   2.254   7.630   7.273 -0.3074 -0.6259 -0.0098
  110MOL   C33141969   2.450   7.322   7.132  0.7936 -0.4559 -0.5765
  110MOL   H33241970   2.247   7.368   7.194 -0.5561  1.0144  0.2294
  110MOL   H33341971   2.446   7.579   7.186  0.3462 -0.0339 -0.8120
  110MOL   H33441972   2.509   7.441   7.410 -0.1482 -1.2181 -1.3639
  110MOL   H33541973   2.342   7.444   7.437 -1.3563  0.7133 -1.8216
  110MOL   H33641974   2.513   0.007   7.428  0.9319 -0.3698  1.8419
  110MOL   H33741975   2.430   7.649   7.558 -0.0014  0.6965  0.2818
  110MOL   H33841976   2.331   0.127   7.360 -1.0988  1.6848 -0.3471
  110MOL   H33941977   2.221   0.043   7.458  0.7928  0.1290  1.3137
  110MOL   H34041978   2.217   0.007   7.195 -1.2329  0.8995  1.6727
  110MOL   H34141979   2.165   7.573   7.296 -0.7215  0.9064  2.3664
  110MOL   H34241980   2.541   7.381   7.131 -0.1156  0.9966  0.0992
  110MOL   H34341981   2.447   7.277   7.033  0.0874 -0.0642 -0.7348
  110MOL   C34441982   2.455   7.207   7.227  0.0244 -0.5282 -0.2250
  110MOL   C34541983   2.602   7.149   7.227 -0.9488  0.7621 -0.0525
  110MOL   C34641984   2.712   7.236   7.290  0.2749  0.6836  0.0958
  110MOL   C34741985   2.834   7.151   7.270  0.5818  0.3921 -0.1577
  110MOL   C34841986   2.813   7.093   7.134  0.0421 -0.6231  0.5690
  110MOL   C34941987   2.665   7.121   7.094  0.2151  0.4563  0.1964
  110MOL   C35041988   2.355   7.100   7.185 -0.7218 -0.2833 -0.2892
  110MOL   H35141989   2.429   7.242   7.327  3.2770 -0.0978  0.5216
  110MOL   H35241990   2.597   7.062   7.293  0.8648 -0.8011 -1.9146
  110MOL   H35341991   2.690   7.246   7.397 -3.0849 -2.0978 -0.2748
  110MOL   H35441992   2.721   7.337   7.251  1.1923  0.2957 -0.7141
  110MOL   H35541993   2.924   7.212   7.272 -1.2047  3.1030 -0.2849
  110MOL   H35641994   2.834   7.061   7.333  2.1150  0.5558  0.0809
  110MOL   H35741995   2.841   6.988   7.128 -0.2345 -0.6642  0.0057
  110MOL   H35841996   2.873   7.152   7.066  1.2215 -0.7659  1.4629
  110MOL   H35941997   2.662   7.207   7.028  0.6105  0.6774  0.4597
  110MOL   H36041998   2.627   7.035   7.039  0.1681 -0.1658  1.1925
  110MOL   H36141999   2.414   7.042   7.113 -0.9261  2.8227 -3.0715
  110MOL   H36242000   2.282   7.131   7.110  2.1013 -1.4247 -3.6262
  110MOL   C36342001   2.310   7.005   7.293 -0.2571  0.0504 -0.2312
  110MOL   C36442002   2.170   7.039   7.350 -0.5087  0.2492  0.6547
  110MOL   C36542003   2.171   7.174   7.422  0.2678  0.3659  0.3954
  110MOL   C36642004   2.065   7.171   7.543  0.2406 -0.5529  0.3866
  110MOL   C36742005   2.031   7.022   7.560 -0.2822 -0.3416  0.1622
  110MOL   C36842006   2.121   6.938   7.459 -0.9325  0.1008  0.1435
  110MOL   C36942007   2.307   6.863   7.233  0.7928  0.0262  0.3280
  110MOL   H37042008   2.392   7.006   7.364  1.0119  0.2254 -1.6775
  110MOL   H37142009   2.100   7.048   7.267  0.9376 -1.0515 -0.7363
  110MOL   H37242010   2.272   7.180   7.463  0.8523 -0.0024 -0.9501
  110MOL   H37342011   2.148   7.252   7.350 -1.0455 -1.7916 -1.6223
  110MOL   H37442012   2.105   7.216   7.633 -0.4446 -0.6568  0.7515
  110MOL   H37542013   1.973   7.219   7.508 -1.3421 -2.5924  1.6552
  110MOL   H37642014   2.053   6.986   7.660  0.2570 -0.6953 -0.0780
  110MOL   H37742015   1.928   7.008   7.528 -0.6645 -0.8452  1.5940
  110MOL   H37842016   2.052   6.868   7.412 -0.5229 -1.0390  1.2010
  110MOL   H37942017   2.195   6.882   7.517 -2.2081  0.7996  2.4977
  110MOL   H38042018   2.279   6.790   7.309 -0.9382  2.1891  1.8214
  110MOL   H38142019   2.409   6.835   7.208  0.5007 -1.0756  0.3465
  110MOL   H38242020   2.230   6.852   7.157  0.6730 -0.7067  0.5506
  111MOL     C142021   6.154   4.814   7.485  0.5262 -0.2789  0.3225
  111MOL     C242022   6.132   4.923   7.376  0.0521  0.0995 -0.3132
  111MOL     C342023   5.980   4.958   7.353 -0.1180 -0.1265  0.1417
  111MOL     C442024   5.955   5.012   7.208  0.4807  0.8571  0.1803
  111MOL     C542025   6.068   4.935   7.136  0.6034  0.5686 -0.2259
  111MOL     C642026   6.171   4.876   7.242  0.2003  0.1474  0.9827
  111MOL     C742027   6.112   4.874   7.622  0.2378  0.1701 -0.1739
  111MOL     H842028   6.097   4.725   7.458 -0.2517  1.0133 -2.5198
  111MOL     H942029   6.184   5.010   7.415  0.4490  0.1079 -0.8598
  111MOL    H1042030   5.910   4.877   7.373  0.6112 -0.9543 -0.6462
  111MOL    H1142031   5.962   5.047   7.414  0.5771  0.4150 -0.4370
  111MOL    H1242032   5.855   4.987   7.173  0.7850  0.4655 -0.4293
  111MOL    H1342033   5.992   5.114   7.193  1.2295  0.1029 -3.7828
  111MOL    H1442034   6.033   4.855   7.070 -0.2792  0.0333  0.8698
  111MOL    H1542035   6.126   4.985   7.059 -0.1977  1.9578  0.0674
  111MOL    H1642036   6.267   4.926   7.232 -0.2655  0.6663 -1.1248
  111MOL    H1742037   6.189   4.769   7.233  2.5410  0.7529 -2.9410
  111MOL    H1842038   6.149   4.976   7.617  1.5859 -0.3693 -1.7868
  111MOL    H1942039   6.004   4.882   7.620  0.2307  0.8117  1.3708
  111MOL    H2042040   6.255   4.778   7.503 -0.0428 -1.4609  1.1984
  111MOL    C2142041   6.167   4.796   0.057 -0.5353 -0.3129  0.0390
  111MOL    C2242042   6.239   4.892   0.157  0.5223 -0.2884 -0.4258
  111MOL    C2342043   6.373   4.961   0.105  0.0795  0.0068 -0.5783
  111MOL    C2442044   6.453   4.993   0.229  0.2294 -0.3911  0.6666
  111MOL    C2542045   6.396   4.909   0.341 -0.7904 -0.3044 -0.1172
  111MOL    C2642046   6.286   4.820   0.283  0.0858 -0.1442  0.8065
  111MOL    C2742047   6.047   4.717   0.125 -0.4999  0.0211 -0.2579
  111MOL    H2842048   6.246   4.727   0.026  0.2368  0.6750 -0.2327
  111MOL    H2942049   6.177   4.972   0.195  0.6695 -0.4481  0.1495
  111MOL    H3042050   6.352   5.051   0.048  2.6270  0.8688 -0.2000
  111MOL    H3142051   6.435   4.899   0.040  0.9392  0.6367 -0.3614
  111MOL    H3242052   6.560   4.990   0.211  0.1044 -0.5063 -0.0560
  111MOL    H3342053   6.431   5.097   0.254 -0.5996  0.1012 -2.0314
  111MOL    H3442054   6.366   4.959   0.433 -0.1704 -0.1552  0.0065
  111MOL    H3542055   6.475   4.840   0.371 -0.9875 -0.4078  0.1743
  111MOL    H3642056   6.201   4.805   0.350  1.9721 -1.0545  3.0863
  111MOL    H3742057   6.338   4.728   0.256  1.5182  0.4451  1.4986
  111MOL    H3842058   6.093   4.650   0.198 -0.7953 -0.4865 -0.5312
  111MOL    H3942059   5.991   4.786   0.187  1.5523  0.7496  0.8221
  111MOL    C4042060   5.957   4.616   0.038 -0.1964  0.6828  0.1345
  111MOL    C4142061   6.055   4.491   0.012 -0.1166  0.4162  0.5514
  111MOL    C4242062   6.022   4.422   7.572 -0.0756  0.5870 -0.3291
  111MOL    C4342063   6.092   4.284   7.583  0.6157 -0.0192  0.3549
  111MOL    C4442064   6.109   4.259   0.047  0.3328 -0.2921  0.3156
  111MOL    C4542065   6.047   4.377   0.114  0.1558  0.2087 -0.1528
  111MOL    C4642066   5.813   4.586   0.105 -0.5339  0.4726 -0.4837
  111MOL    H4742067   5.935   4.670   7.635 -1.1315  0.5137  0.2529
  111MOL    H4842068   6.160   4.517   7.688  0.1417 -0.8023  0.1297
  111MOL    H4942069   6.048   4.486   7.489 -0.9661 -0.9871 -1.8610
  111MOL    H5042070   5.914   4.404   7.576  0.2456 -1.5436 -0.5612
  111MOL    H5142071   6.195   4.293   7.548  0.1595 -1.8689 -1.5440
  111MOL    H5242072   6.043   4.206   7.524  1.0089 -0.6349  0.8281
  111MOL    H5342073   6.066   4.162   0.070  0.6307 -0.5055 -0.0305
  111MOL    H5442074   6.213   4.247   0.077  0.5026  1.7684  0.6427
  111MOL    H5542075   5.944   4.350   0.138  0.9172 -2.7102  0.0996
  111MOL    H5642076   6.102   4.397   0.206 -1.0901 -1.8502  1.0893
  111MOL    H5742077   5.775   4.495   0.059 -1.1824 -0.3721  1.6729
  111MOL    H5842078   5.825   4.552   0.207 -0.7396 -3.1141 -1.6014
  111MOL    C5942079   5.706   4.701   0.096 -1.1394  0.2262 -0.0738
  111MOL    C6042080   5.581   4.674   7.689 -0.4265  0.1249 -0.0751
  111MOL    C6142081   5.484   4.554   0.035 -1.1732 -0.3826  0.0562
  111MOL    C6242082   5.415   4.502   7.604 -0.0988 -0.3750 -0.1279
  111MOL    C6342083   5.490   4.563   7.487  0.8259  0.2633 -0.1636
  111MOL    C6442084   5.614   4.637   7.544 -0.5401  0.9757 -0.4186
  111MOL    C6542085   5.674   4.743   0.238  0.0994 -0.2546 -0.0471
  111MOL    H6642086   5.758   4.787   0.055  0.3126 -0.9853 -0.8198
  111MOL    H6742087   5.530   4.770   7.681  0.6304  0.5078 -2.8172
  111MOL    H6842088   5.416   4.600   0.107  0.4079  0.0248  1.3050
  111MOL    H6942089   5.515   4.469   0.094  1.8988 -0.1457 -1.1521
  111MOL    H7042090   5.315   4.545   7.605 -0.8135 -1.9511  2.8428
  111MOL    H7142091   5.404   4.394   7.611  1.0637 -0.5134 -0.3910
  111MOL    H7242092   5.437   4.622   7.412  1.0680 -1.6119 -1.8326
  111MOL    H7342093   5.532   4.484   7.426  3.1346  0.1246  1.5527
  111MOL    H7442094   5.700   4.572   7.531 -0.1377  0.7508  2.9177
  111MOL    H7542095   5.641   4.729   7.493 -1.1356  0.2982 -1.9810
  111MOL    H7642096   5.767   4.755   0.294  0.5905 -2.4729 -0.3530
  111MOL    H7742097   5.634   4.653   0.284 -0.6372  0.0802 -0.0305
  111MOL    C7842098   5.584   4.864   0.260  0.4693  0.1580  0.2877
  111MOL    C7942099   5.558   4.903   0.407  0.1842  0.2577  0.0126
  111MOL    C8042100   5.508   4.783   0.491  0.1786  0.2844 -0.0859
  111MOL    C8142101   5.410   4.849   0.593  0.6969  0.3608 -0.8275
  111MOL    C8242102   5.417   4.998   0.570  0.4069  0.4330 -0.0726
  111MOL    C8342103   5.447   5.006   0.426  0.2020  0.0002 -0.4105
  111MOL    C8442104   5.607   4.989   0.167 -0.2340  0.0885 -0.3431
  111MOL    H8542105   5.490   4.818   0.231  0.3967 -0.8644  2.0713
  111MOL    H8642106   5.655   4.937   0.443  0.3529  1.2603 -1.3649
  111MOL    H8742107   5.597   4.743   0.540  0.2257  2.4807  1.7540
  111MOL    H8842108   5.448   4.713   0.433 -1.5899  0.3932  1.5387
  111MOL    H8942109   5.435   4.816   0.694 -0.1154 -2.3906 -1.4742
  111MOL    H9042110   5.308   4.819   0.570  0.5187 -0.1113  0.5523
  111MOL    H9142111   5.325   5.050   0.597  0.0539  0.5683 -1.5299
  111MOL    H9242112   5.498   5.031   0.635 -2.0218  1.2268  2.6583
  111MOL    H9342113   5.356   4.980   0.371 -0.2955  1.3681 -0.2441
  111MOL    H9442114   5.467   5.108   0.396  0.9305  0.9543  3.0665
  111MOL    H9542115   5.505   5.025   0.152 -1.6006 -3.7052 -0.7921
  111MOL    H9642116   5.619   4.964   0.062 -0.7789  0.8880 -0.5975
  111MOL    C9742117   5.708   5.108   0.199 -0.2675 -0.2464 -0.3813
  111MOL    C9842118   5.723   5.203   0.082 -0.1205 -0.6718 -0.1484
  111MOL    C9942119   5.794   5.149   7.643  0.6553 -0.2398 -0.4309
  111MOL   C10042120   5.745   5.235   7.527  0.2072 -0.4869 -0.5389
  111MOL   C10142121   5.592   5.245   7.562  0.8865 -0.0591  0.5658
  111MOL   C10242122   5.598   5.270   0.026  0.0342  0.2332 -0.1809
  111MOL   C10342123   5.847   5.058   0.256  0.1786 -0.6254 -0.0073
  111MOL   H10442124   5.663   5.181   0.266  0.2922  1.3122 -1.6643
  111MOL   H10542125   5.782   5.282   0.129  1.2054 -0.3395 -2.2913
  111MOL   H10642126   5.903   5.159   7.647  0.4453  1.7508  2.7310
  111MOL   H10742127   5.773   5.044   7.626  2.1158 -0.6456  0.2049
  111MOL   H10842128   5.754   5.190   7.428 -2.1575 -0.5321 -0.7707
  111MOL   H10942129   5.795   5.331   7.526 -1.0255  0.1759 -1.5005
  111MOL   H11042130   5.537   5.154   7.540 -2.8267  1.7080  1.9732
  111MOL   H11142131   5.542   5.328   7.510  0.1866 -0.2418  0.9417
  111MOL   H11242132   5.586   5.376   0.049 -1.6822 -0.1000  0.5140
  111MOL   H11342133   5.504   5.224   0.057 -0.4397  0.5092 -1.2159
  111MOL   H11442134   5.845   4.976   0.328  2.7090 -0.7781 -0.0832
  111MOL   H11542135   5.900   5.015   0.171  2.5508 -2.2707  2.2339
  111MOL   C11642136   5.930   5.167   0.323 -0.1666  0.4250  0.2553
  111MOL   C11742137   5.974   5.121   0.471 -0.3789  0.5674 -0.0112
  111MOL   C11842138   5.855   5.110   0.573  0.2932  0.6079 -0.3614
  111MOL   C11942139   5.887   4.997   0.669 -0.0340 -0.0662 -0.0469
  111MOL   C12042140   6.022   4.946   0.634 -1.2203 -0.0470 -0.2259
  111MOL   C12142141   6.052   4.997   0.491  0.3366  1.2126 -0.0597
  111MOL   C12242142   6.043   5.222   0.244  0.3662  0.0538 -0.8712
  111MOL   H12342143   5.868   5.252   0.350 -1.4808 -0.5588  0.3676
  111MOL   H12442144   6.036   5.201   0.510 -0.8434  0.8358  0.1700
  111MOL   H12542145   5.858   5.202   0.631  0.4756  0.8919 -0.8211
  111MOL   H12642146   5.758   5.100   0.524 -0.2221  1.4920  0.4549
  111MOL   H12742147   5.808   4.922   0.674 -0.6259  0.6746  2.2476
  111MOL   H12842148   5.895   5.040   0.769  2.2124  1.1518 -0.7274
  111MOL   H12942149   6.044   4.840   0.644  1.4526  0.4025 -1.1487
  111MOL   H13042150   6.091   4.991   0.704  0.3956  0.3555 -2.0462
  111MOL   H13142151   6.156   5.026   0.478  0.4379  0.5884 -0.6521
  111MOL   H13242152   6.023   4.916   0.424 -1.1017  0.9823  0.8216
  111MOL   H13342153   6.071   5.150   0.167 -0.6208 -1.0346 -0.2428
  111MOL   H13442154   6.130   5.212   0.309  2.3016 -0.1454 -3.4168
  111MOL   C13542155   6.038   5.373   0.206 -0.0549  0.0526  0.0784
  111MOL   C13642156   6.064   5.408   0.056 -0.1021 -0.3195 -0.4827
  111MOL   C13742157   6.208   5.400   0.005  0.8791  0.3029 -0.1945
  111MOL   C13842158   6.256   5.536   7.665 -0.5406 -0.1963 -0.0638
  111MOL   C13942159   6.130   5.609   7.618 -0.5670 -0.2587  0.2894
  111MOL   C14042160   6.015   5.542   0.012 -0.0983 -0.4306  0.1889
  111MOL   C14142161   6.144   5.459   0.284 -0.4954 -0.5408  0.1830
  111MOL   H14242162   5.941   5.424   0.210 -0.4358 -0.6352 -0.2792
  111MOL   H14342163   5.997   5.335   0.010  0.7070 -1.5666  0.2905
  111MOL   H14442164   6.273   5.365   0.085 -0.6680 -1.0419  0.5150
  111MOL   H14542165   6.222   5.324   7.619  0.0276  1.4228 -1.5063
  111MOL   H14642166   6.335   5.540   7.589 -0.5146  0.8049  0.0099
  111MOL   H14742167   6.303   5.588   0.058  1.4902 -2.4801  0.2950
  111MOL   H14842168   6.117   5.589   7.512  0.9604  0.4662 -0.0558
  111MOL   H14942169   6.144   5.714   7.642 -0.3003 -0.4720  1.0988
  111MOL   H15042170   6.000   5.601   0.102 -0.0477 -1.0133  0.5855
  111MOL   H15142171   5.927   5.544   7.638 -0.3432 -1.0884  0.4963
  111MOL   H15242172   6.169   5.550   0.229  1.9394 -2.3173 -1.7964
  111MOL   H15342173   6.239   5.407   0.283 -0.2235 -0.1327  3.0573
  111MOL   C15442174   6.089   5.496   0.429 -0.5343 -0.3756 -0.8810
  111MOL   C15542175   6.205   5.523   0.528 -0.0832  0.5550  0.5175
  111MOL   C15642176   6.314   5.625   0.481  0.8536  0.6467 -0.1112
  111MOL   C15742177   6.454   5.581   0.532  0.6302  0.0310  0.1593
  111MOL   C15842178   6.432   5.446   0.595  0.7929 -0.0233  0.3906
  111MOL   C15942179   6.289   5.398   0.558 -0.1419 -0.3752  0.6776
  111MOL   C16042180   6.000   5.622   0.441 -0.0635 -0.0353  0.9047
  111MOL   H16142181   6.034   5.409   0.466 -2.2302  1.0518  0.0123
  111MOL   H16242182   6.166   5.558   0.623 -0.3909 -1.4159  1.1413
  111MOL   H16342183   6.338   5.621   0.374  1.2870 -0.2695  0.0168
  111MOL   H16442184   6.288   5.730   0.496 -4.4755 -0.2005 -2.4038
  111MOL   H16542185   6.515   5.567   0.442  0.6448  0.2205  0.1382
  111MOL   H16642186   6.496   5.653   0.602  0.9712  1.8648 -1.8589
  111MOL   H16742187   6.438   5.452   0.704  1.0191 -1.4416  0.4717
  111MOL   H16842188   6.512   5.375   0.573  0.1446 -1.0026  1.1513
  111MOL   H16942189   6.260   5.328   0.637 -0.5467 -0.4088  0.5047
  111MOL   H17042190   6.288   5.331   0.472 -0.8624  1.6552 -0.9287
  111MOL   H17142191   5.940   5.629   0.351  0.8373 -1.4900  0.1743
  111MOL   H17242192   6.069   5.704   0.419 -0.0818  0.0478  1.1615
  111MOL   C17342193   5.902   5.636   0.561  0.0252 -0.1338 -0.2673
  111MOL   C17442194   5.795   5.522   0.556 -0.1791  0.1369 -0.1024
  111MOL   C17542195   5.710   5.511   0.435  0.3484  0.2925  0.2477
  111MOL   C17642196   5.575   5.462   0.488 -0.8499 -0.3362  0.3186
  111MOL   C17742197   5.590   5.430   0.640  0.3786 -0.2261  0.4586
  111MOL   C17842198   5.705   5.514   0.684  0.2723  0.1963  0.0338
  111MOL   C17942199   5.842   5.781   0.552  0.5735  0.3850 -0.1968
  111MOL   H18042200   5.949   5.628   0.659 -0.2065 -1.5093 -0.2540
  111MOL   H18142201   5.840   5.423   0.561  0.6943  0.5877  1.4560
  111MOL   H18242202   5.761   5.435   0.376 -2.4862 -0.5472 -1.2305
  111MOL   H18342203   5.705   5.606   0.381 -1.9266  0.4456  0.6709
  111MOL   H18442204   5.499   5.541   0.479 -1.4816 -1.1345 -1.5531
  111MOL   H18542205   5.532   5.385   0.425 -1.0346  0.7788 -0.9461
  111MOL   H18642206   5.616   5.327   0.667 -0.3310 -0.5398 -0.0317
  111MOL   H18742207   5.502   5.460   0.697  0.0010  1.1527 -0.8082
  111MOL   H18842208   5.679   5.611   0.725 -0.4718  0.4100 -0.9197
  111MOL   H18942209   5.759   5.465   0.765  2.6095  0.5754 -1.2316
  111MOL   H19042210   5.806   5.797   0.450  2.5553  0.5271 -0.8864
  111MOL   H19142211   5.748   5.788   0.607  0.2421 -2.3311 -0.3748
  111MOL   C19242212   5.939   5.898   0.591 -0.0698  0.1702  0.8586
  111MOL   C19342213   5.929   5.965   0.731 -0.0914 -0.8849 -0.0074
  111MOL   C19442214   5.944   5.867   0.844 -0.2726 -0.1806  0.2477
  111MOL   C19542215   5.897   5.948   0.961  0.4478 -0.1847 -0.5734
  111MOL   C19642216   5.784   6.032   0.906  0.1539 -0.3880  0.3364
  111MOL   C19742217   5.791   6.016   0.755 -0.4131 -0.3320 -0.7713
  111MOL   C19842218   5.944   6.004   0.483  0.0040 -0.6764 -0.0779
  111MOL   H19942219   6.039   5.854   0.590  0.3532  1.0777  2.5579
  111MOL   H20042220   5.989   6.056   0.734 -1.5184  0.1574 -1.8955
  111MOL   H20142221   6.049   5.841   0.859 -0.7497 -2.8673 -0.8457
  111MOL   H20242222   5.885   5.777   0.835  1.1134 -1.2577  1.5169
  111MOL   H20342223   5.874   5.897   1.054  1.8795  1.4115  0.6957
  111MOL   H20442224   5.983   6.009   0.988 -0.5889  0.8706  0.4027
  111MOL   H20542225   5.783   6.133   0.946  2.0363 -0.9219  1.7643
  111MOL   H20642226   5.687   5.990   0.934 -0.4480  0.8778  0.1756
  111MOL   H20742227   5.760   6.104   0.698 -1.0617 -0.1053 -0.0782
  111MOL   H20842228   5.707   5.949   0.733 -2.0882  2.0816 -2.0244
  111MOL   H20942229   5.934   5.954   0.387 -0.6754  0.1922 -0.4731
  111MOL   H21042230   5.856   6.065   0.503 -1.0215 -2.3470  0.6156
  111MOL   C21142231   6.068   6.093   0.464  0.2585  0.0261 -0.6099
  111MOL   C21242232   6.187   6.018   0.397 -0.0647 -0.1382  0.0087
  111MOL   C21342233   6.159   5.971   0.251  0.4600  0.0565  0.1220
  111MOL   C21442234   6.276   6.033   0.164  0.0543  0.1915  0.0188
  111MOL   C21542235   6.390   6.060   0.265  0.8571  0.2991 -0.7995
  111MOL   C21642236   6.323   6.091   0.395 -0.0026  0.0809 -0.2871
  111MOL   C21742237   6.033   6.222   0.380  0.8479  0.1341 -0.5541
  111MOL   H21842238   6.100   6.133   0.561  0.3340 -1.3453 -0.0644
  111MOL   H21942239   6.215   5.929   0.452 -1.0960 -1.4365 -1.5252
  111MOL   H22042240   6.150   5.863   0.243 -2.1731 -0.0406  3.4100
  111MOL   H22142241   6.061   6.006   0.219 -0.3069 -0.2772  2.0479
  111MOL   H22242242   6.299   5.973   0.077 -2.3738 -0.2437 -0.3396
  111MOL   H22342243   6.257   6.131   0.119  1.4527  0.0530 -0.9156
  111MOL   H22442244   6.461   6.134   0.227  0.8369  2.9115  3.7847
  111MOL   H22542245   6.443   5.965   0.272  2.2130  1.0964  0.0633
  111MOL   H22642246   6.375   6.072   0.488  0.4450  2.7364  0.0556
  111MOL   H22742247   6.304   6.198   0.387  0.9253  0.5249  2.9994
  111MOL   H22842248   6.002   6.187   0.282  0.9364 -0.2828 -0.4349
  111MOL   H22942249   6.120   6.288   0.387 -0.9895  2.5670 -0.0552
  111MOL   C23042250   5.918   6.310   0.436  0.0470  0.2132 -0.3525
  111MOL   C23142251   5.895   6.433   0.348  0.9144  0.6015  0.2120
  111MOL   C23242252   6.014   6.519   0.308  0.2824 -0.4832  0.5013
  111MOL   C23342253   5.972   6.600   0.184  0.0993  0.1195  0.2865
  111MOL   C23442254   5.854   6.529   0.127  0.3604  0.1510 -0.1665
  111MOL   C23542255   5.839   6.398   0.207 -0.1956  0.1695  0.4590
  111MOL   C23642256   5.952   6.358   0.587 -0.1170 -0.2415 -0.1426
  111MOL   H23742257   5.819   6.265   0.425 -0.9522  1.9071  1.2975
  111MOL   H23842258   5.814   6.495   0.387  0.6258  1.6108 -1.9557
  111MOL   H23942259   6.059   6.583   0.383 -0.6022  1.2219 -0.4007
  111MOL   H24042260   6.101   6.462   0.278 -0.6975 -0.4020 -2.6369
  111MOL   H24142261   5.952   6.705   0.209  3.4717  1.3692 -1.9285
  111MOL   H24242262   6.059   6.594   0.120  0.6439 -1.0205  1.1116
  111MOL   H24342263   5.864   6.503   0.022 -0.3412 -0.7231 -0.0303
  111MOL   H24442264   5.761   6.582   0.149 -0.5163 -1.5423  0.3284
  111MOL   H24542265   5.888   6.313   0.160 -0.3566 -0.3091  1.1516
  111MOL   H24642266   5.737   6.362   0.212  0.7555 -2.5117  1.2651
  111MOL   H24742267   6.042   6.419   0.576 -0.3535  0.3823  1.2964
  111MOL   H24842268   5.972   6.270   0.649 -2.0768 -0.5616  0.0498
  111MOL   C24942269   5.845   6.445   0.654 -0.4334  0.2089  0.1447
  111MOL   C25042270   5.899   6.508   0.779 -0.7924  0.4964 -0.0806
  111MOL   C25142271   6.012   6.613   0.753  0.9910  0.3314 -0.1029
  111MOL   C25242272   6.137   6.549   0.817 -0.2774  0.3370  0.6310
  111MOL   C25342273   6.103   6.403   0.858 -0.2419 -0.1767  0.1027
  111MOL   C25442274   5.947   6.407   0.875  0.2474  0.6346 -0.1703
  111MOL   C25542275   5.711   6.367   0.664  0.0399 -0.3475  0.1282
  111MOL   H25642276   5.825   6.536   0.598 -1.1217  0.8587  1.4243
  111MOL   H25742277   5.821   6.558   0.836  1.9396  1.7726  2.6899
  111MOL   H25842278   5.989   6.712   0.793  0.7752  0.7370 -1.2110
  111MOL   H25942279   6.044   6.619   0.649  0.7953  0.8849 -0.1321
  111MOL   H26042280   6.178   6.602   0.902  1.6537 -3.6510  2.3332
  111MOL   H26142281   6.222   6.556   0.748 -0.2574  3.2435  0.8983
  111MOL   H26242282   6.147   6.367   0.951  0.4632  0.8487  0.1767
  111MOL   H26342283   6.147   6.337   0.783 -2.6436  0.8717 -2.2811
  111MOL   H26442284   5.932   6.440   0.978  4.1688 -2.9792  1.7317
  111MOL   H26542285   5.913   6.304   0.874 -1.0012  1.0479 -0.5066
  111MOL   H26642286   5.683   6.310   0.576 -1.6943  0.0672  0.3925
  111MOL   H26742287   5.714   6.299   0.750 -1.9058 -1.1355 -0.3954
  111MOL   C26842288   5.594   6.464   0.689  0.3044 -0.3123  0.4719
  111MOL   C26942289   5.479   6.385   0.757  0.6251  0.5536  0.1266
  111MOL   C27042290   5.501   6.354   0.909 -0.5788 -0.1659 -0.5486
  111MOL   C27142291   5.409   6.234   0.935 -0.9005  0.4842 -0.4297
  111MOL   C27242292   5.374   6.165   0.802 -0.8557  0.8751 -0.9367
  111MOL   C27342293   5.435   6.251   0.688 -0.0292  0.0370 -0.5657
  111MOL   C27442294   5.543   6.529   0.560 -0.4470 -0.0355  0.3750
  111MOL   H27542295   5.622   6.527   0.774  0.5322 -1.5095  1.2873
  111MOL   H27642296   5.391   6.448   0.744 -0.7909 -1.8267 -2.4737
  111MOL   H27742297   5.600   6.321   0.938 -0.2617  0.7012 -0.6527
  111MOL   H27842298   5.482   6.441   0.971 -2.6380  0.6990 -2.3088
  111MOL   H27942299   5.461   6.163   0.999 -2.9405  1.0638  1.9445
  111MOL   H28042300   5.318   6.259   0.990 -0.5451  0.0859  0.3491
  111MOL   H28142301   5.268   6.172   0.778 -0.8074  0.4880 -1.2730
  111MOL   H28242302   5.409   6.063   0.786  0.8505  0.9660  2.0206
  111MOL   H28342303   5.359   6.266   0.611 -1.1445 -1.3348  0.2589
  111MOL   H28442304   5.524   6.197   0.656  0.1316 -0.2539  0.3600
  111MOL   H28542305   5.488   6.449   0.512 -0.6453 -0.2195  0.9056
  111MOL   H28642306   5.622   6.553   0.488 -0.7800 -2.1502 -0.7295
  111MOL   C28742307   5.446   6.650   0.582  0.1019  0.7354 -0.0084
  111MOL   C28842308   5.519   6.787   0.581  0.2552  0.6294 -0.3575
  111MOL   C28942309   5.433   6.910   0.614 -0.0113  0.2665  0.3809
  111MOL   C29042310   5.542   7.014   0.634  0.1023 -0.0866 -0.5061
  111MOL   C29142311   5.668   6.948   0.699 -0.2791  1.0469  0.8324
  111MOL   C29242312   5.646   6.796   0.676 -0.5649 -0.0780 -0.0797
  111MOL   C29342313   5.348   6.645   0.461 -0.4873  0.1786 -0.6280
  111MOL   H29442314   5.392   6.633   0.675 -1.5519  0.4069 -0.9922
  111MOL   H29542315   5.559   6.798   0.480  0.0967  0.8409 -0.3986
  111MOL   H29642316   5.364   6.931   0.533  0.5243 -0.9621 -0.4046
  111MOL   H29742317   5.385   6.901   0.711  0.9982 -2.1370  0.6939
  111MOL   H29842318   5.565   7.054   0.536  1.1146  1.8642  0.4979
  111MOL   H29942319   5.501   7.099   0.689  0.5160  0.3007 -0.7961
  111MOL   H30042320   5.678   6.963   0.806 -0.2966  1.4529  0.7802
  111MOL   H30142321   5.761   6.981   0.652  0.6783 -1.3701  0.9928
  111MOL   H30242322   5.621   6.749   0.771 -0.6285 -1.0805 -0.5800
  111MOL   H30342323   5.732   6.736   0.646 -0.6385  0.0611 -0.5736
  111MOL   H30442324   5.407   6.612   0.376 -1.3285 -0.5254 -0.9554
  111MOL   H30542325   5.301   6.738   0.430 -1.4194  0.5448  1.7463
  111MOL   C30642326   5.223   6.555   0.480  0.0200 -0.3579  0.4588
  111MOL   C30742327   5.129   6.617   0.585 -0.5855 -0.1306  0.1112
  111MOL   C30842328   5.049   6.744   0.542 -0.6739  0.4730  0.3485
  111MOL   C30942329   4.927   6.745   0.633 -0.2239 -0.1750 -0.0214
  111MOL   C31042330   4.883   6.600   0.641 -0.5987  0.5340 -0.1475
  111MOL   C31142331   5.020   6.524   0.649 -0.0510 -0.7531 -0.1862
  111MOL   C31242332   5.165   6.518   0.344  0.2180  0.0886 -0.0332
  111MOL   H31342333   5.251   6.456   0.516 -1.1415 -1.7136 -2.2351
  111MOL   H31442334   5.189   6.643   0.673 -3.7598  2.1671  1.7056
  111MOL   H31542335   5.025   6.738   0.436 -1.3056  0.4153  0.4922
  111MOL   H31642336   5.111   6.833   0.552 -0.2354  0.2690 -0.5117
  111MOL   H31742337   4.950   6.794   0.728 -0.7546 -0.0426  0.0439
  111MOL   H31842338   4.843   6.803   0.594  0.4638 -0.0609 -1.3285
  111MOL   H31942339   4.831   6.574   0.548 -0.5204 -0.5396  0.1001
  111MOL   H32042340   4.812   6.571   0.718 -1.4780  1.5402 -0.5758
  111MOL   H32142341   5.053   6.520   0.753  0.9044  1.5842 -0.3712
  111MOL   H32242342   5.011   6.420   0.616  0.4219 -0.6291 -0.7127
  111MOL   H32342343   5.160   6.606   0.279  1.2247  0.8694  0.9160
  111MOL   H32442344   5.058   6.501   0.355  0.0540  0.2379 -1.2917
  111MOL   C32542345   5.237   6.399   0.272  0.3078 -0.7309  0.3396
  111MOL   C32642346   5.231   6.405   0.117 -0.0317 -0.1112  0.2238
  111MOL   C32742347   5.321   6.513   0.041 -0.5418  0.1081  0.0439
  111MOL   C32842348   5.255   6.534   7.591 -0.1533 -0.0741 -0.0328
  111MOL   C32942349   5.117   6.464   7.600  0.1130 -0.2827 -0.6006
  111MOL   C33042350   5.095   6.420   0.054 -0.2112  0.2492  0.7494
  111MOL   C33142351   5.196   6.265   0.334  0.4179 -0.3420 -0.2146
  111MOL   H33242352   5.344   6.410   0.292  0.0197 -1.5097  2.4317
  111MOL   H33342353   5.266   6.308   0.080  1.4001  0.5090 -0.0724
  111MOL   H33442354   5.425   6.481   0.026  0.7582  3.7085  0.9625
  111MOL   H33542355   5.331   6.599   0.107  1.1447 -0.9345  1.1929
  111MOL   H33642356   5.309   6.481   7.513  1.1873  0.3917  0.5549
  111MOL   H33742357   5.251   6.635   7.552  1.0914 -0.1725 -0.4277
  111MOL   H33842358   5.118   6.379   7.531 -2.3907 -0.8012 -0.0315
  111MOL   H33942359   5.036   6.530   7.570  2.2332  2.2028 -1.0168
  111MOL   H34042360   5.032   6.332   0.070 -3.4913  2.5838  1.1568
  111MOL   H34142361   5.037   6.494   0.109 -1.1547 -0.1544  0.3270
  111MOL   H34242362   5.094   6.247   0.301 -0.6546  1.9276  1.8354
  111MOL   H34342363   5.185   6.276   0.441 -0.7409  0.6028 -0.4258
  111MOL   C34442364   5.269   6.128   0.287  0.6970  0.0276  0.1112
  111MOL   C34542365   5.199   6.004   0.349 -0.0826 -0.3928  0.2147
  111MOL   C34642366   5.054   5.966   0.301 -0.1159  0.0705  0.0709
  111MOL   C34742367   4.988   5.910   0.430 -0.2824  0.4812  0.4331
  111MOL   C34842368   5.050   5.985   0.545 -0.0385 -0.2447  0.9153
  111MOL   C34942369   5.192   6.004   0.503 -0.5105  1.2266  0.1986
  111MOL   C35042370   5.427   6.137   0.311  0.7765  0.5330  0.4468
  111MOL   H35142371   5.255   6.122   0.179 -0.3173 -1.7911  0.3300
  111MOL   H35242372   5.266   5.922   0.322 -0.2091  0.4733 -2.9043
  111MOL   H35342373   5.072   5.912   0.209  0.7885  0.8537 -0.2250
  111MOL   H35442374   4.991   6.052   0.279 -0.0413 -0.0741 -0.6905
  111MOL   H35542375   4.880   5.922   0.422 -0.2131 -0.2657 -2.0955
  111MOL   H35642376   4.999   5.801   0.433 -1.1651  0.4123  1.3694
  111MOL   H35742377   5.042   5.928   0.638  3.5209  0.9560  2.0695
  111MOL   H35842378   5.002   6.080   0.568  1.5965  0.9339 -0.3837
  111MOL   H35942379   5.236   6.091   0.552  3.6184  0.0242 -1.1507
  111MOL   H36042380   5.252   5.922   0.541 -1.5003  0.2077 -0.4108
  111MOL   H36142381   5.437   6.139   0.420  0.9678 -0.9254  0.4716
  111MOL   H36242382   5.461   6.237   0.284  2.1432 -0.1207 -0.3478
  111MOL   C36342383   5.513   6.022   0.257 -0.3036  0.1316  0.3148
  111MOL   C36442384   5.630   6.079   0.171 -0.4089  0.3966  0.3793
  111MOL   C36542385   5.576   6.151   0.054  0.0747 -0.4998  0.1150
  111MOL   C36642386   5.694   6.163   7.648  0.0625 -0.6132  0.0862
  111MOL   C36742387   5.789   6.052   7.680 -0.1264 -0.5380  0.1018
  111MOL   C36842388   5.722   5.972   0.104  0.3985 -0.1419 -0.5239
  111MOL   C36942389   5.562   5.925   0.364 -0.7566 -0.7080 -0.2864
  111MOL   H37042390   5.444   5.964   0.195 -0.1127 -0.2528  0.4566
  111MOL   H37142391   5.697   6.134   0.236  2.8146 -1.2273 -1.4511
  111MOL   H37242392   5.497   6.091   0.008 -0.9615  0.2597  0.9084
  111MOL   H37342393   5.533   6.244   0.089  1.1282  0.7111 -1.7136
  111MOL   H37442394   5.660   6.162   7.545 -0.7479 -0.7599  0.3476
  111MOL   H37542395   5.745   6.258   7.663 -1.4029  0.1607  0.1754
  111MOL   H37642396   5.812   5.998   7.588  0.9664 -0.8553  0.5499
  111MOL   H37742397   5.879   6.101   0.029 -0.5244  1.3422 -1.2796
  111MOL   H37842398   5.801   5.933   0.168  0.9053  0.4424 -0.7862
  111MOL   H37942399   5.656   5.894   0.068 -0.2258  0.4194 -0.6065
  111MOL   H38042400   5.635   5.853   0.327 -1.1003 -1.0157 -0.3630
  111MOL   H38142401   5.480   5.875   0.416 -0.0173  0.6228  2.2812
  111MOL   H38242402   5.611   5.990   0.437 -0.6037 -0.5591 -0.5236
  112MOL     C142403   6.719   5.100   1.959  0.0148  0.4250 -0.3450
  112MOL     C242404   6.848   5.124   2.041 -0.0213 -0.3413 -0.8667
  112MOL     C342405   6.843   5.102   2.187 -0.7206  0.1560 -0.4732
  112MOL     C442406   6.969   5.171   2.255 -0.5030 -0.2799 -0.0085
  112MOL     C542407   7.000   5.286   2.157 -0.1670  0.3071 -0.5405
  112MOL     C642408   6.908   5.268   2.032 -0.4075  0.2988 -0.2583
  112MOL     C742409   6.669   4.951   1.971  0.4737 -0.5899 -0.0782
  112MOL     H842410   6.639   5.160   2.003 -2.5717 -2.3102 -1.1159
  112MOL     H942411   6.921   5.057   1.995  0.1904 -1.0938  0.5389
  112MOL    H1042412   6.744   5.130   2.222 -0.1077  0.3723  1.1291
  112MOL    H1142413   6.843   4.993   2.195 -1.9178  0.1405 -0.6304
  112MOL    H1242414   6.941   5.200   2.357  1.7563 -0.3983  0.6785
  112MOL    H1342415   7.050   5.098   2.249 -1.1442 -0.9629 -0.3710
  112MOL    H1442416   6.967   5.382   2.196 -1.4552 -0.7752  1.1124
  112MOL    H1542417   7.108   5.295   2.149  0.0059  0.1870  1.3246
  112MOL    H1642418   6.963   5.287   1.940 -1.8923 -1.6365 -1.5729
  112MOL    H1742419   6.830   5.343   2.041 -0.8485 -0.4577  3.1355
  112MOL    H1842420   6.759   4.889   1.965  2.6307  2.5339 -1.8160
  112MOL    H1942421   6.632   4.941   2.073  0.3987  1.3795  0.1095
  112MOL    H2042422   6.729   5.128   1.854 -2.3074  2.7682 -0.0037
  112MOL    C2142423   6.546   4.918   1.880 -0.0634 -0.1119  0.0919
  112MOL    C2242424   6.418   5.000   1.900 -1.1628 -0.1738 -0.3785
  112MOL    C2342425   6.412   5.137   1.842  0.1958  0.2622 -0.4893
  112MOL    C2442426   6.331   5.225   1.933 -0.4349  0.1413  0.1769
  112MOL    C2542427   6.258   5.122   2.028 -0.4533 -0.1304  0.2482
  112MOL    C2642428   6.366   5.015   2.043  0.0083  0.5410 -0.4072
  112MOL    C2742429   6.581   4.907   1.729 -0.1802  0.1690  0.1685
  112MOL    H2842430   6.516   4.815   1.900  1.2917 -0.4839  0.2548
  112MOL    H2942431   6.336   4.941   1.859  1.0549 -1.8688 -2.5329
  112MOL    H3042432   6.354   5.133   1.750 -0.5117 -2.1140  0.0476
  112MOL    H3142433   6.507   5.187   1.825  0.7674 -0.8737 -0.6343
  112MOL    H3242434   6.397   5.278   2.002 -0.6215  0.7506 -0.1105
  112MOL    H3342435   6.262   5.292   1.883 -0.4976  0.0625  0.1570
  112MOL    H3442436   6.165   5.077   1.995  0.5197 -1.7108 -0.4451
  112MOL    H3542437   6.240   5.155   2.130 -2.1985 -1.3154  0.3348
  112MOL    H3642438   6.333   4.921   2.086 -0.9721  1.5190  0.9863
  112MOL    H3742439   6.448   5.040   2.110  1.2088 -2.7590 -0.5547
  112MOL    H3842440   6.608   5.005   1.690  0.7599  1.0098  2.8290
  112MOL    H3942441   6.677   4.856   1.732 -0.4744 -0.3871  0.1728
  112MOL    C4042442   6.484   4.842   1.624  0.4131 -0.2734 -0.0237
  112MOL    C4142443   6.528   4.880   1.479  0.7521 -0.2549 -0.1599
  112MOL    C4242444   6.676   4.872   1.445  0.4128 -0.1115  0.2107
  112MOL    C4342445   6.698   4.971   1.325  0.1336 -0.3940  0.9093
  112MOL    C4442446   6.576   5.058   1.318 -1.1774  0.1363 -0.4738
  112MOL    C4542447   6.488   5.023   1.441 -0.0525  0.4535 -0.0051
  112MOL    C4642448   6.492   4.689   1.647 -0.1725  0.1218 -0.4314
  112MOL    H4742449   6.379   4.867   1.642  0.6548  1.3669 -0.7747
  112MOL    H4842450   6.490   4.811   1.403 -0.8352 -1.4484  1.6673
  112MOL    H4942451   6.706   4.772   1.414 -0.8284 -0.5182  0.3109
  112MOL    H5042452   6.740   4.901   1.528 -0.9576  2.5075  0.3921
  112MOL    H5142453   6.716   4.927   1.227  0.1175  0.5098  0.4925
  112MOL    H5242454   6.784   5.035   1.346 -0.5850  0.3328  1.6496
  112MOL    H5342455   6.601   5.163   1.304 -3.8352  0.8774 -0.0160
  112MOL    H5442456   6.519   5.042   1.227 -0.6453  2.3677 -1.2377
  112MOL    H5542457   6.499   5.086   1.529  0.8066  1.0596 -0.5341
  112MOL    H5642458   6.386   5.029   1.405 -1.1958 -2.2478  2.5122
  112MOL    H5742459   6.591   4.645   1.652 -0.0882  0.3875  0.2308
  112MOL    H5842460   6.464   4.676   1.751  1.9815  1.1492  0.3030
  112MOL    C5942461   6.393   4.601   1.568 -0.2075 -0.7604 -0.8894
  112MOL    C6042462   6.446   4.455   1.575  0.1778 -0.7398  0.9548
  112MOL    C6142463   6.573   4.431   1.488  0.0505  0.2461 -0.3500
  112MOL    C6242464   6.572   4.280   1.463 -0.1877  0.3193 -0.9104
  112MOL    C6342465   6.427   4.251   1.429  0.1987 -0.5211 -0.0971
  112MOL    C6442466   6.344   4.340   1.523 -0.1845 -0.0863 -0.4493
  112MOL    C6542467   6.254   4.624   1.637 -0.4442  0.2552 -0.1000
  112MOL    H6642468   6.398   4.631   1.463  0.1111  0.5538 -0.5024
  112MOL    H6742469   6.464   4.435   1.680  0.2703  1.2064  1.3253
  112MOL    H6842470   6.669   4.456   1.534  0.1524 -1.7716  0.6223
  112MOL    H6942471   6.569   4.487   1.395  1.8876 -0.7248 -1.0673
  112MOL    H7042472   6.614   4.238   1.555 -2.5572  2.2903  1.1426
  112MOL    H7142473   6.627   4.266   1.370  0.6923 -1.6747 -0.1172
  112MOL    H7242474   6.409   4.144   1.423 -1.6378 -0.1027 -2.9432
  112MOL    H7342475   6.412   4.292   1.329 -0.7823 -1.2592 -0.2618
  112MOL    H7442476   6.264   4.379   1.460 -0.6910  0.8027  0.7167
  112MOL    H7542477   6.299   4.302   1.616 -2.5223  1.1365 -1.0419
  112MOL    H7642478   6.253   4.716   1.696 -0.2048  0.6700 -0.7356
  112MOL    H7742479   6.241   4.544   1.711 -1.4512 -0.0778 -0.6244
  112MOL    C7842480   6.132   4.637   1.546  0.8779  0.0529 -0.1185
  112MOL    C7942481   5.997   4.594   1.623 -0.1884  0.0529 -0.1712
  112MOL    C8042482   5.973   4.674   1.754  0.2139 -0.4562 -0.5285
  112MOL    C8142483   5.879   4.581   1.830  0.1063 -0.2565 -0.0582
  112MOL    C8242484   5.896   4.444   1.772  0.7201  0.3129 -0.2551
  112MOL    C8342485   5.976   4.450   1.647  0.7206 -0.0295 -0.0434
  112MOL    C8442486   6.124   4.782   1.491 -0.7244 -0.3575  0.2807
  112MOL    H8542487   6.147   4.574   1.459  0.8577  1.5768 -1.2350
  112MOL    H8642488   5.915   4.617   1.554 -0.2922  1.0654  0.2730
  112MOL    H8742489   5.921   4.769   1.744  1.1962  0.0042 -1.3795
  112MOL    H8842490   6.059   4.697   1.817  0.6709 -0.4851 -1.1278
  112MOL    H8942491   5.778   4.618   1.813 -0.2479 -0.3001  1.8546
  112MOL    H9042492   5.915   4.581   1.933  2.4693  0.7763 -0.8472
  112MOL    H9142493   5.935   4.374   1.846 -1.9219 -0.8096  0.1503
  112MOL    H9242494   5.796   4.407   1.747  0.5652  1.8236 -2.0033
  112MOL    H9342495   6.077   4.410   1.651  1.3156  1.5612  1.2673
  112MOL    H9442496   5.924   4.399   1.566 -2.3450 -0.2818  1.9964
  112MOL    H9542497   6.221   4.825   1.466 -0.1583 -2.5950 -1.5694
  112MOL    H9642498   6.107   4.844   1.579  1.3915  1.8887 -0.8113
  112MOL    C9742499   6.031   4.810   1.367  0.3483  0.0663  0.5002
  112MOL    C9842500   6.087   4.772   1.231  0.4885 -0.4158  0.4548
  112MOL    C9942501   6.131   4.625   1.212  0.4867  0.4689  0.4469
  112MOL   C10042502   6.113   4.600   1.064  0.3009 -0.0844  0.2098
  112MOL   C10142503   5.984   4.682   1.027 -0.2342  0.1349 -0.3927
  112MOL   C10242504   5.981   4.802   1.125  0.2142  0.0832  0.1678
  112MOL   C10342505   5.984   4.958   1.399  0.1924  0.5956  0.3107
  112MOL   H10442506   5.945   4.743   1.376 -1.1287  1.6170 -1.6802
  112MOL   H10542507   6.175   4.834   1.216 -0.1302  0.1235 -1.1460
  112MOL   H10642508   6.232   4.601   1.245  1.2504  3.9016  0.8323
  112MOL   H10742509   6.059   4.566   1.269  0.5102  0.3016  0.3003
  112MOL   H10842510   6.102   4.496   1.030  2.3496 -0.1846 -0.1809
  112MOL   H10942511   6.199   4.629   1.004  1.4552  1.7342  2.6758
  112MOL   H11042512   5.894   4.622   1.040 -0.7304  1.0644  0.5580
  112MOL   H11142513   5.981   4.714   0.923 -0.1253 -1.3638 -0.8699
  112MOL   H11242514   5.986   4.896   1.070 -1.4422  0.5513  0.7978
  112MOL   H11342515   5.880   4.807   1.166  0.6810  1.4838  1.1793
  112MOL   H11442516   6.072   5.020   1.416  0.1281  1.0720 -1.0357
  112MOL   H11542517   5.946   4.996   1.305  2.8230 -0.6052 -1.2938
  112MOL   C11642518   5.877   4.970   1.511  0.1625  0.2223  0.1631
  112MOL   C11742519   5.909   5.089   1.605  0.0579  0.3332 -0.7603
  112MOL   C11842520   6.052   5.097   1.664 -0.1760  0.3310  0.1293
  112MOL   C11942521   6.077   5.242   1.677 -0.0226  0.3646  0.2118
  112MOL   C12042522   6.002   5.309   1.565  0.1593 -0.3483  0.3355
  112MOL   C12142523   5.883   5.224   1.540  0.0094 -0.0984 -0.3554
  112MOL   C12242524   5.731   4.981   1.458 -1.0395 -0.2526 -0.4308
  112MOL   H12342525   5.880   4.877   1.568 -1.4484 -0.8667 -1.4676
  112MOL   H12442526   5.844   5.087   1.692 -0.6776  1.7844 -1.2606
  112MOL   H12542527   6.060   5.038   1.756  0.8483 -1.1873 -0.9111
  112MOL   H12642528   6.134   5.047   1.612 -0.1475 -0.7798  1.2027
  112MOL   H12742529   6.185   5.251   1.664 -0.0939 -2.0646 -2.5218
  112MOL   H12842530   6.046   5.277   1.775 -1.0542  1.3704 -0.4507
  112MOL   H12942531   6.054   5.301   1.470  0.7770  0.9035  0.5629
  112MOL   H13042532   5.977   5.413   1.586  0.7524 -0.0900 -0.2135
  112MOL   H13142533   5.800   5.275   1.588  0.0164  1.6479 -2.1090
  112MOL   H13242534   5.863   5.226   1.433 -0.0682 -0.6955 -0.3561
  112MOL   H13342535   5.730   4.934   1.359  1.7410 -1.4411  0.0518
  112MOL   H13442536   5.702   5.081   1.427  1.2373  0.0516 -1.7580
  112MOL   C13542537   5.608   4.923   1.526 -0.0460  0.2828 -0.1489
  112MOL   C13642538   5.610   4.959   1.673  0.2396 -0.9022 -0.0866
  112MOL   C13742539   5.519   4.883   1.768 -0.0739 -0.0598 -0.3875
  112MOL   C13842540   5.511   4.966   1.894 -0.2698 -0.8000 -0.2969
  112MOL   C13942541   5.536   5.111   1.845 -0.2680  0.1207  0.0853
  112MOL   C14042542   5.561   5.105   1.696 -0.2318  0.0921 -0.8290
  112MOL   C14142543   5.590   4.769   1.509 -0.5521  0.4001 -0.2402
  112MOL   H14242544   5.518   4.959   1.477  0.7257 -1.2431 -2.7754
  112MOL   H14342545   5.712   4.943   1.710  0.0292  0.6300  1.1736
  112MOL   H14442546   5.417   4.873   1.732  0.2973 -0.6558 -1.2815
  112MOL   H14542547   5.563   4.785   1.786 -1.8446 -0.9128 -0.6877
  112MOL   H14642548   5.583   4.923   1.964 -0.6275 -0.9183  0.0001
  112MOL   H14742549   5.408   4.956   1.928 -1.1377  1.0764 -2.2415
  112MOL   H14842550   5.620   5.155   1.900 -0.2750  0.8723 -0.4959
  112MOL   H14942551   5.448   5.166   1.876  0.7414  1.4896  0.5973
  112MOL   H15042552   5.466   5.133   1.651 -1.5180 -1.7124  0.7080
  112MOL   H15142553   5.633   5.179   1.662  0.9809  0.3372  2.1499
  112MOL   H15242554   5.492   4.747   1.551  0.0863 -0.0306  1.0447
  112MOL   H15342555   5.673   4.724   1.564 -1.0165 -1.4932 -1.0369
  112MOL   C15442556   5.568   4.713   1.374  0.0726  0.3878  0.2100
  112MOL   C15542557   5.525   4.570   1.381  0.4929  0.5280 -1.1186
  112MOL   C15642558   5.379   4.536   1.439  0.8245 -0.0301  0.1670
  112MOL   C15742559   5.390   4.485   1.583 -0.5269 -0.7867 -0.2206
  112MOL   C15842560   5.543   4.471   1.604  0.2868  0.0866 -0.7009
  112MOL   C15942561   5.610   4.487   1.472  0.3094 -0.2038 -0.0380
  112MOL   C16042562   5.477   4.797   1.281 -0.0644 -0.8308  0.9052
  112MOL   H16142563   5.656   4.726   1.311  1.0323  0.6452  1.5853
  112MOL   H16242564   5.529   4.516   1.287  0.8552 -0.9608 -0.2729
  112MOL   H16342565   5.315   4.625   1.440 -1.3495 -1.5521  0.5820
  112MOL   H16442566   5.331   4.459   1.378  0.9736 -0.2106  0.2794
  112MOL   H16542567   5.349   4.553   1.658  3.6907  1.6927  0.0186
  112MOL   H16642568   5.334   4.392   1.597 -1.6271 -0.1861 -0.5234
  112MOL   H16742569   5.568   4.375   1.650  1.8895  0.3480 -1.0043
  112MOL   H16842570   5.574   4.551   1.672  3.1533 -1.7515  0.2500
  112MOL   H16942571   5.630   4.389   1.430  2.1977  0.6883 -1.3162
  112MOL   H17042572   5.712   4.527   1.465  0.6797 -1.2638 -0.8326
  112MOL   H17142573   5.499   4.904   1.283 -1.8490 -0.4494  1.2637
  112MOL   H17242574   5.376   4.800   1.322 -0.0391  2.5620  0.8718
  112MOL   C17342575   5.476   4.757   1.133 -0.8319  0.6556  0.4043
  112MOL   C17442576   5.493   4.871   1.027 -0.4611  0.6812  0.4728
  112MOL   C17542577   5.630   4.939   1.019 -0.8512  0.4545 -0.1512
  112MOL   C17642578   5.608   5.064   0.939 -0.2852  0.1662  0.1552
  112MOL   C17742579   5.464   5.103   0.953  0.6484  0.1573 -0.4223
  112MOL   C17842580   5.396   4.984   1.015 -0.6105 -0.3950 -0.0551
  112MOL   C17942581   5.349   4.667   1.098  0.3693  0.5340  0.0315
  112MOL   H18042582   5.568   4.699   1.125 -0.8343  0.5835  0.9164
  112MOL   H18142583   5.485   4.820   0.932  0.5900  1.4607 -0.0374
  112MOL   H18242584   5.696   4.866   0.972  2.2701  0.9370  3.2688
  112MOL   H18342585   5.664   4.971   1.117 -0.3958 -0.8206  0.1148
  112MOL   H18442586   5.682   5.142   0.956  0.6984 -0.8387  0.5578
  112MOL   H18542587   5.631   5.032   0.838  1.6709  0.4072  0.5175
  112MOL   H18642588   5.426   5.141   0.858 -0.0704 -1.6694 -0.9027
  112MOL   H18742589   5.463   5.186   1.023 -3.0969  0.5131 -0.8270
  112MOL   H18842590   5.362   5.030   1.108 -2.3466 -1.2512 -0.2386
  112MOL   H18942591   5.300   4.968   0.966  0.2619  0.2913 -2.0219
  112MOL   H19042592   5.308   4.602   1.175  2.0330  0.1352  0.6118
  112MOL   H19142593   5.268   4.738   1.084  4.0169  4.6998 -0.9060
  112MOL   C19242594   5.357   4.578   0.965 -0.2477  0.2012  0.2917
  112MOL   C19342595   5.217   4.544   0.902 -0.7210 -0.4295 -0.3203
  112MOL   C19442596   5.135   4.664   0.837  0.3337 -0.2872 -0.3088
  112MOL   C19542597   4.994   4.622   0.841 -0.1329  0.2736  0.4950
  112MOL   C19642598   4.979   4.532   0.965 -0.3319 -0.1893  0.2009
  112MOL   C19742599   5.114   4.474   0.993 -0.8972  0.5601  0.3974
  112MOL   C19842600   5.435   4.441   0.999  0.1048 -0.2553 -0.5473
  112MOL   H19942601   5.413   4.628   0.886  2.2634 -1.0707  1.2003
  112MOL   H20042602   5.234   4.470   0.825  0.2043 -0.5861  0.0269
  112MOL   H20142603   5.166   4.681   0.734 -1.1847  3.5798 -0.2124
  112MOL   H20242604   5.147   4.760   0.886 -0.8769 -1.0777  1.5983
  112MOL   H20342605   4.929   4.709   0.831 -1.6513 -0.9753 -0.8916
  112MOL   H20442606   4.967   4.559   0.756 -0.0800 -1.7585  1.9361
  112MOL   H20542607   4.907   4.457   0.932  0.7111 -1.0066 -0.2750
  112MOL   H20642608   4.940   4.588   1.049 -0.2192  2.5639 -1.5215
  112MOL   H20742609   5.122   4.367   0.979  1.7768  0.6914  0.7101
  112MOL   H20842610   5.140   4.487   1.098 -0.1132  0.3749  0.2245
  112MOL   H20942611   5.390   4.423   1.097  0.0753 -0.6140 -0.6258
  112MOL   H21042612   5.381   4.368   0.938 -2.5831  1.7305 -0.6465
  112MOL   C21142613   5.584   4.440   1.001 -0.3117  0.1648 -0.4262
  112MOL   C21242614   5.648   4.309   1.043  0.4502 -0.1795  0.7156
  112MOL   C21342615   5.782   4.314   1.125 -0.6498  0.3767 -0.3486
  112MOL   C21442616   5.788   4.178   1.189  0.2213 -0.5102  0.2626
  112MOL   C21542617   5.657   4.106   1.159  0.3779 -0.3403  0.1254
  112MOL   C21642618   5.560   4.217   1.122 -0.3504  0.1135 -0.6166
  112MOL   C21742619   5.662   4.498   0.878 -0.0612  0.2600  0.4749
  112MOL   H21842620   5.603   4.509   1.083  0.3876  0.3558 -0.7469
  112MOL   H21942621   5.659   4.260   0.946 -2.0188  0.0408  0.3014
  112MOL   H22042622   5.871   4.320   1.063  0.8949 -0.8920  1.7025
  112MOL   H22142623   5.777   4.397   1.195 -0.3985  1.6784 -1.8401
  112MOL   H22242624   5.865   4.112   1.147 -0.4672 -0.3270 -1.3074
  112MOL   H22342625   5.810   4.191   1.295  3.5875  1.6066 -0.6155
  112MOL   H22442626   5.625   4.051   1.248 -1.4456  2.3160  1.1841
  112MOL   H22542627   5.676   4.043   1.073  0.9462  0.7510 -0.5620
  112MOL   H22642628   5.476   4.187   1.058 -0.3483 -0.0408 -0.5467
  112MOL   H22742629   5.519   4.261   1.213  0.7385  0.4062 -0.2595
  112MOL   H22842630   5.769   4.504   0.897  0.0170 -0.3603  0.2759
  112MOL   H22942631   5.634   4.603   0.867 -0.5324  0.0644 -0.2720
  112MOL   C23042632   5.652   4.421   0.742 -0.3145 -0.2796  0.1007
  112MOL   C23142633   5.761   4.491   0.653 -0.5937 -0.4012 -0.3645
  112MOL   C23242634   5.899   4.469   0.706  0.6935 -0.0078 -0.1698
  112MOL   C23342635   5.999   4.488   0.587 -0.7812 -0.4709  0.2189
  112MOL   C23442636   5.912   4.480   0.458  0.0635  0.8433  0.5555
  112MOL   C23542637   5.771   4.451   0.510 -0.3055  1.0355  0.8549
  112MOL   C23642638   5.511   4.430   0.667 -0.1644 -0.1226 -0.1292
  112MOL   H23742639   5.671   4.314   0.738  1.9338  0.1488 -1.6197
  112MOL   H23842640   5.741   4.598   0.655  0.5084 -0.1590 -1.5784
  112MOL   H23942641   5.935   4.534   0.785 -1.1704  0.4320  0.3613
  112MOL   H24042642   5.895   4.371   0.751 -0.5349  0.0816 -0.0551
  112MOL   H24142643   6.042   4.587   0.601 -1.4253  0.0731 -1.5058
  112MOL   H24242644   6.079   4.416   0.597  1.5007  1.6978 -1.8476
  112MOL   H24342645   5.942   4.401   0.388 -1.1335 -0.3211  1.3216
  112MOL   H24442646   5.916   4.575   0.405  1.7715 -0.1127 -1.0947
  112MOL   H24542647   5.738   4.347   0.509 -0.5853  1.1006  2.2189
  112MOL   H24642648   5.698   4.507   0.453  0.2991 -0.3344 -1.3050
  112MOL   H24742649   5.500   4.509   0.593 -1.4282 -1.0772 -0.9874
  112MOL   H24842650   5.435   4.465   0.738  1.0966  1.2503  0.5690
  112MOL   C24942651   5.460   4.293   0.606  0.0134 -0.0476  0.2352
  112MOL   C25042652   5.355   4.309   0.495  0.5870  0.7613  0.2825
  112MOL   C25142653   5.390   4.389   0.365 -0.5447  0.1481  0.6642
  112MOL   C25242654   5.260   4.440   0.302  0.4006  0.3502 -0.1444
  112MOL   C25342655   5.154   4.412   0.406 -0.1110  0.3852  0.4982
  112MOL   C25442656   5.222   4.369   0.541  0.8844  0.6552  0.3119
  112MOL   C25542657   5.416   4.208   0.725  0.2178 -0.2923 -0.3627
  112MOL   H25642658   5.547   4.243   0.562 -0.0234 -0.6933  0.8794
  112MOL   H25742659   5.326   4.212   0.456  2.4308  0.2728  0.0749
  112MOL   H25842660   5.440   4.331   0.288 -0.5180  2.2807 -0.9416
  112MOL   H25942661   5.459   4.469   0.389 -1.0641  0.4804  1.0714
  112MOL   H26042662   5.244   4.359   0.231  4.4615 -0.6681 -0.0158
  112MOL   H26142663   5.253   4.542   0.265  1.0219  0.2435 -0.5684
  112MOL   H26242664   5.081   4.340   0.367 -0.6450  0.0763  2.0194
  112MOL   H26342665   5.096   4.500   0.435 -0.3682  0.1788  0.6198
  112MOL   H26442666   5.158   4.297   0.594  0.1710  1.2312  0.2382
  112MOL   H26542667   5.244   4.450   0.610  3.3851  0.3369 -0.0688
  112MOL   H26642668   5.484   4.227   0.808 -0.0637  0.5267 -0.3192
  112MOL   H26742669   5.316   4.243   0.748  0.6212  0.0600  0.8497
  112MOL   C26842670   5.424   4.058   0.699  0.3199  0.4928  0.6491
  112MOL   C26942671   5.316   3.984   0.781 -0.2864  0.3780  0.4098
  112MOL   C27042672   5.355   3.973   0.923 -0.6241 -0.5479  0.2024
  112MOL   C27142673   5.307   3.834   0.968 -0.2375 -0.3097  0.6349
  112MOL   C27242674   5.233   3.771   0.853 -0.3490  0.2891  0.0789
  112MOL   C27342675   5.297   3.839   0.729 -0.2663  0.1096 -0.3408
  112MOL   C27442676   5.568   3.994   0.706  0.0013  0.4510 -0.2415
  112MOL   H27542677   5.398   4.046   0.594  0.6330 -2.1651  0.8351
  112MOL   H27642678   5.231   4.052   0.771  0.6348  1.3200 -1.3802
  112MOL   H27742679   5.461   3.995   0.939 -1.0198  0.9216  0.8327
  112MOL   H27842680   5.298   4.040   0.987 -3.2040 -1.8765 -0.6484
  112MOL   H27942681   5.394   3.774   0.994  0.2929  0.8941  1.6741
  112MOL   H28042682   5.251   3.850   1.060  1.5094 -0.0697  1.6713
  112MOL   H28142683   5.127   3.797   0.853 -0.5514 -0.5247  1.7822
  112MOL   H28242684   5.234   3.662   0.844 -0.7970  0.3632 -0.9167
  112MOL   H28342685   5.230   3.830   0.643 -0.2876 -1.7257 -0.1596
  112MOL   H28442686   5.390   3.782   0.721 -0.1048  0.2563  0.5146
  112MOL   H28542687   5.561   3.895   0.750  0.2515  1.8939  3.3188
  112MOL   H28642688   5.638   4.043   0.775  0.2320 -0.6654  0.3364
  112MOL   C28742689   5.638   3.968   0.570  0.2376 -0.6034 -0.6425
  112MOL   C28842690   5.795   3.959   0.585  0.5570  1.2650  0.5790
  112MOL   C28942691   5.873   4.089   0.611  1.1348  0.2393 -0.1506
  112MOL   C29042692   5.945   4.069   0.744 -0.1696  0.1704 -0.4612
  112MOL   C29142693   5.974   3.920   0.737  0.1960 -0.0694  0.1827
  112MOL   C29242694   5.848   3.854   0.687  0.7892 -0.3105  0.4075
  112MOL   C29342695   5.581   3.841   0.495  0.4658  0.4228 -0.3431
  112MOL   H29442696   5.626   4.054   0.504 -0.7435 -0.0265  0.2876
  112MOL   H29542697   5.824   3.928   0.484 -0.1453  0.9676  0.4705
  112MOL   H29642698   5.942   4.123   0.533  1.4609  0.8473  0.3907
  112MOL   H29742699   5.797   4.165   0.626  0.4095 -0.4064 -0.5625
  112MOL   H29842700   6.021   4.146   0.748  0.5275 -0.4881 -0.9500
  112MOL   H29942701   5.874   4.078   0.826 -1.6327 -1.6647 -1.4663
  112MOL   H30042702   6.007   3.894   0.838 -2.2272 -1.0749  0.7593
  112MOL   H30142703   6.053   3.901   0.664 -2.2510 -0.3848 -2.4783
  112MOL   H30242704   5.781   3.849   0.773 -0.9687  3.3297 -0.6398
  112MOL   H30342705   5.869   3.758   0.640 -0.8184  0.0731 -1.1422
  112MOL   H30442706   5.478   3.821   0.522  0.9017  0.1240  1.1707
  112MOL   H30542707   5.612   3.750   0.546 -1.9882 -0.6462 -0.7363
  112MOL   C30642708   5.591   3.837   0.340  0.0001  0.1912 -0.0409
  112MOL   C30742709   5.623   3.696   0.288  1.1966 -0.3737 -0.5754
  112MOL   C30842710   5.746   3.628   0.345  0.1287 -0.8920 -0.8315
  112MOL   C30942711   5.710   3.482   0.374  0.8239  0.3711 -0.6200
  112MOL   C31042712   5.575   3.463   0.320  0.2361  0.5525 -0.2411
  112MOL   C31142713   5.503   3.598   0.323 -0.2923 -0.7119  0.0859
  112MOL   C31242714   5.472   3.913   0.275  0.9294 -0.3304 -0.2101
  112MOL   H31342715   5.675   3.895   0.302  0.3392  0.1943  0.7161
  112MOL   H31442716   5.640   3.680   0.182 -1.6356  1.7199 -1.3919
  112MOL   H31542717   5.792   3.673   0.434  0.4349  2.1627 -2.4523
  112MOL   H31642718   5.819   3.626   0.264 -0.3156  0.3767 -1.2851
  112MOL   H31742719   5.784   3.411   0.337  1.5682  1.5955 -1.4970
  112MOL   H31842720   5.689   3.477   0.481 -0.1940  2.2095 -0.7108
  112MOL   H31942721   5.543   3.386   0.390  0.9516  0.8857  0.4495
  112MOL   H32042722   5.560   3.420   0.221 -1.1824  1.1893 -0.3291
  112MOL   H32142723   5.422   3.603   0.251 -0.3737 -2.4214  0.0429
  112MOL   H32242724   5.467   3.618   0.424  3.0942  1.2385  0.9977
  112MOL   H32342725   5.463   4.003   0.337  2.3042  0.4502 -1.1170
  112MOL   H32442726   5.385   3.848   0.284  0.5237  0.1334 -0.7052
  112MOL   C32542727   5.468   3.929   0.117  0.4112  0.1254 -0.4702
  112MOL   C32642728   5.597   4.001   0.056  0.4212 -0.6491 -0.3259
  112MOL   C32742729   5.605   4.152   0.086  0.5979 -0.9732  0.0923
  112MOL   C32842730   5.676   4.208   7.650 -0.5357 -0.1655 -0.0709
  112MOL   C32942731   5.612   4.124   7.539 -1.0386  0.4358  0.2564
  112MOL   C33042732   5.602   3.983   7.597  0.6115  0.0371  0.0042
  112MOL   C33142733   5.338   3.993   0.056 -0.3466  0.2510  0.1295
  112MOL   H33242734   5.471   3.826   0.080 -1.3803 -0.5657  1.1861
  112MOL   H33342735   5.693   3.966   0.094  1.4494  1.4226 -0.9607
  112MOL   H33442736   5.671   4.179   0.168  1.4204  1.1113 -1.1974
  112MOL   H33542737   5.508   4.202   0.095  1.8696  1.4008  1.1017
  112MOL   H33642738   5.783   4.185   7.656 -0.5353  0.5683  4.9326
  112MOL   H33742739   5.666   4.316   7.649 -1.8722 -0.2623  1.3439
  112MOL   H33842740   5.670   4.121   7.446 -0.5674 -0.5419  0.5689
  112MOL   H33942741   5.516   4.169   7.514  0.0986  3.0788  0.4730
  112MOL   H34042742   5.696   3.935   7.574 -0.8454 -1.1224 -3.8596
  112MOL   H34142743   5.529   3.911   7.560  0.1036 -0.7363  2.4119
  112MOL   H34242744   5.361   4.013   7.641  0.4051  1.6734  0.5500
  112MOL   H34342745   5.317   4.089   0.102  0.1129 -0.0411  0.9743
  112MOL   C34442746   5.201   3.921   0.076 -0.1290 -0.0218 -0.1212
  112MOL   C34542747   5.122   3.949   0.211  0.1378 -0.0823  0.4446
  112MOL   C34642748   4.975   3.899   0.211 -0.3732  1.0253 -0.0009
  112MOL   C34742749   4.908   3.966   0.327 -0.5132  0.6626  0.8009
  112MOL   C34842750   4.985   4.099   0.346  0.2101 -0.0648 -0.2915
  112MOL   C34942751   5.094   4.100   0.245 -0.2800 -0.3684 -0.0524
  112MOL   C35042752   5.211   3.764   0.048 -0.4374 -0.1320 -0.6261
  112MOL   H35142753   5.126   3.954   0.004 -0.2737 -0.3469 -0.1217
  112MOL   H35242754   5.169   3.921   0.305 -3.0442  1.2775  2.5384
  112MOL   H35342755   4.965   3.791   0.214  0.5663  0.8923 -1.0710
  112MOL   H35442756   4.930   3.931   0.117 -0.8593 -1.2476 -0.5821
  112MOL   H35542757   4.801   3.975   0.311 -0.2990 -0.7183 -1.6782
  112MOL   H35642758   4.922   3.896   0.409  1.5286 -0.5400 -0.5234
  112MOL   H35742759   5.033   4.110   0.443 -1.0997 -1.0149  0.4718
  112MOL   H35842760   4.908   4.175   0.332 -1.9878 -2.4845 -1.6518
  112MOL   H35942761   5.082   4.163   0.157  0.7909  1.3552  1.0179
  112MOL   H36042762   5.185   4.131   0.297 -0.4191 -2.7628  1.7072
  112MOL   H36142763   5.116   3.717   0.072 -0.2099 -1.1468 -1.6882
  112MOL   H36242764   5.296   3.722   0.102  0.3709 -1.9634 -3.2449
  112MOL   C36342765   5.226   3.710   7.592 -0.8753  0.2561 -0.1999
  112MOL   C36442766   5.225   3.547   7.595  0.0244  0.5307 -0.1083
  112MOL   C36542767   5.339   3.480   7.677 -0.2104 -0.1316 -0.2640
  112MOL   C36642768   5.352   3.340   7.612 -1.1084 -0.1447  0.1131
  112MOL   C36742769   5.274   3.337   7.480  0.3404  0.0660  0.6477
  112MOL   C36842770   5.248   3.482   7.457  0.5264  0.0521 -0.3204
  112MOL   C36942771   5.124   3.767   7.499  0.4571 -0.0730  0.0812
  112MOL   H37042772   5.325   3.747   7.566 -0.0768 -1.4683  0.3221
  112MOL   H37142773   5.128   3.505   7.622  1.1648 -1.3676  1.2282
  112MOL   H37242774   5.422   3.549   7.663 -0.0170 -0.3656 -0.2647
  112MOL   H37342775   5.318   3.490   0.094  1.3842  2.3028 -0.1327
  112MOL   H37442776   5.461   3.329   7.609 -0.4382  5.3459  0.2572
  112MOL   H37542777   5.308   3.272   7.685 -0.0701 -0.7209  0.2160
  112MOL   H37642778   5.337   3.301   7.399 -1.0422  0.0027 -0.4144
  112MOL   H37742779   5.191   3.271   7.504  0.3522 -0.4300 -0.6313
  112MOL   H37842780   5.168   3.496   7.384 -1.1929 -0.0896  1.4981
  112MOL   H37942781   5.342   3.523   7.421  1.2869 -1.7568 -0.4629
  112MOL   H38042782   5.029   3.726   7.534  1.0448  0.4729  2.3947
  112MOL   H38142783   5.145   3.724   7.401 -0.9770 -0.2926 -0.1480
  112MOL   H38242784   5.121   3.876   7.504  0.4789 -0.1171  1.2636
  113MOL     C142785   1.166   5.814   0.266 -0.8123  0.1021 -0.1191
  113MOL     C242786   1.199   5.869   0.409 -0.0109  0.4518  0.2799
  113MOL     C342787   1.239   6.015   0.402 -0.4167 -0.3030 -0.1071
  113MOL     C442788   1.388   6.023   0.427  0.4235 -0.0024  0.7646
  113MOL     C542789   1.439   5.882   0.452 -0.5409 -0.1563  0.4924
  113MOL     C642790   1.313   5.793   0.473 -0.6026 -0.5792 -0.4919
  113MOL     C742791   1.128   5.665   0.261 -0.5908 -0.1554  0.6011
  113MOL     H842792   1.084   5.874   0.226 -0.8057  0.1050 -0.1293
  113MOL     H942793   1.110   5.866   0.471  0.0904 -0.6521  0.3673
  113MOL    H1042794   1.209   6.065   0.310  0.8590  0.7067  0.0143
  113MOL    H1142795   1.198   6.078   0.480  0.0357 -2.0183  1.5611
  113MOL    H1242796   1.441   6.075   0.347  0.0348 -0.0980  0.4416
  113MOL    H1342797   1.419   6.090   0.507  1.4189 -0.2679  0.6102
  113MOL    H1442798   1.492   5.844   0.364  1.0351  0.3884  1.1928
  113MOL    H1542799   1.496   5.886   0.544  2.5878 -0.3143 -1.3730
  113MOL    H1642800   1.299   5.780   0.581  2.2298 -1.8438 -0.2169
  113MOL    H1742801   1.336   5.700   0.423  2.4422 -0.5099  0.6599
  113MOL    H1842802   1.213   5.600   0.279  0.2613  1.2544  1.8112
  113MOL    H1942803   1.061   5.658   0.346 -3.0504 -0.6265 -1.3014
  113MOL    H2042804   1.244   5.819   0.190  3.5329 -0.1174  4.0943
  113MOL    C2142805   1.062   5.610   0.123  0.0257  0.0687 -0.3207
  113MOL    C2242806   1.082   5.464   0.079  0.1745  0.9019  0.5339
  113MOL    C2342807   1.038   5.360   0.183  0.0848  0.0504  0.0331
  113MOL    C2442808   1.133   5.244   0.167  0.3004  0.6189  0.2961
  113MOL    C2542809   1.265   5.301   0.105 -0.0906 -0.5070 -0.5140
  113MOL    C2642810   1.232   5.439   0.042  0.4567  0.0467 -0.8583
  113MOL    C2742811   0.912   5.654   0.115  0.4479  0.3232  0.1630
  113MOL    H2842812   1.118   5.669   0.051 -0.5749  0.0594 -0.8004
  113MOL    H2942813   1.021   5.437   7.682  0.5654  0.5305  0.3757
  113MOL    H3042814   0.931   5.338   0.181 -0.0548  0.7280 -3.7715
  113MOL    H3142815   1.054   5.405   0.281  2.1846 -1.8180  0.5841
  113MOL    H3242816   1.146   5.193   0.263 -1.0799  0.3256  0.3409
  113MOL    H3342817   1.091   5.167   0.102  0.9740  0.7014 -0.2388
  113MOL    H3442818   1.305   5.227   0.035  0.8079 -1.0494  0.5676
  113MOL    H3542819   1.337   5.320   0.184 -1.1937 -0.5053  0.5085
  113MOL    H3642820   1.252   5.436   7.625  0.0833 -2.7126 -0.8774
  113MOL    H3742821   1.292   5.516   0.090 -1.3664  0.3954  0.9450
  113MOL    H3842822   0.856   5.609   0.196  0.7479  1.0397  0.7785
  113MOL    H3942823   0.911   5.759   0.143 -1.2645 -0.1954  2.1315
  113MOL    C4042824   0.843   5.648   7.664 -0.4527 -0.1549  0.0717
  113MOL    C4142825   0.687   5.656   7.676  0.1526  0.3355  0.0820
  113MOL    C4242826   0.642   5.776   0.069  0.4408 -0.2414 -0.4116
  113MOL    C4342827   0.509   5.734   0.122 -0.6564 -0.5580  0.2061
  113MOL    C4442828   0.506   5.579   0.130 -0.0331 -0.4514 -0.5374
  113MOL    C4542829   0.630   5.535   0.061 -0.3195  0.1956 -0.1476
  113MOL    C4642830   0.900   5.749   7.568  0.1813  0.6933 -0.5640
  113MOL    H4742831   0.859   5.550   7.619  0.4328  0.3993 -0.8443
  113MOL    H4842832   0.642   5.665   7.577  0.1455  1.0662  0.1463
  113MOL    H4942833   0.635   5.858   7.688  0.4708 -2.1346 -2.6580
  113MOL    H5042834   0.708   5.806   0.151  0.9579  2.1182 -1.6622
  113MOL    H5142835   0.428   5.758   0.053  0.8826 -1.4060 -1.9340
  113MOL    H5242836   0.490   5.788   0.215 -2.6772  2.6700 -1.9922
  113MOL    H5342837   0.497   5.539   0.231 -0.3413  1.2232  0.1244
  113MOL    H5442838   0.418   5.545   0.074 -1.3045  0.8586  0.5996
  113MOL    H5542839   0.691   5.485   0.136  1.2746 -2.9198 -3.4035
  113MOL    H5642840   0.612   5.451   7.685 -0.3495  1.1458 -1.3720
  113MOL    H5742841   0.847   5.844   7.582  1.4730  1.2509  0.5843
  113MOL    H5842842   1.005   5.775   7.582 -0.1891  1.7607  0.2763
  113MOL    C5942843   0.890   5.719   7.414  0.7652 -0.7240 -1.0051
  113MOL    C6042844   0.895   5.848   7.324  0.3747 -0.5933  1.0646
  113MOL    C6142845   0.781   5.951   7.343  0.3376  0.2859 -0.4538
  113MOL    C6242846   0.773   6.037   7.219  0.2143 -0.1059  0.9393
  113MOL    C6342847   0.814   5.941   7.104 -0.1375  0.3505  0.3731
  113MOL    C6442848   0.895   5.825   7.171 -0.2553 -0.3989 -1.2170
  113MOL    C6542849   1.003   5.611   7.380 -0.7511  0.5327 -0.2586
  113MOL    H6642850   0.790   5.679   7.396  0.3841 -0.9407  1.4210
  113MOL    H6742851   0.994   5.892   7.333 -0.1577  1.8375 -3.5287
  113MOL    H6842852   0.787   6.011   7.434 -1.1165 -0.5933  0.2353
  113MOL    H6942853   0.683   5.906   7.354  0.5912 -0.9095 -2.7717
  113MOL    H7042854   0.842   6.122   7.224 -0.7726  0.7878 -0.2032
  113MOL    H7142855   0.673   6.075   7.196 -0.6861 -2.7773  0.3357
  113MOL    H7242856   0.882   5.994   7.037  0.4592 -0.5678  0.2631
  113MOL    H7342857   0.721   5.907   7.056  0.1828 -0.2294  0.1645
  113MOL    H7442858   0.845   5.732   7.145 -0.0661 -1.1252  0.8987
  113MOL    H7542859   0.999   5.827   7.137  0.3116 -0.4128  0.4456
  113MOL    H7642860   1.042   5.571   7.473 -3.6638 -1.4109  0.1955
  113MOL    H7742861   1.086   5.658   7.328 -0.9330 -0.1868 -1.2154
  113MOL    C7842862   0.954   5.491   7.288  0.9858  0.1967  0.5674
  113MOL    C7942863   1.073   5.401   7.246  0.0605  0.7615 -0.1504
  113MOL    C8042864   1.055   5.314   7.124 -0.3548 -0.1196 -0.1890
  113MOL    C8142865   1.186   5.232   7.117 -0.1628  0.0229 -0.6064
  113MOL    C8242866   1.224   5.205   7.269  0.1150  0.1862  0.8907
  113MOL    C8342867   1.138   5.300   7.348  0.3070  0.3939  0.1075
  113MOL    C8442868   0.831   5.419   7.357 -0.2687 -0.2393  0.1876
  113MOL    H8542869   0.916   5.532   7.194  0.8068  0.2113  0.6454
  113MOL    H8642870   1.151   5.471   7.216 -1.7220  2.3282 -1.1883
  113MOL    H8742871   1.043   5.382   7.039  0.3752  0.4475  0.1553
  113MOL    H8842872   0.974   5.243   7.109 -1.0815  0.4529  0.9343
  113MOL    H8942873   1.266   5.296   7.079 -0.5831  0.7597 -0.2636
  113MOL    H9042874   1.173   5.140   7.060 -0.7295 -0.8431  0.8790
  113MOL    H9142875   1.204   5.102   7.299  0.0150 -0.0859 -0.1098
  113MOL    H9242876   1.331   5.208   7.290  0.5857 -2.1156 -0.9316
  113MOL    H9342877   1.053   5.250   7.395 -0.4114 -0.2130 -1.7732
  113MOL    H9442878   1.193   5.352   7.426  1.0733 -0.2580  0.0014
  113MOL    H9542879   0.744   5.484   7.366 -0.5659 -0.7487  0.9943
  113MOL    H9642880   0.847   5.383   7.458  1.0171  0.1119  0.1184
  113MOL    C9742881   0.756   5.307   7.279 -0.2456  0.1489  0.0086
  113MOL    C9842882   0.719   5.352   7.132 -0.5371 -0.4782 -0.5849
  113MOL    C9942883   0.668   5.230   7.054 -0.2056  0.1368 -0.1756
  113MOL   C10042884   0.574   5.291   6.954  0.7125  0.2055 -0.7894
  113MOL   C10142885   0.498   5.395   7.034 -0.7230 -0.3773 -0.0453
  113MOL   C10242886   0.606   5.455   7.120 -1.3814  0.1368 -0.9529
  113MOL   C10342887   0.628   5.252   7.359 -0.4889  0.0302  0.4652
  113MOL   H10442888   0.833   5.230   7.270  1.1881  1.4984  0.4729
  113MOL   H10542889   0.802   5.402   7.081 -0.3704  2.7618  2.6942
  113MOL   H10642890   0.759   5.184   7.015 -0.3124  0.4897 -0.8556
  113MOL   H10742891   0.623   5.150   7.112  1.6467 -1.1945 -0.5352
  113MOL   H10842892   0.509   5.219   6.904 -0.0457 -0.4119  1.0064
  113MOL   H10942893   0.636   5.351   6.888  1.3677  0.2433 -0.1416
  113MOL   H11042894   0.428   5.347   7.101 -1.5098  1.6387  0.6145
  113MOL   H11142895   0.451   5.462   6.962 -0.7924 -1.6037 -1.1528
  113MOL   H11242896   0.646   5.552   7.089  0.5898  0.6115  2.8486
  113MOL   H11342897   0.567   5.478   7.219  1.2969  0.6099  0.0288
  113MOL   H11442898   0.617   5.299   7.457  0.3121  2.3419 -0.5284
  113MOL   H11542899   0.539   5.274   7.299  1.4155  1.7047 -1.8436
  113MOL   C11642900   0.628   5.100   7.392 -0.6997 -0.4462 -0.5815
  113MOL   C11742901   0.751   5.073   7.485  0.7316  0.0300  0.2653
  113MOL   C11842902   0.747   5.129   7.634 -0.1625 -0.1750 -0.4417
  113MOL   C11942903   0.786   5.010   0.039  0.6635 -0.2168 -0.1354
  113MOL   C12042904   0.861   4.912   7.638 -0.4576 -0.8188  0.4051
  113MOL   C12142905   0.795   4.927   7.501  0.0716  0.1319 -0.0817
  113MOL   C12242906   0.488   5.061   7.460  0.2054 -0.0341  0.0123
  113MOL   H12342907   0.635   5.040   7.301  0.9680 -2.0805  0.5747
  113MOL   H12442908   0.837   5.116   7.434 -0.2120  0.8951 -0.6191
  113MOL   H12542909   0.822   5.208   7.639 -0.4019  0.3382 -3.8083
  113MOL   H12642910   0.646   5.160   7.659  0.1562  0.9236 -0.4946
  113MOL   H12742911   0.693   4.965   0.074  0.0616 -0.3493 -1.8548
  113MOL   H12842912   0.842   5.036   0.129  0.1923 -0.1058  0.1273
  113MOL   H12942913   0.848   4.811   7.677 -1.4159 -1.1012 -0.6081
  113MOL   H13042914   0.966   4.940   7.631 -0.6092 -0.7168 -1.8808
  113MOL   H13142915   0.845   4.898   7.409 -0.5570  1.3412 -0.8270
  113MOL   H13242916   0.709   4.860   7.507  1.7390 -2.2222 -1.6860
  113MOL   H13342917   0.459   5.111   7.553 -0.3944 -2.5685  1.2340
  113MOL   H13442918   0.486   4.965   7.511  2.6351  0.8387  1.8657
  113MOL   C13542919   0.363   5.057   7.368  0.0689  0.1698  0.3030
  113MOL   C13642920   0.229   5.114   7.432  0.0835 -0.6554  0.6558
  113MOL   C13742921   0.244   5.256   7.486 -0.5004 -0.7300  0.2851
  113MOL   C13842922   0.127   5.272   7.584 -0.3414  0.4391 -0.0023
  113MOL   C13942923   0.102   5.134   7.644 -0.0388  0.6877 -0.6168
  113MOL   C14042924   0.172   5.031   7.553  0.2523  0.6801  0.3767
  113MOL   C14142925   0.339   4.924   7.290  0.1587 -0.2649  0.2783
  113MOL   H14242926   0.390   5.129   7.291 -1.4236  1.4189  0.9516
  113MOL   H14342927   0.145   5.119   7.363  0.5592  0.3596  0.1411
  113MOL   H14442928   0.333   5.268   7.548 -1.7791 -2.5142  2.5185
  113MOL   H14542929   0.245   5.335   7.410 -1.9479  0.3612  1.3878
  113MOL   H14642930   0.033   5.305   7.541  0.8632  3.1524 -0.7030
  113MOL   H14742931   0.149   5.342   7.664 -1.2735 -0.2764  0.8812
  113MOL   H14842932   7.686   5.109   7.650  0.0414  0.4912  0.1021
  113MOL   H14942933   0.136   5.121   0.057 -3.3682  1.0822  0.5749
  113MOL   H15042934   0.247   4.974   7.607 -0.1181 -0.5314 -0.3937
  113MOL   H15142935   0.095   4.967   7.510 -0.6347  1.2429  1.1036
  113MOL   H15242936   0.297   4.848   7.356  1.6089 -2.1322 -0.8912
  113MOL   H15342937   0.436   4.885   7.257 -0.3703  1.2065 -3.2005
  113MOL   C15442938   0.245   4.932   7.169 -0.2271 -0.0362 -0.0060
  113MOL   C15542939   0.331   4.983   7.049 -0.4915 -0.2874 -0.0933
  113MOL   C15642940   0.248   5.018   6.930 -0.5123 -0.2797 -0.2634
  113MOL   C15742941   0.329   4.978   6.804 -0.3599  0.3934  0.1703
  113MOL   C15842942   0.462   4.924   6.846 -0.1660 -0.0306 -0.1151
  113MOL   C15942943   0.438   4.886   6.989 -0.2253  0.4446  0.2089
  113MOL   C16042944   0.167   4.801   7.143  0.3559 -0.3980 -0.1779
  113MOL   H16142945   0.173   5.008   7.199 -1.5708 -0.6225 -1.6620
  113MOL   H16242946   0.388   5.074   7.072 -5.1145  3.4156 -2.4098
  113MOL   H16342947   0.149   4.974   6.938 -1.1916  1.0194 -1.3422
  113MOL   H16442948   0.224   5.124   6.929  0.2944 -0.0983 -0.7689
  113MOL   H16542949   0.280   4.893   6.757 -0.0044  1.1785 -1.6974
  113MOL   H16642950   0.347   5.064   6.738  2.8371 -1.3012 -1.2688
  113MOL   H16742951   0.536   5.004   6.847 -0.7555  0.5757 -1.8362
  113MOL   H16842952   0.498   4.848   6.778 -2.1841  0.2068 -1.5096
  113MOL   H16942953   0.536   4.881   7.036 -0.1276  0.9298  0.0619
  113MOL   H17042954   0.386   4.790   6.994  0.0625  0.0831 -2.8877
  113MOL   H17142955   0.226   4.729   7.199  0.2443 -0.5728 -0.2849
  113MOL   H17242956   0.162   4.774   7.038  0.9445  1.4029 -0.6901
  113MOL   C17342957   0.028   4.801   7.215  1.1380  0.9574  0.2939
  113MOL   C17442958   0.029   4.709   7.337 -0.1336  0.5036  1.1719
  113MOL   C17542959   0.041   4.558   7.305 -1.0302  0.6475 -0.4149
  113MOL   C17642960   7.651   4.488   7.419  0.5973 -0.1520 -0.0190
  113MOL   C17742961   7.611   4.602   7.520 -0.1617  0.4022 -0.4782
  113MOL   C17842962   7.594   4.723   7.424 -1.5149  0.5155 -0.3807
  113MOL   C17942963   7.594   4.781   7.119  0.7221  0.0474  0.5473
  113MOL   H18042964   0.009   4.900   7.257 -1.0155  0.6718  0.0474
  113MOL   H18142965   0.120   4.725   7.395 -0.1110  0.3780  1.1704
  113MOL   H18242966   0.147   4.531   7.296 -0.8253  1.5397 -0.6809
  113MOL   H18342967   7.680   4.537   7.211 -2.1821 -0.7313  0.4871
  113MOL   H18442968   7.571   4.431   7.373 -0.1751  1.3468 -0.5747
  113MOL   H18542969   0.013   4.407   7.470 -0.9231 -1.4260 -0.4728
  113MOL   H18642970   7.687   4.607   7.597 -0.4889  1.1827 -0.2071
  113MOL   H18742971   7.519   4.568   7.568  0.8524 -1.3792  0.2239
  113MOL   H18842972   7.499   4.729   7.370 -1.6748 -1.1700 -0.3152
  113MOL   H18942973   7.601   4.817   7.480 -0.1511 -0.0356  0.3928
  113MOL   H19042974   7.629   4.749   7.021  1.6249 -0.8511  1.1417
  113MOL   H19142975   7.528   4.703   7.158 -0.7969  1.5090  0.9493
  113MOL   C19242976   7.504   4.907   7.112  0.2795 -0.5096 -0.2123
  113MOL   C19342977   7.355   4.879   7.070  0.0392 -0.9842 -0.2877
  113MOL   C19442978   7.274   4.784   7.162  0.0260 -0.1826 -0.2493
  113MOL   C19542979   7.144   4.762   7.084  0.5520 -0.2280  0.8333
  113MOL   C19642980   7.202   4.736   6.943  0.0573  0.8888 -0.0437
  113MOL   C19742981   7.336   4.809   6.933 -0.6709  0.4220  0.6646
  113MOL   C19842982   7.571   5.016   7.025 -0.2415 -0.0707 -0.2753
  113MOL   H19942983   7.491   4.936   7.217 -1.0199  0.5092 -0.6490
  113MOL   H20042984   7.296   4.970   7.071 -2.2131 -2.3603  2.7606
  113MOL   H20142985   7.255   4.824   7.262  1.5010  0.9894 -0.4128
  113MOL   H20242986   7.325   4.689   7.182 -1.2408 -0.8419 -0.1404
  113MOL   H20342987   7.101   4.672   7.130  1.2106 -3.1216 -3.8834
  113MOL   H20442988   7.080   4.850   7.085 -0.6670 -1.0881  1.9738
  113MOL   H20542989   7.136   4.775   6.866  0.0229 -0.6976 -0.8307
  113MOL   H20642990   7.220   4.632   6.920  4.1144  2.0334 -2.4338
  113MOL   H20742991   7.348   4.866   6.841  0.4960  3.1598  2.4493
  113MOL   H20842992   7.412   4.733   6.913  0.3667  1.5569  0.1845
  113MOL   H20942993   7.673   5.030   7.061  0.1764  1.3109 -1.9476
  113MOL   H21042994   7.588   4.974   6.927 -2.9370  1.2863 -1.3758
  113MOL   C21142995   7.487   5.149   7.003  0.1468 -0.8133 -0.4251
  113MOL   C21242996   7.460   5.216   7.141 -0.0415 -0.2977  0.2830
  113MOL   C21342997   7.580   5.280   7.214  0.1441  0.5855 -0.7123
  113MOL   C21442998   7.513   5.392   7.300  0.0018 -0.4667  0.5508
  113MOL   C21542999   7.356   5.376   7.285 -0.2146  0.3323  0.2697
  113MOL   C21643000   7.344   5.314   7.145 -0.3662 -0.3653 -0.0129
  113MOL   C21743001   7.564   5.250   6.915 -0.6683  0.0335 -0.0824
  113MOL   H21843002   7.393   5.112   6.961  0.0637 -2.6387  1.2948
  113MOL   H21943003   7.430   5.140   7.214 -1.3186  2.5177  2.8235
  113MOL   H22043004   7.615   5.200   7.279 -0.3129  1.2873  0.4062
  113MOL   H22143005   7.660   5.314   7.147  1.8214 -0.7694  0.5488
  113MOL   H22243006   7.569   5.408   7.392 -0.5995 -1.0552  1.0255
  113MOL   H22343007   7.538   5.483   7.245  0.3851 -0.6745  0.3825
  113MOL   H22443008   7.290   5.457   7.315 -0.8822 -1.0611  2.7298
  113MOL   H22543009   7.327   5.295   7.353 -1.3805  0.1395 -0.4368
  113MOL   H22643010   7.248   5.269   7.123 -0.4480 -0.1081 -0.1928
  113MOL   H22743011   7.362   5.397   7.076  0.1962 -0.7714 -0.3531
  113MOL   H22843012   7.667   5.217   6.900 -0.5375  0.4429 -0.1072
  113MOL   H22943013   7.573   5.351   6.955 -1.9157 -0.2818  1.0577
  113MOL   C23043014   7.511   5.266   6.773  0.2351 -0.0584 -0.0334
  113MOL   C23143015   7.613   5.333   6.674 -0.0897 -0.1533  0.1525
  113MOL   C23243016   7.671   5.466   6.723 -0.6901 -0.5735 -0.3259
  113MOL   C23343017   0.137   5.470   6.708  0.7867 -0.4030 -0.0387
  113MOL   C23443018   0.162   5.356   6.618  0.5355  0.0187 -0.0467
  113MOL   C23543019   0.048   5.252   6.636 -0.5321  0.1289  0.0929
  113MOL   C23643020   7.378   5.349   6.777  0.4780 -0.4473  0.5863
  113MOL   H23743021   7.492   5.168   6.729  0.0100  0.6125 -1.4524
  113MOL   H23843022   7.561   5.343   6.579 -0.9174  0.2015  0.6332
  113MOL   H23943023   7.629   5.542   6.656  0.9886  0.8209  0.1744
  113MOL   H24043024   7.657   5.498   6.826 -0.1760 -3.4206  0.6621
  113MOL   H24143025   0.164   5.567   6.666 -0.8005  0.4017  0.7727
  113MOL   H24243026   0.185   5.452   6.804  1.1747 -0.7537 -0.2963
  113MOL   H24343027   0.262   5.311   6.623  1.0554  0.8801 -1.9288
  113MOL   H24443028   0.149   5.399   6.518  0.1498  0.2475  0.1024
  113MOL   H24543029   0.070   5.195   6.726  1.8593  0.6100 -0.1591
  113MOL   H24643030   0.032   5.175   6.560 -1.3056 -0.8451  1.2402
  113MOL   H24743031   7.410   5.451   6.798  1.8614 -0.7760  0.1211
  113MOL   H24843032   7.318   5.327   6.865 -0.8789  1.2658  0.1157
  113MOL   C24943033   7.274   5.333   6.660  0.5340  0.1450  0.1241
  113MOL   C25043034   7.199   5.459   6.635  0.3565 -0.1298 -0.2401
  113MOL   C25143035   7.279   5.571   6.573 -0.6826 -0.3810 -0.5225
  113MOL   C25243036   7.217   5.704   6.625  0.3065  1.0297 -0.8059
  113MOL   C25343037   7.111   5.667   6.725  0.1267  0.8166 -0.3630
  113MOL   C25443038   7.122   5.514   6.747  0.4880 -0.2826 -0.6529
  113MOL   C25543039   7.174   5.212   6.688 -0.0236  0.4275 -0.0997
  113MOL   H25643040   7.324   5.315   6.565 -2.5227  3.8841 -2.3365
  113MOL   H25743041   7.134   5.433   6.551 -0.0873  3.4851 -1.0992
  113MOL   H25843042   7.273   5.563   6.465  1.3521 -0.7774 -0.6255
  113MOL   H25943043   7.385   5.567   6.599 -0.5715  0.6668 -0.7797
  113MOL   H26043044   7.174   5.773   6.552  1.1118  3.6928  1.1431
  113MOL   H26143045   7.299   5.764   6.665 -0.5923  2.5286 -1.1624
  113MOL   H26243046   7.013   5.706   6.697 -1.0061  0.7616  3.2413
  113MOL   H26343047   7.133   5.728   6.813 -0.0578  2.0903 -1.1852
  113MOL   H26443048   7.024   5.470   6.763 -0.0504  0.6454 -1.3470
  113MOL   H26543049   7.173   5.509   6.844 -0.2159  1.2471 -0.1873
  113MOL   H26643050   7.218   5.140   6.757 -0.6723 -0.4620 -0.6144
  113MOL   H26743051   7.087   5.255   6.738 -0.4230  1.2766 -1.5062
  113MOL   C26843052   7.125   5.132   6.562  0.7612  0.2000 -0.1600
  113MOL   C26943053   7.016   5.031   6.591  0.2378 -0.3281  0.2645
  113MOL   C27043054   6.889   5.099   6.641  0.8892 -0.1621 -0.2771
  113MOL   C27143055   6.819   4.979   6.715 -0.2591  0.0041 -0.2831
  113MOL   C27243056   6.913   4.855   6.708 -0.1858 -0.0331 -0.0084
  113MOL   C27343057   7.047   4.921   6.692  0.4911 -0.0392 -0.1702
  113MOL   C27443058   7.244   5.060   6.483 -0.3898 -0.2696  0.3701
  113MOL   H27543059   7.078   5.209   6.501  2.1262 -0.3221 -1.9126
  113MOL   H27643060   6.986   4.967   6.508  0.0073 -0.9567  0.8299
  113MOL   H27743061   6.895   5.178   6.716 -1.3465  0.0966 -0.3225
  113MOL   H27843062   6.821   5.130   6.562 -2.2134  0.0231  2.3434
  113MOL   H27943063   6.800   5.002   6.820 -1.2324  1.0714 -0.6843
  113MOL   H28043064   6.721   4.952   6.677 -0.6750  0.0429  0.7581
  113MOL   H28143065   6.880   4.787   6.630  1.3900 -2.4785  1.3758
  113MOL   H28243066   6.912   4.784   6.791  0.5979 -0.5926 -0.4699
  113MOL   H28343067   7.120   4.847   6.659  0.8610  0.2220  0.0650
  113MOL   H28443068   7.075   4.963   6.788 -0.1098  1.3305 -0.5665
  113MOL   H28543069   7.299   4.996   6.551  1.5782  1.7960  0.7888
  113MOL   H28643070   7.328   5.127   6.463  1.5288 -2.3806  1.2000
  113MOL   C28743071   7.222   4.987   6.345 -0.6374  0.2241  0.1687
  113MOL   C28843072   7.213   5.085   6.226  0.1898  0.7967 -0.2817
  113MOL   C28943073   7.164   5.012   6.097 -0.0376  0.2183 -0.2291
  113MOL   C29043074   7.073   5.121   6.028 -0.4877 -0.3707  0.5124
  113MOL   C29143075   7.096   5.257   6.105 -0.0501 -0.1057  0.5632
  113MOL   C29243076   7.126   5.209   6.249  0.4527 -0.0394  1.0667
  113MOL   C29343077   7.325   4.871   6.338 -0.8667  0.0685  0.1865
  113MOL   H29443078   7.122   4.944   6.356 -0.5383 -0.6290 -1.9371
  113MOL   H29543079   7.313   5.125   6.211 -0.3442  2.5584  0.7544
  113MOL   H29643080   7.246   4.976   6.035 -1.9893 -0.5222 -2.4649
  113MOL   H29743081   7.102   4.928   6.127 -0.2615  0.2698 -0.5450
  113MOL   H29843082   7.101   5.134   5.923 -1.0475  1.4020  0.5579
  113MOL   H29943083   6.969   5.091   6.036 -0.6953  0.1848 -0.1179
  113MOL   H30043084   6.996   5.299   6.107 -0.1942 -0.3806 -0.6726
  113MOL   H30143085   7.171   5.322   6.059  1.8937 -3.1878 -0.7699
  113MOL   H30243086   7.032   5.171   6.289  0.7031 -0.5495  1.1715
  113MOL   H30343087   7.168   5.284   6.315  1.6915  1.1714 -1.0341
  113MOL   H30443088   7.297   4.793   6.267  0.9766 -0.1948 -0.2923
  113MOL   H30543089   7.317   4.807   6.426  0.0833 -1.3101 -0.7098
  113MOL   C30643090   7.479   4.911   6.332 -0.1101  0.9910 -0.9030
  113MOL   C30743091   7.575   4.840   6.429  0.4470  0.0548 -0.4537
  113MOL   C30843092   7.544   4.865   6.578  0.3456  0.3033  0.3330
  113MOL   C30943093   7.636   4.762   6.651 -0.6779 -0.4764 -0.2420
  113MOL   C31043094   7.643   4.642   6.556  0.4045 -0.2647 -0.1237
  113MOL   C31143095   7.588   4.682   6.420  0.5663 -0.0171 -0.4340
  113MOL   C31243096   7.543   4.910   6.189 -0.3098 -0.2022  0.3576
  113MOL   H31343097   7.480   5.018   6.352  1.6209  0.9367 -0.5966
  113MOL   H31443098   7.676   4.880   6.434  0.5462 -0.4048  1.6643
  113MOL   H31543099   7.443   4.843   6.614  0.7601  0.1921  1.4508
  113MOL   H31643100   7.565   4.964   6.616  0.5627 -0.5844  2.5989
  113MOL   H31743101   0.046   4.802   6.671 -0.4118 -2.0573  1.7151
  113MOL   H31843102   7.588   4.737   6.746  0.4644  1.1162  0.7743
  113MOL   H31943103   7.592   4.552   6.588  1.8748 -1.2829 -0.6177
  113MOL   H32043104   0.056   4.607   6.547  0.9332  1.2250 -0.0524
  113MOL   H32143105   7.655   4.648   6.341  0.6034 -1.0876  0.0590
  113MOL   H32243106   7.490   4.636   6.406  0.4722  0.1273 -0.2486
  113MOL   H32343107   7.468   4.863   6.126  0.0416  0.5113 -0.6069
  113MOL   H32443108   7.620   4.834   6.187 -1.2967 -1.1899 -2.5697
  113MOL   C32543109   7.609   5.034   6.127 -0.2229  0.0334  0.2798
  113MOL   C32643110   7.628   5.017   5.967 -0.1595 -0.5877 -0.0104
  113MOL   C32743111   7.512   4.964   5.880 -0.2873  0.0737  0.0356
  113MOL   C32843112   7.585   4.941   5.748  0.5426 -0.1908 -0.2943
  113MOL   C32943113   0.026   4.879   5.796  0.0558 -0.0160  0.6540
  113MOL   C33043114   0.065   4.945   5.929 -0.2077  0.3287 -0.3690
  113MOL   C33143115   0.038   5.085   6.205  0.2104  0.2342 -0.3399
  113MOL   H33243116   7.548   5.124   6.139 -0.0245  0.1304  0.5534
  113MOL   H33343117   7.648   5.119   5.935  1.7121 -0.8609  0.1881
  113MOL   H33443118   7.428   5.034   5.879  0.4025  0.9061 -0.1360
  113MOL   H33543119   7.480   4.866   5.914 -1.2643 -0.5126 -2.4194
  113MOL   H33643120   7.614   5.034   5.698  0.9757 -0.6400 -0.8865
  113MOL   H33743121   7.528   4.881   5.678 -0.9342 -1.4735  1.9362
  113MOL   H33843122   0.103   4.880   5.719 -1.6828  2.7339 -1.1531
  113MOL   H33943123   0.003   4.773   5.810 -2.2537  0.3425 -0.2278
  113MOL   H34043124   0.149   5.012   5.912 -0.0345 -0.1578 -1.5249
  113MOL   H34143125   0.086   4.881   6.015 -0.3083 -0.1556 -0.6991
  113MOL   H34243126   0.101   4.996   6.215 -1.5998 -1.1299 -0.7708
  113MOL   H34343127   0.015   5.101   6.310  2.0717 -0.2639  0.1680
  113MOL   C34443128   0.119   5.207   6.143 -0.2149  0.1040  0.0385
  113MOL   C34543129   0.255   5.229   6.217  0.7193  0.5612 -0.2254
  113MOL   C34643130   0.346   5.330   6.151 -0.1811  0.2434  0.7915
  113MOL   C34743131   0.487   5.280   6.162 -0.4895  0.0699  0.3576
  113MOL   C34843132   0.489   5.163   6.266 -0.2073  0.2036 -0.2410
  113MOL   C34943133   0.345   5.101   6.236 -0.5763 -0.1680 -0.1218
  113MOL   C35043134   0.037   5.337   6.115 -0.0600  0.4382 -0.0125
  113MOL   H35143135   0.160   5.170   6.049  0.0854 -1.8892  0.9071
  113MOL   H35243136   0.235   5.268   6.317 -0.2686 -0.8642  0.1433
  113MOL   H35343137   0.329   5.433   6.184  0.2120  0.0915  1.4732
  113MOL   H35443138   0.320   5.335   6.045  2.3907  0.7626  0.1673
  113MOL   H35543139   0.510   5.244   6.062 -2.1664  0.4312 -0.1808
  113MOL   H35643140   0.555   5.360   6.191 -0.5058  0.1854  0.0798
  113MOL   H35743141   0.501   5.203   6.366 -2.1407 -1.4483  0.6962
  113MOL   H35843142   0.572   5.096   6.243 -1.0694 -0.7740 -0.6004
  113MOL   H35943143   0.345   5.052   6.139  1.1186  1.8534 -1.1907
  113MOL   H36043144   0.310   5.050   6.326  0.0087  0.9733  0.7581
  113MOL   H36143145   7.645   5.302   6.050  1.0933 -0.1569 -1.1664
  113MOL   H36243146   0.092   5.394   6.041 -2.0004  0.0053 -1.8536
  113MOL   C36343147   7.670   5.421   6.236  0.0551 -0.6942 -0.7540
  113MOL   C36443148   0.021   5.568   6.224 -0.1367 -0.7973 -0.5703
  113MOL   C36543149   7.684   5.652   6.350 -0.0843 -0.1131 -0.3048
  113MOL   C36643150   7.573   5.748   6.323  0.1384  0.1148  0.2747
  113MOL   C36743151   7.579   5.776   6.174 -0.3347  0.3461 -0.5283
  113MOL   C36843152   7.637   5.640   6.114  0.4415  0.0286 -0.0475
  113MOL   C36943153   7.522   5.390   6.271 -0.1209 -0.0567  0.7821
  113MOL   H37043154   0.032   5.364   6.314 -0.5532 -0.9637 -0.5436
  113MOL   H37143155   0.129   5.573   6.208 -0.0047  0.7267  0.6474
  113MOL   H37243156   7.651   5.596   6.438  1.1583  2.8024  2.0977
  113MOL   H37343157   0.077   5.718   6.377 -0.5598  1.0220 -1.5831
  113MOL   H37443158   7.480   5.700   6.354 -0.9085  0.7485 -1.8108
  113MOL   H37543159   7.593   5.838   6.380 -1.7738  0.5206  0.3155
  113MOL   H37643160   7.479   5.797   6.138 -0.0143  0.6761 -1.2245
  113MOL   H37743161   7.650   5.858   6.162  0.1857 -0.1686 -0.9881
  113MOL   H37843162   0.017   5.657   6.032  1.0936  2.5829  1.0009
  113MOL   H37943163   7.548   5.587   6.080 -1.4347  1.4129  2.5871
  113MOL   H38043164   7.464   5.380   6.180 -0.9014 -1.8880  1.4420
  113MOL   H38143165   7.480   5.469   6.333  0.5906  2.3164 -1.6816
  113MOL   H38243166   7.529   5.294   6.322 -1.6630 -1.0347 -0.8083
  114MOL     C143167   2.976   5.640   5.584  0.4675 -0.6471 -0.1555
  114MOL     C243168   3.055   5.772   5.595  0.7803 -0.1326  0.0485
  114MOL     C343169   3.163   5.784   5.484 -0.7994 -0.1228 -0.1207
  114MOL     C443170   3.287   5.830   5.553 -0.5834  0.1542 -0.5294
  114MOL     C543171   3.243   5.880   5.694  0.0481  0.2737 -0.1216
  114MOL     C643172   3.119   5.796   5.732 -0.7829 -0.1144 -0.6645
  114MOL     C743173   2.852   5.618   5.687  0.2331  0.2130 -0.6647
  114MOL     H843174   2.929   5.625   5.487 -0.8488 -0.8218  0.5003
  114MOL     H943175   2.979   5.849   5.581  0.2099 -0.7731 -0.3730
  114MOL    H1043176   3.171   5.688   5.433 -1.3253 -1.2523  1.8866
  114MOL    H1143177   3.126   5.851   5.406 -0.5694 -0.8388 -0.8484
  114MOL    H1243178   3.356   5.748   5.572 -0.2540  1.3145  4.0008
  114MOL    H1343179   3.341   5.914   5.510 -0.0160 -0.4677 -1.0264
  114MOL    H1443180   3.319   5.874   5.772 -1.4948 -0.8934  1.3477
  114MOL    H1543181   3.209   5.983   5.697  0.2591  0.3171  1.3034
  114MOL    H1643182   3.058   5.848   5.805 -0.9048 -0.6879 -0.3497
  114MOL    H1743183   3.146   5.698   5.773 -1.0029  1.0356  2.3244
  114MOL    H1843184   2.898   5.641   5.782  2.3250 -0.1653 -1.5562
  114MOL    H1943185   2.770   5.688   5.670 -0.1615  0.9257  3.6779
  114MOL    H2043186   3.049   5.562   5.608  1.4638  0.5211  0.6746
  114MOL    C2143187   2.797   5.480   5.689 -0.5887 -0.1935  0.4107
  114MOL    C2243188   2.718   5.435   5.823  0.0958 -0.1734 -0.0634
  114MOL    C2343189   2.584   5.520   5.856  0.0434  0.7021 -0.1567
  114MOL    C2443190   2.601   5.574   5.997 -0.2573 -0.1836  0.2374
  114MOL    C2543191   2.743   5.544   6.053 -0.4890  0.0509 -0.1300
  114MOL    C2643192   2.799   5.438   5.960  0.1117 -0.0148  0.4356
  114MOL    C2743193   2.704   5.465   5.567 -0.0015 -0.5773 -0.2843
  114MOL    H2843194   2.883   5.413   5.682 -0.7102 -0.4046  0.8948
  114MOL    H2943195   2.678   5.334   5.819 -0.4311 -0.0714  1.9245
  114MOL    H3043196   2.493   5.460   5.845 -0.2841  1.1068  0.2978
  114MOL    H3143197   2.579   5.600   5.782  1.6497  0.4550 -0.5480
  114MOL    H3243198   2.570   5.674   6.026 -1.8213 -0.8166  0.8154
  114MOL    H3343199   2.548   5.512   6.070  2.5616  0.9323  3.3545
  114MOL    H3443200   2.729   5.504   6.153 -0.7238 -0.1996 -0.2641
  114MOL    H3543201   2.805   5.634   6.044 -0.6664  0.1103 -0.7433
  114MOL    H3643202   2.771   5.347   6.013  0.9812 -0.1711  0.6221
  114MOL    H3743203   2.907   5.440   5.946  0.4069  2.6001  2.6712
  114MOL    H3843204   2.613   5.521   5.591  0.0275 -1.1739  1.2405
  114MOL    H3943205   2.731   5.522   5.478 -0.1899  1.0485  0.6662
  114MOL    C4043206   2.682   5.317   5.516  0.5527  1.0180  0.4265
  114MOL    C4143207   2.551   5.292   5.440 -0.0469 -0.1630  0.7635
  114MOL    C4243208   2.513   5.378   5.317  0.1702 -0.2227  0.1146
  114MOL    C4343209   2.361   5.377   5.311  0.0906 -0.3485  0.0384
  114MOL    C4443210   2.307   5.311   5.435 -0.1910  0.4438 -0.2339
  114MOL    C4543211   2.428   5.318   5.528  0.2725  0.0573 -0.4205
  114MOL    C4643212   2.807   5.268   5.439 -0.2661 -0.1093 -0.1914
  114MOL    H4743213   2.665   5.251   5.602  1.5557  1.8224  1.2608
  114MOL    H4843214   2.543   5.187   5.410 -0.9491 -0.0739  0.6854
  114MOL    H4943215   2.563   5.346   5.225 -0.4574 -0.2113 -0.2350
  114MOL    H5043216   2.554   5.478   5.327  2.2199 -0.9396 -0.7252
  114MOL    H5143217   2.323   5.333   5.219  1.8668  2.0236 -1.9004
  114MOL    H5243218   2.317   5.477   5.300 -0.0867 -0.6898 -2.5735
  114MOL    H5343219   2.219   5.364   5.471 -0.3900 -1.1930  1.7793
  114MOL    H5443220   2.273   5.208   5.425  1.7505 -0.2205 -0.1967
  114MOL    H5543221   2.429   5.407   5.591 -3.1648  0.7022 -1.1724
  114MOL    H5643222   2.414   5.232   5.594  1.1960  0.8716  0.8501
  114MOL    H5743223   2.809   5.307   5.337  1.0886  1.1470  0.3033
  114MOL    H5843224   2.895   5.321   5.474 -0.3891 -0.0147 -0.0226
  114MOL    C5943225   2.832   5.112   5.454  0.5325  0.1661 -0.3482
  114MOL    C6043226   2.931   5.067   5.341  0.1799  0.0099 -0.0274
  114MOL    C6143227   2.866   5.079   5.202  0.3262  0.2668  0.3046
  114MOL    C6243228   2.952   4.981   5.113  0.2954 -0.5089 -0.6733
  114MOL    C6343229   3.046   4.901   5.211  0.6121  0.0391 -0.0233
  114MOL    C6443230   2.984   4.929   5.347 -0.0152 -0.5590 -0.0679
  114MOL    C6543231   2.895   5.087   5.592  0.1899 -0.3599 -0.4330
  114MOL    H6643232   2.741   5.053   5.444  0.4249  0.3413 -0.4022
  114MOL    H6743233   3.014   5.137   5.333 -0.0727  0.3761  0.5430
  114MOL    H6843234   2.859   5.182   5.169  2.3689  0.4161  0.2620
  114MOL    H6943235   2.766   5.036   5.201 -0.4482  2.0193 -0.2541
  114MOL    H7043236   3.007   5.042   5.041  0.2244 -1.3324 -1.4285
  114MOL    H7143237   2.890   4.908   5.061 -0.3364 -0.6169  0.2235
  114MOL    H7243238   3.140   4.955   5.207  0.6038 -0.0082 -0.9522
  114MOL    H7343239   3.083   4.800   5.194  2.8455  0.6981  0.6865
  114MOL    H7443240   2.904   4.861   5.375 -0.0924 -1.2774 -1.9706
  114MOL    H7543241   3.053   4.918   5.432  0.1113  0.4410 -0.0312
  114MOL    H7643242   2.859   5.165   5.659 -0.6324 -1.1773  0.0971
  114MOL    H7743243   3.001   5.105   5.575  0.4986 -2.4901 -0.9016
  114MOL    C7843244   2.861   4.960   5.672  0.1226  0.3712  0.1400
  114MOL    C7943245   2.966   4.925   5.783  0.1644  0.8486 -0.2924
  114MOL    C8043246   3.001   5.042   5.890  0.0896 -0.6381  0.4413
  114MOL    C8143247   3.124   4.993   5.966 -0.3211  0.3037  0.4910
  114MOL    C8243248   3.204   4.933   5.849 -0.0149 -0.2053 -0.4136
  114MOL    C8343249   3.107   4.893   5.733  0.4594  0.1464 -0.6480
  114MOL    C8443250   2.717   4.952   5.733  0.1438 -0.6798 -0.7537
  114MOL    H8543251   2.869   4.876   5.602  1.1123  0.6591 -0.1024
  114MOL    H8643252   2.930   4.837   5.837 -0.7893  1.2731 -0.2282
  114MOL    H8743253   2.923   5.062   5.964  1.8296  0.8091  1.9392
  114MOL    H8843254   3.022   5.134   5.836 -0.3603 -0.3215  0.8017
  114MOL    H8943255   3.101   4.920   6.043  1.0814  1.2197  1.8060
  114MOL    H9043256   3.166   5.081   6.015  1.8123  0.7514 -1.9752
  114MOL    H9143257   3.279   5.005   5.816  2.5583 -2.6722 -0.1891
  114MOL    H9243258   3.263   4.847   5.880  1.4420  1.0380  0.3494
  114MOL    H9343259   3.141   4.947   5.645  1.2731 -0.1535 -0.5234
  114MOL    H9443260   3.117   4.785   5.721  0.3864 -0.0902  1.2872
  114MOL    H9543261   2.648   5.016   5.678  0.9745  1.4327  0.5955
  114MOL    H9643262   2.721   5.007   5.827 -1.5932 -1.9692  0.0866
  114MOL    C9743263   2.663   4.802   5.760 -0.1268  0.0263  0.0614
  114MOL    C9843264   2.630   4.720   5.635 -0.5579 -0.0014 -0.5210
  114MOL    C9943265   2.625   4.569   5.642  0.1491  0.3362  0.1082
  114MOL   C10043266   2.483   4.523   5.604  0.5864 -0.7890  0.5325
  114MOL   C10143267   2.400   4.650   5.594 -0.0265 -0.7830  0.2857
  114MOL   C10243268   2.500   4.764   5.572 -0.4957 -0.5508  0.5154
  114MOL   C10343269   2.545   4.800   5.860  0.4143 -0.1212 -0.7989
  114MOL   H10443270   2.737   4.731   5.797  0.9162  0.9894 -0.1542
  114MOL   H10543271   2.705   4.751   5.563  0.6564  0.1691  0.8051
  114MOL   H10643272   2.693   4.527   5.568  1.9059  2.0486  0.7150
  114MOL   H10743273   2.659   4.524   5.735  0.2496 -3.1524 -1.5587
  114MOL   H10843274   2.434   4.460   5.678 -0.4600 -0.8498 -0.2090
  114MOL   H10943275   2.486   4.474   5.507  1.7629 -1.6702  1.0087
  114MOL   H11043276   2.346   4.656   5.689 -0.5352 -0.9218  0.0060
  114MOL   H11143277   2.323   4.644   5.517 -0.9735  0.8593  1.0875
  114MOL   H11243278   2.514   4.779   5.465 -1.6600  0.2300  0.4574
  114MOL   H11343279   2.475   4.860   5.617 -2.6019 -0.8111 -0.0211
  114MOL   H11443280   2.467   4.869   5.827 -1.2038 -1.3352  0.4267
  114MOL   H11543281   2.505   4.699   5.861  0.6849 -0.2362  2.8137
  114MOL   C11643282   2.573   4.829   6.005  0.1075 -0.2440  0.5032
  114MOL   C11743283   2.430   4.838   6.081 -0.0874  0.1122 -0.1972
  114MOL   C11843284   2.389   4.983   6.086 -0.3417  0.0515  0.3419
  114MOL   C11943285   2.238   4.985   6.111  0.8045  0.1201 -0.4499
  114MOL   C12043286   2.190   4.843   6.093  0.3082 -0.0955  0.3095
  114MOL   C12143287   2.303   4.768   6.029 -0.2731  0.2319 -0.1523
  114MOL   C12243288   2.667   4.720   6.067  0.4219  0.3207  0.4674
  114MOL   H12343289   2.616   4.929   6.014 -0.6865  0.2755 -1.2166
  114MOL   H12443290   2.441   4.809   6.186 -0.0239  3.6274  0.8384
  114MOL   H12543291   2.443   5.033   6.167  0.0747 -0.3003  0.2810
  114MOL   H12643292   2.395   5.040   5.993 -1.4196  1.8101  1.3239
  114MOL   H12743293   2.172   5.046   6.049  0.1380 -0.2025 -0.0627
  114MOL   H12843294   2.212   5.025   6.209 -0.6428  0.9294 -1.1583
  114MOL   H12943295   2.090   4.835   6.050 -0.4646 -1.4588  2.2394
  114MOL   H13043296   2.192   4.794   6.191 -0.2532 -0.6559  0.0447
  114MOL   H13143297   2.295   4.661   6.048 -1.6707  0.2872 -0.3270
  114MOL   H13243298   2.282   4.775   5.922 -0.1644 -0.8863 -0.2557
  114MOL   H13343299   2.690   4.650   5.987 -0.0663 -1.1575  1.5876
  114MOL   H13443300   2.605   4.666   6.138 -1.2879  0.8933 -0.5684
  114MOL   C13543301   2.801   4.763   6.135  0.3527 -0.1045 -0.6519
  114MOL   C13643302   2.909   4.648   6.160 -0.2251 -0.3163  0.6507
  114MOL   C13743303   2.996   4.608   6.034  0.1028  0.6238 -0.3363
  114MOL   C13843304   3.055   4.476   6.061  0.0312 -0.1714 -0.2585
  114MOL   C13943305   2.942   4.404   6.122  0.0281  0.2617 -0.6753
  114MOL   C14043306   2.862   4.500   6.213  0.3576 -0.2424  0.1536
  114MOL   C14143307   2.759   4.840   6.270 -0.0277 -0.1006 -0.3309
  114MOL   H14243308   2.846   4.840   6.071 -1.5742  0.6689 -1.1257
  114MOL   H14343309   2.982   4.690   6.229 -0.1439  0.9507 -0.1932
  114MOL   H14443310   2.937   4.610   5.943 -0.9268  0.0489  0.3044
  114MOL   H14543311   3.078   4.678   6.017 -0.0088  1.1330  1.1220
  114MOL   H14643312   3.135   4.485   6.134 -1.9268  0.6170  1.8221
  114MOL   H14743313   3.087   4.430   5.967 -0.8660  1.9275 -1.6150
  114MOL   H14843314   2.971   4.308   6.164 -0.9983  0.3110  0.1674
  114MOL   H14943315   2.884   4.369   6.036 -0.1149 -2.6008  0.5397
  114MOL   H15043316   2.755   4.487   6.196  0.1309  2.1286 -0.4606
  114MOL   H15143317   2.901   4.487   6.314  1.5615  0.4111 -0.2168
  114MOL   H15243318   2.693   4.765   6.312 -1.0730  0.0566 -1.6715
  114MOL   H15343319   2.695   4.925   6.245 -1.7820 -1.4286 -0.4029
  114MOL   C15443320   2.868   4.884   6.378  0.1593  0.4745 -0.7418
  114MOL   C15543321   2.951   5.008   6.340 -0.5989 -1.0382  0.2948
  114MOL   C15643322   3.089   5.012   6.407 -0.1227  0.0763 -0.0854
  114MOL   C15743323   3.143   5.156   6.398 -0.4961 -0.0409 -0.3070
  114MOL   C15843324   3.023   5.249   6.366  0.0418  0.5221  0.6508
  114MOL   C15943325   2.902   5.152   6.348 -0.7589 -0.1234 -0.1735
  114MOL   C16043326   2.775   4.921   6.502  0.2889  0.4697  0.9148
  114MOL   H16143327   2.933   4.803   6.410 -0.5974 -0.5034 -1.6242
  114MOL   H16243328   2.972   4.992   6.234  0.9431  0.7279  0.3005
  114MOL   H16343329   3.079   4.977   6.509 -0.1190 -0.2415 -0.1936
  114MOL   H16443330   3.158   4.936   6.371 -0.2073  0.0481 -0.1894
  114MOL   H16543331   3.208   5.180   6.483 -0.6531  4.2422 -1.2660
  114MOL   H16643332   3.214   5.168   6.315  1.9435  0.8879  1.8283
  114MOL   H16743333   3.040   5.303   6.273 -0.3723  2.3557  1.6222
  114MOL   H16843334   2.999   5.326   6.438 -1.3340 -0.2447  1.0314
  114MOL   H16943335   2.857   5.174   6.251  0.8522  1.5904 -0.5763
  114MOL   H17043336   2.822   5.170   6.420 -0.8386  0.7879 -0.4714
  114MOL   H17143337   2.706   4.999   6.472  0.0803  0.3223  1.0113
  114MOL   H17243338   2.840   4.979   6.568 -1.1864  2.9906  0.2066
  114MOL   C17343339   2.704   4.811   6.580  0.4677  0.2821 -0.1321
  114MOL   C17443340   2.590   4.873   6.670  0.4598  0.4047  0.0271
  114MOL   C17543341   2.470   4.925   6.598 -0.2278 -0.5684 -0.1159
  114MOL   C17643342   2.396   5.000   6.716  0.0872 -0.2727 -0.2995
  114MOL   C17743343   2.504   5.051   6.813  0.1306  0.0966  0.5164
  114MOL   C17843344   2.634   4.987   6.760  0.0870  0.1666  0.0103
  114MOL   C17943345   2.806   4.732   6.665 -0.7414  0.3344  0.5494
  114MOL   H18043346   2.650   4.757   6.502 -1.9863  3.9293 -1.1134
  114MOL   H18143347   2.555   4.794   6.738  0.0876  0.2027 -0.3981
  114MOL   H18243348   2.407   4.854   6.544 -1.6551  1.1053 -0.7153
  114MOL   H18343349   2.491   5.004   6.525  1.1346 -1.3915 -0.6457
  114MOL   H18443350   2.337   5.079   6.669  1.0273  2.8281  3.5046
  114MOL   H18543351   2.327   4.940   6.776  0.7399  1.5108  2.3021
  114MOL   H18643352   2.490   5.016   6.915 -0.5456  1.1533  0.7949
  114MOL   H18743353   2.506   5.160   6.812  0.8683  0.0857 -0.8731
  114MOL   H18843354   2.686   5.063   6.701  0.3974  0.8692  1.1741
  114MOL   H18943355   2.711   4.970   6.836 -0.9901  0.3565  1.1480
  114MOL   H19043356   2.906   4.718   6.623 -1.1186  1.3070 -0.7044
  114MOL   H19143357   2.825   4.788   6.757 -4.1170  1.1488  0.8222
  114MOL   C19243358   2.748   4.588   6.704  0.1180 -0.1480  0.2071
  114MOL   C19343359   2.853   4.520   6.792 -0.0480 -0.6864  0.0648
  114MOL   C19443360   2.816   4.379   6.838 -0.1353 -0.0910 -0.3200
  114MOL   C19543361   2.899   4.344   6.958 -0.5314 -0.1482 -0.2534
  114MOL   C19643362   2.962   4.477   7.012  0.3479 -0.7036  0.0370
  114MOL   C19743363   2.891   4.586   6.927 -0.6352 -0.2582  0.1699
  114MOL   C19843364   2.730   4.500   6.572  0.0047 -0.4831 -0.2978
  114MOL   H19943365   2.659   4.592   6.767 -0.3952  0.1339 -0.5216
  114MOL   H20043366   2.947   4.498   6.740  0.5998  1.3905  0.2852
  114MOL   H20143367   2.839   4.315   6.753  0.4124  2.3053 -2.0584
  114MOL   H20243368   2.709   4.382   6.857 -0.3083  2.0779 -1.4004
  114MOL   H20343369   2.831   4.286   7.021  0.3094  0.0459  0.8544
  114MOL   H20443370   2.982   4.278   6.934 -0.8827 -0.6919 -0.0080
  114MOL   H20543371   3.068   4.468   6.990  0.5790 -1.0258  1.2925
  114MOL   H20643372   2.943   4.480   7.119  1.7026 -3.6168  0.4241
  114MOL   H20743373   2.943   4.681   6.920 -0.7028 -0.0402  2.3457
  114MOL   H20843374   2.798   4.620   6.971 -0.3136  0.2496  0.4601
  114MOL   H20943375   2.730   4.566   6.485  0.4989  0.3913  0.3627
  114MOL   H21043376   2.808   4.425   6.557  0.1179 -0.5966  0.8419
  114MOL   C21143377   2.592   4.431   6.564  0.0177 -1.0304 -0.4743
  114MOL   C21243378   2.474   4.538   6.550 -0.3504 -0.4191  0.9380
  114MOL   C21343379   2.449   4.576   6.398 -0.1857  0.6044  0.1155
  114MOL   C21443380   2.303   4.608   6.387 -0.0260 -0.5361  0.8127
  114MOL   C21543381   2.252   4.591   6.529 -0.2727 -0.0013  0.2667
  114MOL   C21643382   2.345   4.496   6.605  0.0656  0.0679  0.6624
  114MOL   C21743383   2.582   4.311   6.468 -0.0996 -0.8954  0.4328
  114MOL   H21843384   2.575   4.390   6.664 -3.3883  0.0015 -0.5824
  114MOL   H21943385   2.497   4.628   6.607  1.9931  0.0718 -0.7106
  114MOL   H22043386   2.496   4.669   6.365  0.7009 -0.5560 -1.9609
  114MOL   H22143387   2.471   4.505   6.319 -2.2791 -2.1996  1.9772
  114MOL   H22243388   2.275   4.707   6.351  0.7126 -1.2492 -1.7727
  114MOL   H22343389   2.246   4.532   6.335  0.3301  0.4374 -1.0280
  114MOL   H22443390   2.150   4.551   6.532 -0.3791  0.3970  2.2169
  114MOL   H22543391   2.240   4.689   6.575 -2.0852 -0.4325  0.7655
  114MOL   H22643392   2.330   4.494   6.713  1.0727  3.2797  0.9117
  114MOL   H22743393   2.329   4.395   6.568 -0.3241  0.0051  0.9929
  114MOL   H22843394   2.641   4.323   6.377  0.0234  2.2917  0.8852
  114MOL   H22943395   2.477   4.303   6.438 -0.0975  1.5651 -0.3133
  114MOL   C23043396   2.622   4.176   6.528  0.0639  0.3329  0.2024
  114MOL   C23143397   2.771   4.142   6.521 -0.4122 -0.2524 -0.5631
  114MOL   C23243398   2.815   4.014   6.597 -0.3444  0.5034 -0.6007
  114MOL   C23343399   2.960   3.999   6.549 -0.0317 -1.2984  0.7726
  114MOL   C23443400   2.960   4.030   6.398  0.1621  0.7114  0.0413
  114MOL   C23543401   2.837   4.127   6.376 -0.0343 -0.4967 -0.4115
  114MOL   C23643402   2.531   4.063   6.478  0.7971 -0.2928 -0.3915
  114MOL   H23743403   2.602   4.179   6.635 -1.3642 -1.0093 -0.0001
  114MOL   H23843404   2.828   4.220   6.572 -0.0185  0.1617 -1.6292
  114MOL   H23943405   2.805   4.017   6.705 -0.5954 -0.8098 -0.5760
  114MOL   H24043406   2.766   3.922   6.566  2.1940 -1.1654  0.1502
  114MOL   H24143407   3.020   4.073   6.602 -0.5581 -2.0742  2.5232
  114MOL   H24243408   3.015   3.908   6.577  0.1653 -1.7250 -0.9259
  114MOL   H24343409   2.934   3.942   6.339 -2.2042  0.8635  0.7718
  114MOL   H24443410   3.052   4.070   6.356 -0.1134  1.4146  0.0956
  114MOL   H24543411   2.763   4.085   6.308 -1.8738 -0.1530  1.2991
  114MOL   H24643412   2.859   4.227   6.340 -0.9933 -0.2222 -0.2562
  114MOL   H24743413   2.588   3.973   6.459  1.7478  0.1827  0.1889
  114MOL   H24843414   2.502   4.084   6.375  0.1169 -1.2908 -0.4095
  114MOL   C24943415   2.402   4.031   6.562  0.7443  0.1709 -0.2660
  114MOL   C25043416   2.430   3.930   6.675  0.2663 -0.0091  0.6007
  114MOL   C25143417   2.461   3.789   6.640 -0.3833  0.7767 -0.2609
  114MOL   C25243418   2.342   3.696   6.663 -0.5763  0.2729 -0.2536
  114MOL   C25343419   2.263   3.764   6.772  0.0858 -0.4798 -0.2276
  114MOL   C25443420   2.314   3.907   6.781  0.1648  0.4516 -0.0460
  114MOL   C25543421   2.283   3.990   6.464  0.0792 -0.2927 -0.0191
  114MOL   H25643422   2.374   4.124   6.611  1.0916 -0.0525  0.3654
  114MOL   H25743423   2.517   3.969   6.727  0.9987  1.2793 -1.5099
  114MOL   H25843424   2.537   3.755   6.709 -1.6787 -2.0322 -0.1444
  114MOL   H25943425   2.509   3.794   6.542  0.6188  3.4949  0.3197
  114MOL   H26043426   2.378   3.599   6.697 -1.1962  0.0664 -0.1795
  114MOL   H26143427   2.279   3.678   6.575 -1.4319 -1.0186  0.6182
  114MOL   H26243428   2.275   3.712   6.867 -1.6484 -0.0729  0.2260
  114MOL   H26343429   2.157   3.765   6.745  0.3011 -1.3889 -1.1482
  114MOL   H26443430   2.338   3.931   6.885  1.3375 -0.4536 -0.0987
  114MOL   H26543431   2.245   3.990   6.762 -0.3217  0.2570  0.8818
  114MOL   H26643432   2.324   3.951   6.371 -0.8986  1.2541 -1.1364
  114MOL   H26743433   2.210   3.913   6.490  1.2791 -2.3876 -2.6014
  114MOL   C26843434   2.197   4.107   6.418  0.5540 -0.2025 -0.1920
  114MOL   C26943435   2.090   4.152   6.530 -0.0991  0.0094  0.7178
  114MOL   C27043436   1.998   4.041   6.581 -0.7161  0.1199  0.3622
  114MOL   C27143437   1.871   4.105   6.633 -0.3923 -0.1584 -0.2941
  114MOL   C27243438   1.852   4.208   6.528  0.1913  0.1865  0.0242
  114MOL   C27343439   1.995   4.263   6.493  0.8721  0.5374  0.0128
  114MOL   C27443440   2.133   4.086   6.277 -0.2944  0.1355 -0.1920
  114MOL   H27543441   2.265   4.191   6.406 -1.2548  1.8473  3.2090
  114MOL   H27643442   2.146   4.176   6.621 -0.1119 -0.2577  0.7958
  114MOL   H27743443   1.965   3.964   6.510 -0.5098 -0.1437  0.5548
  114MOL   H27843444   2.044   3.985   6.662  2.0780 -1.6146 -2.2783
  114MOL   H27943445   1.783   4.044   6.652 -0.1766  0.2943  2.4318
  114MOL   H28043446   1.890   4.163   6.724 -4.1702 -0.2801  0.6400
  114MOL   H28143447   1.796   4.286   6.581  2.5734 -0.3460  3.4728
  114MOL   H28243448   1.799   4.181   6.437 -0.5204  1.6415 -0.0159
  114MOL   H28343449   2.014   4.338   6.570 -0.7122  1.9761 -0.9678
  114MOL   H28443450   1.990   4.309   6.394 -0.9745 -0.2432 -0.2784
  114MOL   H28543451   2.025   4.089   6.291 -0.4548  0.4090 -1.4248
  114MOL   H28643452   2.158   3.982   6.256 -1.0781 -0.6347  2.5328
  114MOL   C28743453   2.166   4.195   6.172 -0.3519 -0.0830  0.4039
  114MOL   C28843454   2.309   4.206   6.134  0.3672  0.3117  0.4527
  114MOL   C28943455   2.366   4.077   6.060  0.0815 -0.1763  0.3261
  114MOL   C29043456   2.435   4.119   5.934 -0.0945  0.0809 -0.3154
  114MOL   C29143457   2.455   4.268   5.942  0.6429 -0.4848  0.0299
  114MOL   C29243458   2.354   4.325   6.041  0.2431 -0.0316  0.6429
  114MOL   C29343459   2.071   4.178   6.049  0.3737 -0.3614  0.5184
  114MOL   H29443460   2.146   4.288   6.225 -1.5965  0.8345 -1.6409
  114MOL   H29543461   2.370   4.214   6.224  1.7960  0.2524 -0.4921
  114MOL   H29643462   2.441   4.032   6.125 -1.3790 -1.4502  1.1501
  114MOL   H29743463   2.285   4.006   6.039  2.0017 -1.9040 -1.4832
  114MOL   H29843464   2.531   4.069   5.924  1.0081  2.0020  0.5504
  114MOL   H29943465   2.377   4.110   5.841 -3.5494 -1.7029  1.8956
  114MOL   H30043466   2.437   4.319   5.847  1.3808 -0.1660  0.0541
  114MOL   H30143467   2.555   4.291   5.979  1.3527 -1.2021 -1.3585
  114MOL   H30243468   2.273   4.364   5.981 -0.2332 -0.6841  0.8531
  114MOL   H30343469   2.392   4.397   6.113  2.0900 -0.3335 -0.0068
  114MOL   H30443470   2.061   4.072   6.025  1.4975 -0.4087  0.1933
  114MOL   H30543471   2.117   4.219   5.959 -0.0871  0.4342  0.6414
  114MOL   C30643472   1.931   4.241   6.053  0.8324 -0.1615  0.1019
  114MOL   C30743473   1.949   4.388   6.024  0.4410  0.0129 -0.7989
  114MOL   C30843474   1.966   4.424   5.870  0.8012  0.8624  0.2079
  114MOL   C30943475   1.948   4.574   5.856  0.0627  0.4762  0.0135
  114MOL   C31043476   1.846   4.610   5.966 -0.1311  0.3298  0.6117
  114MOL   C31143477   1.832   4.482   6.054  0.0501  0.0974  0.2303
  114MOL   C31243478   1.843   4.158   5.960 -0.8619 -0.6600 -0.4679
  114MOL   H31343479   1.896   4.240   6.156 -1.8549 -0.2756 -0.7944
  114MOL   H31443480   2.035   4.424   6.080  0.5665  0.7578 -1.4613
  114MOL   H31543481   1.881   4.378   5.818 -0.2750  1.0142  1.8065
  114MOL   H31643482   2.058   4.399   5.817  0.9044 -2.2061  1.7288
  114MOL   H31743483   2.035   4.637   5.876 -1.1532  2.1760  0.0697
  114MOL   H31843484   1.914   4.612   5.760  0.7223 -3.4718 -1.8740
  114MOL   H31943485   1.744   4.617   5.928  0.2976 -1.9899 -1.0805
  114MOL   H32043486   1.863   4.695   6.032 -1.0621  0.8252  0.2221
  114MOL   H32143487   1.823   4.512   6.159 -0.4300 -0.2280  0.2823
  114MOL   H32243488   1.736   4.432   6.038  1.5325 -2.5065 -0.7851
  114MOL   H32343489   1.900   4.131   5.870 -0.8067 -0.7873 -0.3955
  114MOL   H32443490   1.755   4.215   5.931 -0.1827  0.0050 -1.2693
  114MOL   C32543491   1.801   4.018   6.015 -0.0868 -0.6946 -0.2687
  114MOL   C32643492   1.740   3.937   5.893 -0.2509 -0.5259 -0.5940
  114MOL   C32743493   1.835   3.918   5.774 -0.0609 -0.4172 -0.0658
  114MOL   C32843494   1.765   3.992   5.661 -0.2960  0.0205  0.7533
  114MOL   C32943495   1.614   3.987   5.687  0.7720 -0.7182  0.4105
  114MOL   C33043496   1.605   3.992   5.844  0.6071  0.3988  0.4748
  114MOL   C33143497   1.700   4.031   6.132  0.6020  0.2581  0.3668
  114MOL   H33243498   1.887   3.959   6.047  0.1948 -0.5998 -0.8421
  114MOL   H33343499   1.729   3.836   5.934 -1.5673 -0.5198 -0.9246
  114MOL   H33443500   1.829   3.812   5.748  0.3632 -0.6435  0.7483
  114MOL   H33543501   1.941   3.933   5.793 -0.0770  1.8210 -1.5610
  114MOL   H33643502   1.799   3.943   5.569 -1.2181  2.0297 -0.7002
  114MOL   H33743503   1.799   4.095   5.656 -0.2792 -0.0602 -1.0937
  114MOL   H33843504   1.577   3.893   5.645  0.8271 -0.1881 -0.8458
  114MOL   H33943505   1.564   4.068   5.634  1.1846 -0.4366  0.4578
  114MOL   H34043506   1.517   3.929   5.862  0.2380 -0.0671 -2.6909
  114MOL   H34143507   1.593   4.097   5.869  1.5525  0.5223  0.4185
  114MOL   H34243508   1.616   4.093   6.101 -0.1408 -1.1026 -0.3964
  114MOL   H34343509   1.731   4.109   6.201  0.4625 -0.1315  0.8769
  114MOL   C34443510   1.665   3.898   6.210  0.3722 -0.0752  0.4261
  114MOL   C34543511   1.558   3.933   6.316 -0.2923 -0.2732 -0.0958
  114MOL   C34643512   1.514   3.824   6.410  0.6394  0.2298 -0.6365
  114MOL   C34743513   1.377   3.857   6.470 -0.6082  0.3930 -0.1304
  114MOL   C34843514   1.319   3.955   6.373 -0.2439 -0.1084 -0.0352
  114MOL   C34943515   1.418   3.976   6.257 -0.3608  0.0145 -0.6097
  114MOL   C35043516   1.800   3.833   6.263  0.3779 -0.2898  0.0809
  114MOL   H35143517   1.615   3.834   6.137 -1.9320  2.1394 -0.0152
  114MOL   H35243518   1.603   4.012   6.377 -0.8853  1.3947 -1.7618
  114MOL   H35343519   1.587   3.800   6.488 -1.0718 -0.2271  0.8833
  114MOL   H35443520   1.506   3.731   6.354 -2.4733  1.7623 -2.8525
  114MOL   H35543521   1.312   3.770   6.475  1.5132 -1.1610  0.7949
  114MOL   H35643522   1.384   3.900   6.570  2.5745 -0.9914  0.2941
  114MOL   H35743523   1.301   4.045   6.431 -0.0089  0.9577 -1.5704
  114MOL   H35843524   1.216   3.932   6.344 -0.0203 -1.5331  0.2540
  114MOL   H35943525   1.390   3.904   6.180  0.4023 -0.6644 -0.2559
  114MOL   H36043526   1.420   4.072   6.206 -1.2647 -0.5233 -1.6991
  114MOL   H36143527   1.802   3.831   6.372 -0.5063 -1.0987  0.0861
  114MOL   H36243528   1.883   3.902   6.248  0.8291 -0.8362  0.0182
  114MOL   C36343529   1.851   3.699   6.196  0.6118 -0.2496 -0.3069
  114MOL   C36443530   2.002   3.675   6.209 -0.3216  0.2684 -0.6947
  114MOL   C36543531   2.046   3.559   6.120  0.7032  0.3229  0.1674
  114MOL   C36643532   2.150   3.482   6.203 -0.6928 -0.2491  0.0828
  114MOL   C36743533   2.178   3.559   6.330 -0.0029 -0.0862 -0.7798
  114MOL   C36843534   2.070   3.663   6.348 -0.1294 -0.8873  0.0288
  114MOL   C36943535   1.769   3.592   6.277  0.4622  0.0644  0.4722
  114MOL   H37043536   1.827   3.702   6.090 -2.2514 -2.0232  0.2420
  114MOL   H37143537   2.055   3.757   6.160  0.1417  0.7036  0.4985
  114MOL   H37243538   1.965   3.489   6.096  0.8374  0.4833 -0.7556
  114MOL   H37343539   2.078   3.593   6.022  0.1999  1.4402  0.3800
  114MOL   H37443540   2.102   3.386   6.223 -0.1286 -0.5813 -0.1424
  114MOL   H37543541   2.241   3.464   6.146 -0.7262 -3.0938  0.8446
  114MOL   H37643542   2.158   3.500   6.420 -0.0087 -1.3834 -1.6162
  114MOL   H37743543   2.273   3.609   6.318 -1.4082  2.8337 -0.1340
  114MOL   H37843544   2.128   3.752   6.375  1.2293 -1.2292 -1.6796
  114MOL   H37943545   2.006   3.627   6.429 -0.8436  0.6092  0.1526
  114MOL   H38043546   1.661   3.609   6.275  0.7526  2.0192  0.2774
  114MOL   H38143547   1.795   3.595   6.383  1.0759 -0.4013  0.3326
  114MOL   H38243548   1.783   3.491   6.240 -0.4603  0.2404 -0.3620
  115MOL     C143549   4.667   2.921   2.699  0.8413  0.2364 -1.0050
  115MOL     C243550   4.609   2.993   2.580 -0.3274  0.3052  0.2515
  115MOL     C343551   4.716   3.066   2.499  0.1970  0.5057 -0.1348
  115MOL     C443552   4.625   3.165   2.424 -0.4493 -1.1297 -0.2435
  115MOL     C543553   4.504   3.209   2.509  0.3483 -0.3036  0.8899
  115MOL     C643554   4.503   3.101   2.619 -0.1259  0.3782  0.1159
  115MOL     C743555   4.577   2.830   2.777 -0.2832  0.5853  0.1842
  115MOL     H843556   4.757   2.868   2.670  0.0368 -1.5821 -0.2630
  115MOL     H943557   4.563   2.925   2.508  2.8971 -1.0574 -0.6142
  115MOL    H1043558   4.789   3.124   2.556 -0.5421  1.2576  0.0539
  115MOL    H1143559   4.761   2.993   2.431 -1.0337  1.5882 -2.1625
  115MOL    H1243560   4.686   3.252   2.398 -1.2064 -1.0001 -1.6804
  115MOL    H1343561   4.595   3.133   2.324  1.7340 -0.6296 -1.0736
  115MOL    H1443562   4.526   3.312   2.539  0.5304 -0.1568  0.2507
  115MOL    H1543563   4.406   3.204   2.461 -0.2962 -0.5443  2.1999
  115MOL    H1643564   4.400   3.063   2.616 -0.0977  0.3066  0.0438
  115MOL    H1743565   4.523   3.139   2.719  0.3949  1.6037 -0.4372
  115MOL    H1843566   4.510   2.893   2.836 -0.2808  0.3632  0.4200
  115MOL    H1943567   4.509   2.780   2.708 -0.8140  1.5075  0.0223
  115MOL    H2043568   4.713   2.995   2.765  2.6839  0.2051 -2.2269
  115MOL    C2143569   4.665   2.744   2.877 -0.1408  0.4493  0.2173
  115MOL    C2243570   4.726   2.835   2.990  0.1607 -0.2975  0.0531
  115MOL    C2343571   4.841   2.786   3.074  0.2248 -0.0326 -0.2695
  115MOL    C2443572   4.826   2.843   3.221  0.1320  0.1444 -0.3606
  115MOL    C2543573   4.706   2.938   3.217 -0.2592 -0.5406 -0.6664
  115MOL    C2643574   4.623   2.902   3.088 -0.7134 -0.4483 -0.7284
  115MOL    C2743575   4.596   2.615   2.937  0.8983  0.4686  0.2521
  115MOL    H2843576   4.752   2.710   2.821  0.8253 -0.6195  2.3142
  115MOL    H2943577   4.762   2.926   2.943 -2.7167  0.8821  0.0012
  115MOL    H3043578   4.938   2.818   3.036  1.5539 -0.9218  2.2236
  115MOL    H3143579   4.844   2.677   3.079 -1.1124 -0.0993 -0.6681
  115MOL    H3243580   4.798   2.768   3.295 -2.7593  0.9011 -0.6389
  115MOL    H3343581   4.909   2.891   3.271 -1.0053  0.7826  0.9448
  115MOL    H3443582   4.752   3.035   3.198 -0.6861 -0.6630 -2.4528
  115MOL    H3543583   4.646   2.942   3.309 -1.0044  1.8793 -1.2109
  115MOL    H3643584   4.572   2.994   3.059 -1.5620 -0.6527  0.1234
  115MOL    H3743585   4.552   2.832   3.130  0.0360 -0.1633  1.0527
  115MOL    H3843586   4.656   2.560   3.009 -1.0420 -1.6041  0.3261
  115MOL    H3943587   4.513   2.645   3.001 -0.8403  0.2024 -1.7999
  115MOL    C4043588   4.539   2.503   2.842  0.1087 -0.5166 -0.5261
  115MOL    C4143589   4.649   2.448   2.745  0.6538 -0.1814 -0.2858
  115MOL    C4243590   4.588   2.372   2.628 -0.4007  0.5710 -0.6837
  115MOL    C4343591   4.670   2.252   2.602 -0.0488  0.7414 -0.3167
  115MOL    C4443592   4.785   2.247   2.704 -0.2393 -0.4067  0.3285
  115MOL    C4543593   4.748   2.348   2.813  0.1872 -0.1458 -0.1773
  115MOL    C4643594   4.452   2.396   2.915 -0.0983  0.2322 -0.3395
  115MOL    H4743595   4.472   2.549   2.769  0.2491  1.7772  0.7195
  115MOL    H4843596   4.709   2.525   2.697  0.2511  1.3828  1.6479
  115MOL    H4943597   4.571   2.441   2.545  1.6515  0.5828 -1.1139
  115MOL    H5043598   4.486   2.342   2.652  0.7735 -0.9266  2.7534
  115MOL    H5143599   4.725   2.250   2.508 -1.0735 -1.0129 -0.9078
  115MOL    H5243600   4.609   2.162   2.610  1.8008 -0.4531  0.6857
  115MOL    H5343601   4.808   2.144   2.731 -2.5445 -0.3393  2.8051
  115MOL    H5443602   4.870   2.290   2.651  0.4123 -0.8174  1.0261
  115MOL    H5543603   4.697   2.299   2.896  0.8794 -1.6038 -0.5878
  115MOL    H5643604   4.838   2.403   2.841  1.0714 -0.2827 -2.5469
  115MOL    H5743605   4.431   2.311   2.850  0.2053  0.7263 -1.0758
  115MOL    H5843606   4.496   2.362   3.009 -0.2915  1.2241  0.1207
  115MOL    C5943607   4.314   2.454   2.946  0.1908 -0.3207 -0.1294
  115MOL    C6043608   4.214   2.429   2.830  0.2426  0.2122 -0.1564
  115MOL    C6143609   4.081   2.516   2.836  0.5859 -0.5362  0.9390
  115MOL    C6243610   3.982   2.446   2.735 -0.0621 -0.3106 -0.2770
  115MOL    C6343611   4.020   2.300   2.737 -0.4253  0.6817 -0.3620
  115MOL    C6443612   4.154   2.284   2.819 -0.8381 -0.5586  0.5735
  115MOL    C6543613   4.256   2.404   3.085  0.3905 -0.0967  0.2874
  115MOL    H6643614   4.320   2.562   2.957  0.1680 -0.1813 -1.4689
  115MOL    H6743615   4.259   2.456   2.734 -0.4524  0.7994 -0.3300
  115MOL    H6843616   4.096   2.621   2.813  0.2358 -0.4827  0.9544
  115MOL    H6943617   4.037   2.508   2.935  2.4664 -0.8692  1.7645
  115MOL    H7043618   3.999   2.483   2.634  0.1807 -0.9746 -0.4854
  115MOL    H7143619   3.880   2.458   2.769 -0.3050 -0.0513 -1.0954
  115MOL    H7243620   4.039   2.248   2.643  0.2604  0.1900  0.0393
  115MOL    H7343621   3.935   2.246   2.779 -0.6014  0.0352 -1.5191
  115MOL    H7443622   4.130   2.242   2.917  2.3440 -0.8236  1.2985
  115MOL    H7543623   4.231   2.222   2.773 -3.1216 -1.7932 -1.6924
  115MOL    H7643624   4.265   2.296   3.083  1.9224  0.0232 -0.1166
  115MOL    H7743625   4.148   2.409   3.101  0.3408  0.0114 -0.0888
  115MOL    C7843626   4.327   2.452   3.212 -0.1157 -0.2030  0.1638
  115MOL    C7943627   4.270   2.581   3.274  0.1522  0.1394  0.3704
  115MOL    C8043628   4.256   2.698   3.179 -0.7859 -0.0374  0.0715
  115MOL    C8143629   4.219   2.809   3.275 -0.7512  0.2768  0.4421
  115MOL    C8243630   4.315   2.791   3.393 -0.7871  0.3594  0.0098
  115MOL    C8343631   4.348   2.642   3.395 -0.2874  0.7193 -0.3884
  115MOL    C8443632   4.342   2.341   3.324 -0.1294  0.1787 -0.0039
  115MOL    H8543633   4.432   2.469   3.187  0.0368 -0.9794  0.2716
  115MOL    H8643634   4.171   2.557   3.315 -0.3714  1.3813 -0.1350
  115MOL    H8743635   4.180   2.679   3.102 -0.0877 -2.2151 -0.1018
  115MOL    H8843636   4.349   2.729   3.131 -1.9529  1.1709 -1.4690
  115MOL    H8943637   4.121   2.792   3.320 -0.1764 -0.8902  1.2706
  115MOL    H9043638   4.206   2.909   3.234 -2.3197  0.5409  1.5581
  115MOL    H9143639   4.408   2.847   3.386 -0.1357 -0.5703  1.1104
  115MOL    H9243640   4.265   2.819   3.485  0.4187 -0.5243  0.9540
  115MOL    H9343641   4.454   2.625   3.379 -0.0686  1.4525  0.2976
  115MOL    H9443642   4.305   2.589   3.480 -0.6388 -0.9077 -1.5407
  115MOL    H9543643   4.241   2.309   3.351 -0.9469  0.8218 -2.1727
  115MOL    H9643644   4.383   2.386   3.415  0.4072  0.3837 -0.3466
  115MOL    C9743645   4.441   2.229   3.315 -1.1990  0.2988  0.6431
  115MOL    C9843646   4.375   2.096   3.362 -0.2732 -0.7934 -0.5720
  115MOL    C9943647   4.315   2.105   3.503 -0.0729  0.1287 -0.2622
  115MOL   C10043648   4.188   2.018   3.511 -0.1067  0.3397 -0.5357
  115MOL   C10143649   4.161   1.977   3.371  0.1628  0.4526 -0.2055
  115MOL   C10243650   4.263   2.049   3.271  0.1660 -0.3261  0.8358
  115MOL   C10343651   4.575   2.259   3.397  0.8083  0.0345  0.0327
  115MOL   H10443652   4.459   2.218   3.208  0.1335 -0.6454  0.9457
  115MOL   H10543653   4.456   2.024   3.354  2.2115  2.0495 -2.3737
  115MOL   H10643654   4.388   2.074   3.577 -1.0630 -2.0902 -0.1719
  115MOL   H10743655   4.288   2.204   3.542  0.1839  0.6147 -1.2837
  115MOL   H10843656   4.096   2.065   3.544 -1.0333  0.7821 -3.5849
  115MOL   H10943657   4.195   1.930   3.575 -0.4963  0.0477 -0.8933
  115MOL   H11043658   4.058   1.968   3.337  0.0978  1.3762 -0.2605
  115MOL   H11143659   4.187   1.873   3.352  1.1531  1.2223 -3.3002
  115MOL   H11243660   4.295   1.979   3.194 -1.1898 -1.3694  1.1928
  115MOL   H11343661   4.214   2.133   3.220 -0.6861  0.3200  2.6642
  115MOL   H11443662   4.625   2.349   3.361  0.6469 -0.0429 -0.3836
  115MOL   H11543663   4.553   2.301   3.495 -0.3294 -0.8529  0.1688
  115MOL   C11643664   4.683   2.149   3.411 -0.3248  0.1620 -0.3029
  115MOL   C11743665   4.721   2.101   3.273  0.0631 -0.9766  0.4705
  115MOL   C11843666   4.785   2.205   3.173 -0.6044 -0.5056  0.3234
  115MOL   C11943667   4.862   2.119   3.070  0.6856  0.2341 -0.2030
  115MOL   C12043668   4.875   1.983   3.132 -0.0580 -0.1097  0.4298
  115MOL   C12143669   4.810   1.978   3.266 -0.0191 -0.5788  0.2992
  115MOL   C12243670   4.805   2.199   3.493 -0.0054  0.2609 -0.5285
  115MOL   H12343671   4.631   2.075   3.473 -0.8695  0.5406 -0.2993
  115MOL   H12443672   4.628   2.062   3.231  0.1438 -0.2102 -0.4451
  115MOL   H12543673   4.714   2.271   3.123  2.4957  2.4624 -0.3485
  115MOL   H12643674   4.861   2.269   3.216 -0.0988  0.0045 -1.2911
  115MOL   H12743675   4.954   2.155   3.025 -0.1981  1.0934 -1.3618
  115MOL   H12843676   4.786   2.101   2.995 -1.5594 -0.8132  2.2256
  115MOL   H12943677   4.979   1.953   3.144  0.0332 -0.3902 -0.9461
  115MOL   H13043678   4.836   1.912   3.059 -0.9805  0.5420  0.2766
  115MOL   H13143679   4.772   1.882   3.301 -0.1115  0.0986  2.1501
  115MOL   H13243680   4.884   2.005   3.342  0.8586 -0.5294 -0.5744
  115MOL   H13343681   4.851   2.279   3.436 -0.3066  1.1565  0.4770
  115MOL   H13443682   4.874   2.115   3.502 -1.1382 -0.5488  0.9191
  115MOL   C13543683   4.790   2.256   3.637 -0.0324 -0.2639 -1.0215
  115MOL   C13643684   4.928   2.267   3.697  0.2331 -0.2060  0.3613
  115MOL   C13743685   4.933   2.346   3.830  0.1055 -0.5439  1.1003
  115MOL   C13843686   5.074   2.398   3.852  0.0849  0.1446 -0.7233
  115MOL   C13943687   5.148   2.384   3.716  0.3658 -0.7704 -0.1538
  115MOL   C14043688   5.039   2.344   3.618 -0.5921 -0.6776  0.4552
  115MOL   C14143689   4.698   2.164   3.728 -0.4751  0.5892  0.1214
  115MOL   H14243690   4.745   2.355   3.635 -1.1645 -0.7811 -2.9836
  115MOL   H14343691   4.975   2.171   3.721 -0.0315 -1.5324 -4.0266
  115MOL   H14443692   4.853   2.420   3.825  1.1897  0.5773 -0.1396
  115MOL   H14543693   4.902   2.276   3.907  0.3477  0.5570  2.2284
  115MOL   H14643694   5.132   2.332   3.917 -1.3063  1.0552  1.4798
  115MOL   H14743695   5.081   2.499   3.891  2.3654 -0.3089  0.1158
  115MOL   H14843696   5.211   2.296   3.716  1.7443  0.1540 -3.2353
  115MOL   H14943697   5.198   2.475   3.684 -0.4893  0.2606  1.3840
  115MOL   H15043698   4.996   2.436   3.578  1.3749  0.1229  0.1030
  115MOL   H15143699   5.085   2.289   3.536  1.8678  0.1719  1.2183
  115MOL   H15243700   4.752   2.072   3.755  0.0266  1.4795  2.2721
  115MOL   H15343701   4.608   2.130   3.677  0.0114 -0.3359 -0.1439
  115MOL   C15443702   4.626   2.213   3.863 -0.1392 -0.3454  0.6460
  115MOL   C15543703   4.542   2.340   3.851 -0.2437  0.7344 -0.0317
  115MOL   C15643704   4.508   2.405   3.977  0.6240 -0.9186  0.1301
  115MOL   C15743705   4.392   2.502   3.940 -0.1149  0.5169  0.0479
  115MOL   C15843706   4.313   2.448   3.818  0.3077 -0.1323  0.1253
  115MOL   C15943707   4.412   2.327   3.772 -0.4247  0.4886  0.0355
  115MOL   C16043708   4.546   2.090   3.928 -0.3684 -0.0837  0.2697
  115MOL   H16143709   4.710   2.227   3.930  0.4780 -1.0157  0.0173
  115MOL   H16243710   4.597   2.419   3.799  0.0710  0.1225 -0.6362
  115MOL   H16343711   4.498   2.337   4.062  0.8686 -2.1432 -0.8197
  115MOL   H16443712   4.588   2.470   4.011  1.9623 -0.9679 -2.8069
  115MOL   H16543713   4.316   2.508   4.017 -0.4935  2.4575 -0.4538
  115MOL   H16643714   4.433   2.600   3.912  1.2593 -0.4634 -1.5105
  115MOL   H16743715   4.304   2.524   3.740 -0.2598  0.1362  0.4502
  115MOL   H16843716   4.223   2.397   3.851  0.1813 -0.9859 -1.4647
  115MOL   H16943717   4.444   2.349   3.671 -0.7881 -0.8534 -0.3916
  115MOL   H17043718   4.364   2.230   3.787  0.6290  0.1754  1.5445
  115MOL   H17143719   4.486   2.044   3.850  0.9637 -4.3760  1.6660
  115MOL   H17243720   4.480   2.126   4.007 -2.2650 -0.9253 -0.8928
  115MOL   C17343721   4.625   1.965   3.983 -0.5257 -0.5902 -0.0234
  115MOL   C17443722   4.593   1.838   3.910  0.1711 -0.3652  0.2350
  115MOL   C17543723   4.593   1.829   3.755  0.1981  0.2165 -0.0546
  115MOL   C17643724   4.515   1.708   3.719 -0.2601 -0.0336  0.1795
  115MOL   C17743725   4.388   1.731   3.806  0.4295  0.2980  0.1571
  115MOL   C17843726   4.451   1.768   3.944 -0.3874  0.1103 -0.1399
  115MOL   C17943727   4.631   1.946   4.135  0.6149 -0.7897 -0.8406
  115MOL   H18043728   4.730   1.976   3.954 -0.7002 -2.3694 -1.4665
  115MOL   H18143729   4.674   1.770   3.937  2.1294  2.3838  1.4683
  115MOL   H18243730   4.693   1.817   3.713  0.7715  0.3843  1.2256
  115MOL   H18343731   4.545   1.915   3.710 -1.0115 -0.7035 -0.5352
  115MOL   H18443732   4.491   1.717   3.613 -0.6051  3.1749  0.4930
  115MOL   H18543733   4.567   1.613   3.734  1.9815  0.6491 -2.7888
  115MOL   H18643734   4.327   1.640   3.805 -0.1518  0.6938 -0.3102
  115MOL   H18743735   4.323   1.811   3.770 -3.1663 -1.6816  2.0306
  115MOL   H18843736   4.380   1.835   3.993 -0.5836 -0.0744 -0.1723
  115MOL   H18943737   4.460   1.674   3.998 -0.0110  0.9916  1.3891
  115MOL   H19043738   4.527   1.944   4.167  1.3599  3.5154  2.1337
  115MOL   H19143739   4.675   1.849   4.161 -2.4984 -1.4623  2.2934
  115MOL   C19243740   4.694   2.061   4.219  0.2919 -0.0437  0.3710
  115MOL   C19343741   4.844   2.104   4.179  0.0749 -0.1456 -0.2037
  115MOL   C19443742   4.941   1.998   4.210  0.1518  0.6874  0.2591
  115MOL   C19543743   5.074   2.081   4.224 -0.3368 -0.7332  0.2783
  115MOL   C19643744   5.040   2.214   4.278 -0.1367 -0.2257  0.4087
  115MOL   C19743745   4.891   2.229   4.251  0.4498  0.2663 -0.4245
  115MOL   C19843746   4.670   2.022   4.371  0.7953 -0.6342 -0.2608
  115MOL   H19943747   4.628   2.144   4.192 -0.3904 -0.5656  0.4419
  115MOL   H20043748   4.847   2.123   4.071 -1.7052 -0.0032 -0.2402
  115MOL   H20143749   4.950   1.924   4.131  2.6852  1.0898  0.1369
  115MOL   H20243750   4.926   1.950   4.307  1.3191 -1.8179 -0.7550
  115MOL   H20343751   5.153   2.038   4.286 -1.9609 -2.5352  1.1439
  115MOL   H20443752   5.107   2.089   4.120 -1.1054  1.7454  0.2041
  115MOL   H20543753   5.096   2.283   4.215 -1.8229  0.6558 -0.1328
  115MOL   H20643754   5.071   2.216   4.383  1.1551 -0.5745  0.0398
  115MOL   H20743755   4.868   2.309   4.180 -1.7432  0.6191  0.6425
  115MOL   H20843756   4.843   2.260   4.344 -0.0905 -1.0651 -0.2523
  115MOL   H20943757   4.657   1.913   4.373  0.5264 -0.5896  1.2786
  115MOL   H21043758   4.759   2.045   4.429 -0.5115 -1.3791  2.0961
  115MOL   C21143759   4.549   2.074   4.452  0.1555  0.4492  1.0081
  115MOL   C21243760   4.542   2.002   4.591  0.2071 -0.7074 -0.4873
  115MOL   C21343761   4.405   2.007   4.666  0.7583  0.3382  0.5399
  115MOL   C21443762   4.426   1.914   4.781 -0.1017 -0.0372  0.6909
  115MOL   C21543763   4.534   1.818   4.744  0.1623 -0.3425 -0.3008
  115MOL   C21643764   4.569   1.849   4.596  0.1277 -0.1759 -0.0789
  115MOL   C21743765   4.550   2.225   4.464 -0.6472  0.0497  0.1546
  115MOL   H21843766   4.462   2.034   4.400 -0.1498  0.7250  1.3064
  115MOL   H21943767   4.623   2.053   4.643 -0.8287 -0.2109  0.6530
  115MOL   H22043768   4.379   2.107   4.700 -0.1244  0.4273 -0.3606
  115MOL   H22143769   4.330   1.984   4.590  1.2266  0.0787  0.1576
  115MOL   H22243770   4.448   1.968   4.873  2.9580  4.4027 -2.4747
  115MOL   H22343771   4.336   1.858   4.808  0.6678 -2.7357 -2.0710
  115MOL   H22443772   4.516   1.715   4.772 -1.2213 -0.4566 -1.5830
  115MOL   H22543773   4.628   1.852   4.789  0.1084 -0.1995 -0.2931
  115MOL   H22643774   4.672   1.818   4.582  0.9792  2.5792 -0.1680
  115MOL   H22743775   4.509   1.785   4.531 -2.3458  1.2503  0.7332
  115MOL   H22843776   4.610   2.271   4.386 -0.6384 -0.0118  0.1246
  115MOL   H22943777   4.609   2.254   4.551  2.4477 -0.6645 -1.6161
  115MOL   C23043778   4.421   2.307   4.479  0.0147  0.2519  0.1883
  115MOL   C23143779   4.343   2.336   4.344 -0.0984  0.0310 -0.8919
  115MOL   C23243780   4.297   2.212   4.284 -0.1821 -0.3263  0.1150
  115MOL   C23343781   4.210   2.270   4.175 -0.0567 -0.1155  0.5843
  115MOL   C23443782   4.136   2.391   4.228  0.9193 -0.3748  0.7396
  115MOL   C23543783   4.224   2.439   4.340  0.2046  0.3807 -0.0366
  115MOL   C23643784   4.435   2.435   4.567 -0.2048  0.1699 -0.3373
  115MOL   H23743785   4.354   2.243   4.537 -1.4264  0.7544 -0.8967
  115MOL   H23843786   4.420   2.367   4.273 -0.0448 -1.3780 -1.4841
  115MOL   H23943787   4.384   2.153   4.256 -2.2712 -2.8775 -1.2891
  115MOL   H24043788   4.229   2.162   4.353  0.7014  0.0902  1.2857
  115MOL   H24143789   4.271   2.308   4.093 -0.0139 -0.5944  0.3925
  115MOL   H24243790   4.143   2.192   4.139 -1.4786  0.8760  1.0605
  115MOL   H24343791   4.034   2.385   4.266 -0.5241 -1.7321 -3.0480
  115MOL   H24443792   4.133   2.474   4.157  0.5726 -0.1022  1.0721
  115MOL   H24543793   4.169   2.438   4.434  0.9794  0.1245  0.4188
  115MOL   H24643794   4.278   2.533   4.325 -0.7488  1.0874  0.8811
  115MOL   H24743795   4.348   2.499   4.558 -0.0612  0.5729  1.1340
  115MOL   H24843796   4.509   2.501   4.521  0.2658  0.8106  1.2989
  115MOL   C24943797   4.474   2.419   4.719 -0.4235 -0.0564  0.9730
  115MOL   C25043798   4.345   2.366   4.803 -0.1067 -0.0965 -0.6692
  115MOL   C25143799   4.242   2.471   4.855  0.4657 -0.3577 -0.4021
  115MOL   C25243800   4.171   2.406   4.970  0.9418 -0.1854 -0.2633
  115MOL   C25343801   4.274   2.315   5.032  0.4986  0.3103  0.6662
  115MOL   C25443802   4.379   2.282   4.924 -0.2014  0.0117  0.0038
  115MOL   C25543803   4.538   2.544   4.779  0.5256 -0.3038  0.2125
  115MOL   H25643804   4.543   2.335   4.710  0.0516  0.4540 -0.3115
  115MOL   H25743805   4.284   2.314   4.730 -0.7280 -0.1727 -0.1040
  115MOL   H25843806   4.169   2.487   4.776 -0.3892 -2.9875 -0.2056
  115MOL   H25943807   4.296   2.560   4.884 -0.0261  0.3275 -1.5359
  115MOL   H26043808   4.093   2.337   4.937 -0.5879  0.5308  1.7182
  115MOL   H26143809   4.129   2.477   5.041 -1.5975 -0.1815 -1.7049
  115MOL   H26243810   4.228   2.223   5.067 -0.0599  0.2084 -0.3296
  115MOL   H26343811   4.323   2.369   5.114  4.9384 -2.1004 -0.2941
  115MOL   H26443812   4.386   2.176   4.902  0.3395  0.3293 -1.4293
  115MOL   H26543813   4.480   2.298   4.963  0.7169 -1.7174 -1.5930
  115MOL   H26643814   4.461   2.619   4.763 -0.4834 -0.8165  2.4345
  115MOL   H26743815   4.550   2.536   4.887  2.8643  2.3258  0.1908
  115MOL   C26843816   4.676   2.597   4.723  0.2234 -0.1275  0.1620
  115MOL   C26943817   4.790   2.514   4.780 -0.1657  0.1171  0.4798
  115MOL   C27043818   4.813   2.516   4.925 -0.6420 -0.2805  0.3602
  115MOL   C27143819   4.961   2.501   4.955 -0.2693 -0.4450 -0.4341
  115MOL   C27243820   5.025   2.462   4.820  0.2362  0.0235 -0.3806
  115MOL   C27343821   4.926   2.527   4.720  0.3371  0.1114 -0.6310
  115MOL   C27443822   4.696   2.747   4.740  0.0436 -0.5395 -1.1357
  115MOL   H27543823   4.676   2.582   4.615  2.4391  0.1610  0.1049
  115MOL   H27643824   4.765   2.408   4.773  2.3606 -0.6254  1.7197
  115MOL   H27743825   4.774   2.603   4.977 -2.0537 -0.5310 -0.2489
  115MOL   H27843826   4.751   2.438   4.969 -1.5979 -0.8441 -1.9216
  115MOL   H27943827   5.004   2.595   4.988 -0.8098 -0.1651 -0.5067
  115MOL   H28043828   4.995   2.424   5.024  1.1605  2.1280  1.7851
  115MOL   H28143829   5.023   2.354   4.803  0.7787  0.1870 -1.5224
  115MOL   H28243830   5.127   2.500   4.813 -0.1782  1.3417  0.5802
  115MOL   H28343831   4.944   2.482   4.622  1.0218 -0.8571 -0.0773
  115MOL   H28443832   4.946   2.634   4.715  0.6726 -0.0200 -2.4839
  115MOL   H28543833   4.794   2.761   4.695  0.0027 -0.0946 -1.0840
  115MOL   H28643834   4.690   2.772   4.846 -0.7856  2.0195 -1.7543
  115MOL   C28743835   4.596   2.833   4.657  1.0322  0.7559 -0.2395
  115MOL   C28843836   4.488   2.899   4.746 -0.3305 -1.0413 -0.0605
  115MOL   C28943837   4.533   3.021   4.829  0.3571  0.0167  0.2718
  115MOL   C29043838   4.404   3.100   4.853  0.1744 -0.0955 -0.1073
  115MOL   C29143839   4.295   3.029   4.775 -0.3571 -0.0998 -0.2474
  115MOL   C29243840   4.369   2.959   4.664  0.2775 -0.0979  0.2098
  115MOL   C29343841   4.670   2.931   4.558 -0.2443 -0.3188 -0.3551
  115MOL   H29443842   4.540   2.772   4.587  0.0228 -1.6161  2.5526
  115MOL   H29543843   4.461   2.826   4.821  1.2097 -1.6510 -0.0788
  115MOL   H29643844   4.576   2.985   4.923  2.6436  0.0651 -0.7137
  115MOL   H29743845   4.606   3.082   4.776  0.8462 -2.2094 -1.6783
  115MOL   H29843846   4.375   3.102   4.958  0.9726 -2.0385  0.1892
  115MOL   H29943847   4.418   3.203   4.820  0.6225 -0.6544 -1.7157
  115MOL   H30043848   4.213   3.095   4.746 -0.8981  0.8415  3.2801
  115MOL   H30143849   4.253   2.951   4.838  0.0888 -1.5145 -1.6722
  115MOL   H30243850   4.389   3.029   4.584  2.1532 -0.5916  0.2258
  115MOL   H30343851   4.309   2.881   4.618  2.1953 -0.1177 -2.3232
  115MOL   H30443852   4.724   2.998   4.624  0.4157  0.3873 -1.5917
  115MOL   H30543853   4.598   3.001   4.514 -3.5250 -1.2345  3.2821
  115MOL   C30643854   4.757   2.864   4.443  0.1190 -0.3663 -0.1957
  115MOL   C30743855   4.665   2.778   4.346 -0.3590 -0.4042 -0.5529
  115MOL   C30843856   4.550   2.861   4.288  0.3313  0.5401  0.1453
  115MOL   C30943857   4.539   2.817   4.144  0.3077 -0.1361  0.3772
  115MOL   C31043858   4.680   2.768   4.104  0.5382 -0.8774 -0.6749
  115MOL   C31143859   4.737   2.707   4.230 -0.7431 -0.6080 -0.5368
  115MOL   C31243860   4.851   2.969   4.367  0.0268 -0.3026 -0.2892
  115MOL   H31343861   4.813   2.792   4.502 -2.4712 -0.5355  2.1622
  115MOL   H31443862   4.616   2.697   4.401 -2.1423  0.6466 -0.5704
  115MOL   H31543863   4.582   2.965   4.274  1.2147 -0.0166 -2.2163
  115MOL   H31643864   4.455   2.871   4.341  0.3531  2.9341 -0.2093
  115MOL   H31743865   4.469   2.734   4.155  1.4708 -1.3228 -0.8800
  115MOL   H31843866   4.500   2.892   4.076  0.7272  1.3296  1.7242
  115MOL   H31943867   4.726   2.861   4.073  0.3556 -0.1109  1.2902
  115MOL   H32043868   4.681   2.695   4.022 -3.0065 -2.9223  0.9503
  115MOL   H32143869   4.707   2.602   4.231  1.8357 -1.3866 -1.2681
  115MOL   H32243870   4.843   2.724   4.247 -1.0858  0.8570  0.2602
  115MOL   H32343871   4.805   3.037   4.295  0.9158 -1.0284 -1.5647
  115MOL   H32443872   4.915   2.908   4.304 -0.2105 -0.4004 -0.4346
  115MOL   C32543873   4.941   3.062   4.455  1.1249  0.3548 -0.4020
  115MOL   C32643874   4.909   3.208   4.431  0.3845 -0.1687 -0.1900
  115MOL   C32743875   4.983   3.296   4.532  0.0359  0.3147  0.1244
  115MOL   C32843876   4.873   3.392   4.591 -0.2855  0.3959 -0.1442
  115MOL   C32943877   4.740   3.310   4.584 -0.0541 -0.2436 -0.5863
  115MOL   C33043878   4.757   3.249   4.452 -0.4736  0.1183  0.3035
  115MOL   C33143879   5.090   3.023   4.438 -0.0725 -0.3642  0.8354
  115MOL   H33243880   4.917   3.040   4.559  1.4895  2.2666  0.0973
  115MOL   H33343881   4.924   3.252   4.332  2.0964  0.8109  0.4733
  115MOL   H33443882   5.069   3.343   4.485 -0.8721  0.4738 -1.4092
  115MOL   H33543883   5.018   3.231   4.612  0.7789  1.6257  0.8801
  115MOL   H33643884   4.861   3.486   4.538 -0.6147  3.2990  4.8068
  115MOL   H33743885   4.890   3.418   4.695  1.0196 -0.8159 -0.0483
  115MOL   H33843886   4.656   3.379   4.594  0.7445  0.2638  3.6130
  115MOL   H33943887   4.731   3.242   4.669 -1.6415 -1.8134 -1.9745
  115MOL   H34043888   4.736   3.339   4.393 -1.4901 -0.0008  0.4801
  115MOL   H34143889   4.676   3.184   4.419 -0.9241  0.6687  0.3086
  115MOL   H34243890   5.147   3.107   4.476  0.8735 -1.4600  1.8977
  115MOL   H34343891   5.114   3.025   4.332 -0.4528 -0.3229  0.7486
  115MOL   C34443892   5.163   2.898   4.495 -0.1199 -0.1835 -0.1933
  115MOL   C34543893   5.158   2.776   4.401  0.6668 -0.9187 -0.9902
  115MOL   C34643894   5.218   2.637   4.444  1.0917 -0.6049  0.1483
  115MOL   C34743895   5.228   2.549   4.318 -0.0388  0.3766  0.3519
  115MOL   C34843896   5.263   2.657   4.208 -0.2662 -0.0590 -0.2089
  115MOL   C34943897   5.220   2.792   4.257  0.4041  0.1285 -0.3321
  115MOL   C35043898   5.135   2.862   4.646  0.2765 -0.0498 -0.0891
  115MOL   H35143899   5.267   2.930   4.491  0.4676 -2.1297 -0.8976
  115MOL   H35243900   5.053   2.747   4.388  0.3503 -0.9631  1.3479
  115MOL   H35343901   5.162   2.596   4.528 -0.0538  1.3546  0.3760
  115MOL   H35443902   5.323   2.643   4.471  2.0835 -1.0344 -3.4614
  115MOL   H35543903   5.306   2.473   4.315  1.1795  1.5820  0.8081
  115MOL   H35643904   5.132   2.504   4.292  0.7028 -0.1810 -1.4939
  115MOL   H35743905   5.220   2.634   4.111 -1.3763 -0.5218  0.3811
  115MOL   H35843906   5.371   2.657   4.193  0.3177  0.3234  3.3398
  115MOL   H35943907   5.296   2.866   4.280  2.4205 -2.3445  1.2194
  115MOL   H36043908   5.155   2.829   4.177  0.1014  0.4758  0.0709
  115MOL   H36143909   5.191   2.772   4.671  0.2131 -0.5559 -1.7190
  115MOL   H36243910   5.031   2.830   4.643  1.0411 -2.8060  1.4960
  115MOL   C36343911   5.162   2.976   4.743 -0.4837 -0.3283  0.5118
  115MOL   C36443912   5.090   2.966   4.877  0.0981  0.6547  0.5295
  115MOL   C36543913   4.933   2.961   4.863 -0.9218  0.6448  0.3026
  115MOL   C36643914   4.881   3.088   4.937  0.1277 -0.0877 -0.4055
  115MOL   C36743915   4.985   3.116   5.041 -0.0167  0.0364 -0.0386
  115MOL   C36843916   5.122   3.093   4.965  1.0689  0.4687 -0.6335
  115MOL   C36943917   5.310   2.995   4.771  0.8812  0.5495  0.3355
  115MOL   H37043918   5.131   3.068   4.693  1.5821 -0.1631 -0.4982
  115MOL   H37143919   5.126   2.877   4.928 -0.2577 -0.1756 -0.6424
  115MOL   H37243920   4.893   2.953   4.762 -1.3309 -0.6783  0.5578
  115MOL   H37343921   4.898   2.878   4.924 -0.7410  0.2673 -0.1081
  115MOL   H37443922   4.883   3.171   4.866 -0.3474  0.2413 -0.0371
  115MOL   H37543923   4.779   3.079   4.974  0.0863  3.5981  0.6072
  115MOL   H37643924   4.990   3.206   5.102 -2.1824 -1.8390  3.0241
  115MOL   H37743925   4.981   3.031   5.110  0.3511 -0.7359 -0.9521
  115MOL   H37843926   5.202   3.070   5.035  0.0232  0.0506  0.4411
  115MOL   H37943927   5.155   3.173   4.900 -0.3237  0.0059 -1.9367
  115MOL   H38043928   5.357   2.921   4.836  3.0755  0.7276 -0.9916
  115MOL   H38143929   5.328   3.087   4.827  1.0971  0.8720 -0.2534
  115MOL   H38243930   5.378   3.008   4.686  1.2122  0.6077  0.6051
  116MOL     C143931   2.157   7.565   2.101 -0.1525 -0.2380 -0.3291
  116MOL     C243932   2.271   7.478   2.152  0.5357 -0.4565 -0.5981
  116MOL     C343933   2.396   7.500   2.067  0.2956  0.6868  0.1020
  116MOL     C443934   2.464   7.361   2.057  0.4671  0.2478  0.1416
  116MOL     C543935   2.392   7.263   2.157  0.3238 -0.1589 -0.2607
  116MOL     C643936   2.254   7.327   2.164  0.3406 -0.1905 -0.2419
  116MOL     C743937   2.028   7.558   2.190 -0.3616  0.2885 -0.0202
  116MOL     H843938   2.193   7.668   2.102 -2.1879  0.5217 -1.4211
  116MOL     H943939   2.299   7.513   2.252 -3.8205  1.0611  0.1746
  116MOL    H1043940   2.371   7.523   1.963  1.3584  1.0950 -0.0699
  116MOL    H1143941   2.467   7.574   2.105  0.9790  0.0902 -0.0063
  116MOL    H1243942   2.456   7.319   1.956  1.3284 -1.1346  0.6354
  116MOL    H1343943   2.572   7.365   2.074  0.9286  1.3285 -2.7173
  116MOL    H1443944   2.389   7.161   2.120 -0.0714 -0.3586  0.3191
  116MOL    H1543945   2.434   7.270   2.258 -0.4839 -1.0101  0.1427
  116MOL    H1643946   2.215   7.302   2.263 -1.8291  2.2616 -0.4334
  116MOL    H1743947   2.174   7.307   2.093  0.4983  2.1739 -1.1293
  116MOL    H1843948   1.978   7.461   2.181 -0.4130  0.5325 -2.6456
  116MOL    H1943949   2.050   7.565   2.297  0.6952 -0.9239 -0.1411
  116MOL    H2043950   2.148   7.544   1.994  1.0728  1.0540 -0.7022
  116MOL    C2143951   1.925   7.668   2.151 -0.3107  0.2253  0.3299
  116MOL    C2243952   1.969   0.116   2.185 -0.1424 -0.6649 -0.2227
  116MOL    C2343953   1.989   0.136   2.335 -0.1259  0.3955  0.5147
  116MOL    C2443954   1.999   0.290   2.352  0.1748 -1.0123 -0.2567
  116MOL    C2543955   1.926   0.345   2.229  0.1159  0.1062  0.0757
  116MOL    C2643956   1.867   0.227   2.158 -0.0852  0.2917  0.5877
  116MOL    C2743957   1.871   7.654   2.002 -0.0295 -0.8284  0.3695
  116MOL    H2843958   1.842   7.653   2.220  1.0382 -1.3141  1.6335
  116MOL    H2943959   2.061   0.143   2.133 -0.0386  2.0103  1.2336
  116MOL    H3043960   2.073   0.079   2.374 -0.4510 -0.8096 -0.5087
  116MOL    H3143961   1.904   0.103   2.395  0.2082 -1.2671  0.1011
  116MOL    H3243962   1.944   0.318   2.443  1.9195  0.6891  0.2997
  116MOL    H3343963   2.097   0.333   2.369 -0.7447  0.8465  0.5155
  116MOL    H3443964   2.000   0.392   2.164 -1.4876  1.1140 -1.0429
  116MOL    H3543965   1.845   0.412   2.257 -1.7511 -1.8968 -0.4507
  116MOL    H3643966   1.862   0.249   2.051 -0.9683  0.2035  0.6066
  116MOL    H3743967   1.769   0.203   2.198 -0.0951 -3.0148 -1.1979
  116MOL    H3843968   1.821   0.055   1.966  2.1631 -0.2049 -1.2051
  116MOL    H3943969   1.960   7.657   1.939 -0.1727  0.8687  0.2263
  116MOL    C4043970   1.793   7.529   1.965  0.6266  0.1771  0.4666
  116MOL    C4143971   1.668   7.517   2.060 -0.7130  0.5238 -0.3068
  116MOL    C4243972   1.596   7.381   2.036  0.1372 -0.2969  0.2527
  116MOL    C4343973   1.449   7.415   1.996  0.2383  0.2687 -0.3382
  116MOL    C4443974   1.422   7.554   2.054  0.2446  0.9036 -0.0571
  116MOL    C4543975   1.556   7.628   2.051 -0.5403 -0.5888 -0.8156
  116MOL    C4643976   1.754   7.528   1.811 -0.1238  0.1475 -0.1738
  116MOL    H4743977   1.850   7.438   1.976 -0.7490 -0.5813  1.4805
  116MOL    H4843978   1.694   7.512   2.166 -2.8345  0.7970  0.2378
  116MOL    H4943979   1.591   7.319   2.126 -1.4098  2.1381  1.9142
  116MOL    H5043980   1.654   7.325   1.963  1.4958 -1.4104  2.1500
  116MOL    H5143981   1.377   7.343   2.036  1.4988  0.2279  1.8872
  116MOL    H5243982   1.445   7.425   1.887 -0.0806  0.0679 -0.3450
  116MOL    H5343983   1.339   7.597   1.999 -1.0770 -2.5378 -0.8898
  116MOL    H5443984   1.391   7.542   2.158 -0.4009 -2.8514 -0.5843
  116MOL    H5543985   1.560   7.679   1.955 -0.6604 -0.3728 -0.7051
  116MOL    H5643986   1.571   0.017   2.125 -0.4318 -0.3174 -1.1249
  116MOL    H5743987   1.651   7.498   1.794 -0.1740  0.9270 -1.3029
  116MOL    H5843988   1.750   7.636   1.794  0.5783  0.3673  0.9586
  116MOL    C5943989   1.853   7.456   1.722  0.1557  0.0988  0.3471
  116MOL    C6043990   1.822   7.308   1.714  0.2523  0.2627 -0.1345
  116MOL    C6143991   1.930   7.209   1.651  0.8234 -0.7239 -0.5835
  116MOL    C6243992   1.851   7.077   1.617 -0.1193 -0.4619 -0.1331
  116MOL    C6343993   1.702   7.117   1.639  0.2168  0.4896 -0.5728
  116MOL    C6443994   1.693   7.271   1.640 -0.4642  0.6616  0.1780
  116MOL    C6543995   1.870   7.519   1.589  0.0751  0.5811 -0.2704
  116MOL    H6643996   1.949   7.460   1.773 -0.0227 -0.8399  0.7606
  116MOL    H6743997   1.812   7.271   1.816 -0.1321  0.2945 -0.1623
  116MOL    H6843998   2.017   7.191   1.714  1.8687 -1.5523 -2.2559
  116MOL    H6943999   1.967   7.253   1.559 -1.6914 -0.3097 -1.4401
  116MOL    H7044000   1.888   6.988   1.668  0.9735  0.1885  0.2412
  116MOL    H7144001   1.857   7.043   1.514 -1.0176 -0.7146 -0.1040
  116MOL    H7244002   1.672   7.074   1.734 -0.4564 -1.0123 -1.4397
  116MOL    H7344003   1.650   7.059   1.563 -0.9966  1.6851 -0.6795
  116MOL    H7444004   1.688   7.312   1.540  0.1503 -1.6508 -0.8388
  116MOL    H7544005   1.599   7.298   1.688 -1.0874 -1.0151 -0.0670
  116MOL    H7644006   1.767   7.535   1.556 -0.2120  1.2310  0.9077
  116MOL    H7744007   1.919   7.454   1.516  0.0533  0.6747 -0.3678
  116MOL    C7844008   1.950   7.660   1.591 -0.0310  0.5608  0.8091
  116MOL    C7944009   2.103   7.641   1.573  0.0403  0.1371 -0.9231
  116MOL    C8044010   2.148   7.595   1.434 -0.0502  0.3618 -0.0739
  116MOL    C8144011   2.286   7.530   1.464  0.5717 -1.1864  0.7197
  116MOL    C8244012   2.312   7.550   1.613  0.2631 -0.1638 -0.1650
  116MOL    C8344013   2.168   7.545   1.669 -0.6710  0.6327 -0.3375
  116MOL    C8444014   1.882   0.080   1.502  0.6689 -0.1819 -0.4134
  116MOL    H8544015   1.949   7.686   1.697  3.2136 -0.1546  1.0551
  116MOL    H8644016   2.146   0.049   1.597  0.6216 -0.5670  1.0714
  116MOL    H8744017   2.160   7.681   1.368 -0.1298  1.7203  1.6350
  116MOL    H8844018   2.080   7.531   1.379 -0.6662 -0.6331  1.7883
  116MOL    H8944019   2.368   7.575   1.409 -0.2899 -2.1449 -1.4011
  116MOL    H9044020   2.275   7.426   1.432 -1.3040 -1.2826  1.5950
  116MOL    H9144021   2.370   7.460   1.635  0.1482 -0.7712 -2.2731
  116MOL    H9244022   2.359   7.644   1.642 -1.1329  0.5087 -0.0435
  116MOL    H9344023   2.125   7.446   1.657 -1.0437  0.9448 -1.6926
  116MOL    H9444024   2.170   7.568   1.776  2.8094 -0.4385 -0.1147
  116MOL    H9544025   1.850   0.027   1.412  1.2743 -0.4563 -0.4731
  116MOL    H9644026   1.964   0.138   1.460 -0.4272  0.5756 -1.5077
  116MOL    C9744027   1.772   0.167   1.567  0.8496  0.7407 -0.5451
  116MOL    C9844028   1.818   0.255   1.682 -0.2424 -0.0728 -0.5763
  116MOL    C9944029   1.937   0.342   1.646  0.7419  0.2620  0.3444
  116MOL   C10044030   1.928   0.469   1.729  0.5489 -0.1278 -0.4145
  116MOL   C10144031   1.800   0.465   1.805 -0.3331  0.0373  0.2183
  116MOL   C10244032   1.717   0.355   1.733 -0.4778  0.5829 -0.0376
  116MOL   C10344033   1.634   0.092   1.582  0.5669 -0.2321 -0.4091
  116MOL   H10444034   1.755   0.242   1.489  1.0735 -1.2334 -2.5594
  116MOL   H10544035   1.838   0.192   1.769  0.3146  0.7165 -0.1331
  116MOL   H10644036   2.032   0.296   1.675 -0.9261 -2.0646  2.3694
  116MOL   H10744037   1.929   0.378   1.543  0.5542  0.8534  0.5664
  116MOL   H10844038   1.937   0.556   1.664 -1.2934  0.5406  0.1760
  116MOL   H10944039   2.017   0.485   1.790  0.1896  0.6608 -0.0849
  116MOL   H11044040   1.738   0.554   1.794  0.3159  0.5690  0.8979
  116MOL   H11144041   1.820   0.432   1.906  0.9366  0.7911  0.2138
  116MOL   H11244042   1.653   0.303   1.805  0.5538 -1.6425 -0.6898
  116MOL   H11344043   1.659   0.399   1.652 -0.8130 -1.1580 -0.7676
  116MOL   H11444044   1.649   7.674   1.581 -2.2295 -0.7330  2.3607
  116MOL   H11544045   1.594   0.104   1.683 -1.4927 -1.4169 -1.0566
  116MOL   C11644046   1.533   0.111   1.467  0.1886 -0.1219 -0.2582
  116MOL   C11744047   1.403   0.030   1.481  0.1302 -0.9102  0.2265
  116MOL   C11844048   1.431   7.571   1.456  0.4616  0.5353  0.0607
  116MOL   C11944049   1.330   7.497   1.550  0.3027  0.0662 -0.9035
  116MOL   C12044050   1.236   7.596   1.612  0.6396  0.3324 -0.2458
  116MOL   C12144051   1.319   0.042   1.610 -0.0538 -0.5443  0.4463
  116MOL   C12244052   1.487   0.258   1.450  0.3649  0.3214  0.6397
  116MOL   H12344053   1.598   0.081   1.386  1.3946  0.8247  0.3422
  116MOL   H12444054   1.330   0.055   1.404 -0.1726 -0.2830  0.7129
  116MOL   H12544055   1.408   7.541   1.354 -0.6738  2.9173 -0.4259
  116MOL   H12644056   1.528   7.543   1.496 -0.4252 -3.3489 -0.2978
  116MOL   H12744057   1.392   7.456   1.629  0.0665  2.3875  0.5555
  116MOL   H12844058   1.276   7.409   1.518  0.9074 -1.4938  2.1740
  116MOL   H12944059   1.197   7.566   1.710 -1.0307 -1.2465 -1.3759
  116MOL   H13044060   1.143   7.611   1.557 -0.5282  0.4710  1.6852
  116MOL   H13144061   1.268   0.138   1.619 -0.0277 -0.5523  0.6903
  116MOL   H13244062   1.388   0.049   1.695 -0.9041 -2.9392  1.3894
  116MOL   H13344063   1.565   0.331   1.473  0.9919  0.8738 -2.9633
  116MOL   H13444064   1.407   0.271   1.523 -2.4654 -2.1620 -1.8879
  116MOL   C13544065   1.438   0.311   1.307 -0.5675  0.1207 -0.1821
  116MOL   C13644066   1.557   0.335   1.205  0.1029  0.1527  0.4017
  116MOL   C13744067   1.526   0.424   1.090  0.7558  0.4666  0.3832
  116MOL   C13844068   1.631   0.382   0.985 -0.4487  0.5045  0.0726
  116MOL   C13944069   1.658   0.228   1.003 -0.2055 -0.0956 -0.2572
  116MOL   C14044070   1.613   0.198   1.152  0.5147 -0.3990 -0.5555
  116MOL   C14144071   1.361   0.443   1.342 -0.0305 -0.1167 -0.3372
  116MOL   H14244072   1.366   0.250   1.252 -2.2028  1.9274 -0.1034
  116MOL   H14344073   1.639   0.381   1.260  0.4171  1.3432 -1.0268
  116MOL   H14444074   1.428   0.394   1.054 -0.5616  3.9233  0.8183
  116MOL   H14544075   1.521   0.532   1.104  0.0719  0.4972 -0.0897
  116MOL   H14644076   1.723   0.438   1.001  0.2376 -0.6961  0.4174
  116MOL   H14744077   1.594   0.407   0.886 -1.7292  2.7097  1.0942
  116MOL   H14844078   1.764   0.205   0.992  0.0546 -0.8286  3.0547
  116MOL   H14944079   1.611   0.167   0.926  0.6274  1.6946 -2.2171
  116MOL   H15044080   1.535   0.124   1.134  1.0600 -1.5118  1.4571
  116MOL   H15144081   1.698   0.151   1.203  1.0859  0.3504 -0.8135
  116MOL   H15244082   1.357   0.510   1.256  2.0498  1.3615  0.6948
  116MOL   H15344083   1.429   0.490   1.412  1.7715 -0.1261 -2.0553
  116MOL   C15444084   1.216   0.436   1.387  0.4488  0.2959  0.3111
  116MOL   C15544085   1.182   0.537   1.494  0.2583  0.0085  0.9645
  116MOL   C15644086   1.220   0.685   1.464  0.3985  0.2293  0.3561
  116MOL   C15744087   1.257   0.746   1.601  0.5638  0.3618 -0.2910
  116MOL   C15844088   1.215   0.642   1.705 -0.3391  0.9793  1.1618
  116MOL   C15944089   1.236   0.511   1.635  0.6820 -0.7706  0.6642
  116MOL   C16044090   1.127   0.455   1.264  0.0749  0.5681 -0.1286
  116MOL   H16144091   1.207   0.338   1.435  2.3707  1.2245  2.6623
  116MOL   H16244092   1.074   0.528   1.506  0.4214  0.6664  3.3719
  116MOL   H16344093   1.313   0.698   1.408  0.2465  0.4184  0.1487
  116MOL   H16444094   1.137   0.732   1.411  0.9556  1.6954  0.7567
  116MOL   H16544095   1.365   0.761   1.611  0.8409 -1.8489  0.3396
  116MOL   H16644096   1.208   0.842   1.617 -0.2850 -0.1886  0.4795
  116MOL   H16744097   1.115   0.672   1.736 -1.2742 -2.0823  1.2523
  116MOL   H16844098   1.282   0.647   1.792  1.2400  0.9952 -0.0242
  116MOL   H16944099   1.173   0.436   1.683 -1.5433  1.4912  1.3583
  116MOL   H17044100   1.342   0.487   1.640  0.8527  0.4533  3.6223
  116MOL   H17144101   1.169   0.397   1.181 -0.7044  0.3693 -0.3960
  116MOL   H17244102   1.136   0.559   1.234 -2.0354  1.1358  1.1047
  116MOL   C17344103   0.973   0.411   1.273 -0.0893 -0.6314 -0.8068
  116MOL   C17444104   0.960   0.265   1.235  0.1972 -0.4619  0.2675
  116MOL   C17544105   0.816   0.210   1.232 -0.3031 -0.5703  0.1980
  116MOL   C17644106   0.830   0.060   1.223  0.3880  0.0735 -0.6142
  116MOL   C17744107   0.938   0.034   1.332 -0.1526 -0.9609  0.5363
  116MOL   C17844108   1.024   0.163   1.328  0.1491  0.6416  0.0998
  116MOL   C17944109   0.897   0.502   1.174  0.0742  0.1533 -0.2705
  116MOL   H18044110   0.929   0.422   1.372  1.3865 -3.4313  0.1948
  116MOL   H18144111   0.999   0.253   1.134  1.3453  0.6104  0.5699
  116MOL   H18244112   0.762   0.264   1.155 -1.5748  0.3022  1.6680
  116MOL   H18344113   0.753   0.222   1.320  0.2640 -0.9431  0.6566
  116MOL   H18444114   0.732   0.017   1.246 -1.3973  4.1412 -0.2628
  116MOL   H18544115   0.875   0.018   1.133 -0.7277 -2.0257 -0.2266
  116MOL   H18644116   0.995   7.632   1.319  0.3309 -0.8009  1.4545
  116MOL   H18744117   0.879   0.027   1.424 -0.0856  0.9509  0.7538
  116MOL   H18844118   1.019   0.189   1.434 -2.2273  1.7476 -0.2622
  116MOL   H18944119   1.126   0.148   1.292 -0.9055 -2.5217 -1.8685
  116MOL   H19044120   0.944   0.600   1.163  0.4687 -0.0127 -0.0862
  116MOL   H19144121   0.910   0.478   1.068  2.0949 -0.3292  0.0630
  116MOL   C19244122   0.746   0.538   1.206 -0.3599 -0.7182  0.3155
  116MOL   C19344123   0.656   0.581   1.089  0.3019 -0.2809  0.3886
  116MOL   C19444124   0.608   0.464   1.001 -0.0481  0.2798 -0.1334
  116MOL   C19544125   0.573   0.526   0.874  0.5589  0.4339  0.1736
  116MOL   C19644126   0.648   0.649   0.857 -0.2917 -0.0215 -0.1345
  116MOL   C19744127   0.712   0.682   0.989  0.1742 -0.2905 -0.1885
  116MOL   C19844128   0.744   0.651   1.316 -0.1112  0.0287  0.2280
  116MOL   H19944129   0.708   0.444   1.244  1.6383 -1.5573  0.3008
  116MOL   H20044130   0.573   0.640   1.127  0.2120 -0.4888  0.5099
  116MOL   H20144131   0.526   0.410   1.049  0.5269  0.9277  1.6226
  116MOL   H20244132   0.694   0.398   0.989 -1.2457 -1.5206  0.9408
  116MOL   H20344133   0.589   0.464   0.785 -0.9370  1.4641 -0.8395
  116MOL   H20444134   0.465   0.535   0.871  0.5275  0.2503  0.6566
  116MOL   H20544135   0.581   0.727   0.822  0.1218  0.1964 -0.4381
  116MOL   H20644136   0.730   0.648   0.786  1.8162  1.3244  2.1758
  116MOL   H20744137   0.687   0.786   1.010  1.8776  0.6190 -2.4608
  116MOL   H20844138   0.821   0.676   0.985  0.2806  0.5152  1.2743
  116MOL   H20944139   0.846   0.669   1.348  0.0052 -2.4584  1.2904
  116MOL   H21044140   0.722   0.745   1.264  1.1837  1.4264  2.1293
  116MOL   C21144141   0.634   0.628   1.428  0.4798 -0.2289  0.5805
  116MOL   C21244142   0.671   0.719   1.547  0.2462 -0.3277  0.2938
  116MOL   C21344143   0.812   0.709   1.609  0.5381 -0.1054  0.4466
  116MOL   C21444144   0.870   0.855   1.622  0.1597  0.7696 -0.7873
  116MOL   C21544145   0.745   0.942   1.617  0.3670  0.0178  0.1037
  116MOL   C21644146   0.649   0.870   1.517 -0.3441 -0.1024 -0.2631
  116MOL   C21744147   0.491   0.644   1.381  0.0030 -0.3327  0.1481
  116MOL   H21844148   0.644   0.525   1.463 -0.0193 -1.0359 -1.5809
  116MOL   H21944149   0.612   0.688   1.633  1.4093  1.3876  1.7499
  116MOL   H22044150   0.811   0.667   1.710 -0.4162 -0.8385  0.1433
  116MOL   H22144151   0.878   0.644   1.551 -0.2857  1.1433 -1.9482
  116MOL   H22244152   0.912   0.857   1.722  0.3639 -0.7648 -0.8257
  116MOL   H22344153   0.934   0.886   1.540  2.5061  1.3595  1.2190
  116MOL   H22444154   0.759   1.047   1.591 -0.2066  0.2450  0.6935
  116MOL   H22544155   0.699   0.949   1.716 -2.1424 -1.8417 -0.8897
  116MOL   H22644156   0.547   0.908   1.523 -1.4665 -3.3055  2.1914
  116MOL   H22744157   0.688   0.902   1.421 -1.0562  2.6110  0.3001
  116MOL   H22844158   0.477   0.575   1.298 -1.4044 -0.5267  0.5175
  116MOL   H22944159   0.483   0.743   1.338 -0.5546 -0.5183 -0.1768
  116MOL   C23044160   0.382   0.629   1.486 -0.6292 -0.5149 -0.4723
  116MOL   C23144161   0.382   0.482   1.547 -0.6143  0.1535 -0.5158
  116MOL   C23244162   0.284   0.468   1.666 -0.0963 -0.3371  0.3550
  116MOL   C23344163   0.256   0.321   1.674 -0.3205  0.0342  0.0927
  116MOL   C23444164   0.301   0.256   1.547  0.0805 -0.3259 -0.2580
  116MOL   C23544165   0.340   0.367   1.452 -0.0188 -0.5281 -0.4335
  116MOL   C23644166   0.247   0.675   1.421 -0.3758  0.0858 -0.2309
  116MOL   H23744167   0.408   0.699   1.566  0.5254 -0.7940 -0.5872
  116MOL   H23844168   0.476   0.456   1.595 -0.3308 -1.4330 -1.8718
  116MOL   H23944169   0.333   0.502   1.758 -0.1010 -2.4365  1.1611
  116MOL   H24044170   0.191   0.523   1.655  1.0113  1.1374 -2.1303
  116MOL   H24144171   0.298   0.274   1.763 -0.1518  1.9246  1.0332
  116MOL   H24244172   0.148   0.307   1.685 -0.7069  1.7593 -1.2290
  116MOL   H24344173   0.214   0.211   1.500 -2.0614  1.8266  1.5448
  116MOL   H24444174   0.378   0.179   1.559  2.2677  2.1413  2.1606
  116MOL   H24544175   0.253   0.402   1.397  0.5007 -0.7873 -1.4382
  116MOL   H24644176   0.409   0.335   1.374 -0.3714 -1.3874 -0.3993
  116MOL   H24744177   0.170   0.612   1.466 -0.6385  0.8531  0.3997
  116MOL   H24844178   0.243   0.650   1.315 -3.0974  1.2423 -0.4398
  116MOL   C24944179   0.213   0.827   1.449 -0.2438 -0.4880 -0.6278
  116MOL   C25044180   0.115   0.821   1.569  0.5094 -0.4012 -0.0878
  116MOL   C25144181   7.669   0.768   1.539  0.0111  0.1294  0.5625
  116MOL   C25244182   7.571   0.891   1.546  0.2419 -0.0666  0.2263
  116MOL   C25344183   7.635   0.968   1.663 -0.2101  0.5050  0.5119
  116MOL   C25444184   0.094   0.954   1.652 -0.5471  0.1067 -0.1389
  116MOL   C25544185   0.159   0.903   1.324 -0.6776 -0.3149  0.9364
  116MOL   H25644186   0.305   0.874   1.485 -1.2915  0.8772  0.3154
  116MOL   H25744187   0.157   0.759   1.649  1.8037  0.6758  0.0706
  116MOL   H25844188   7.645   0.695   1.616  0.8653  0.5848  1.2789
  116MOL   H25944189   7.672   0.719   1.442 -1.2018 -1.5744  1.3585
  116MOL   H26044190   7.465   0.880   1.566  0.8851  0.6681  4.4558
  116MOL   H26144191   7.584   0.954   1.458 -1.0135 -1.0770 -0.7043
  116MOL   H26244192   7.601   0.923   1.756  1.1276 -1.3134  0.1610
  116MOL   H26344193   7.603   1.072   1.661 -0.3252  0.4937 -3.4787
  116MOL   H26444194   0.150   0.958   1.746 -0.9328  0.2905  0.0826
  116MOL   H26544195   0.128   1.042   1.598 -1.2092 -0.4087 -1.4255
  116MOL   H26644196   0.060   0.870   1.293 -0.0905 -1.4799  0.2700
  116MOL   H26744197   0.149   1.001   1.370 -3.0459 -0.1816  0.2341
  116MOL   C26844198   0.255   0.915   1.207 -0.2477 -0.2473 -0.0255
  116MOL   C26944199   0.387   0.994   1.242 -0.2561  0.0472  0.7090
  116MOL   C27044200   0.371   1.143   1.290 -0.2054  0.4298  0.2801
  116MOL   C27144201   0.492   1.219   1.238 -0.4283  0.8882  0.2577
  116MOL   C27244202   0.536   1.147   1.113  0.1800  0.6742 -0.5273
  116MOL   C27344203   0.492   1.002   1.133 -0.4231  0.1127 -0.4950
  116MOL   C27444204   0.185   0.974   1.085  0.1574 -0.2294  0.3762
  116MOL   H27544205   0.284   0.815   1.175 -1.9257 -0.5004 -0.8312
  116MOL   H27644206   0.443   0.957   1.328  1.7727 -0.3473 -0.7406
  116MOL   H27744207   0.276   1.181   1.253  0.7016  1.1212 -1.3523
  116MOL   H27844208   0.361   1.142   1.399 -0.4328 -0.7632  0.2561
  116MOL   H27944209   0.469   1.325   1.223 -1.0178  0.3406 -3.0120
  116MOL   H28044210   0.573   1.218   1.311  0.8086  0.0547 -1.1133
  116MOL   H28144211   0.643   1.165   1.105  0.0994  1.8894  0.8633
  116MOL   H28244212   0.485   1.187   1.025 -0.6037 -1.6165 -1.1397
  116MOL   H28344213   0.576   0.933   1.146 -1.2711 -1.1431 -1.5687
  116MOL   H28444214   0.447   0.973   1.038 -0.9706  2.1605 -0.8737
  116MOL   H28544215   0.254   0.999   1.005 -2.0565  0.3899 -1.3942
  116MOL   H28644216   0.160   1.075   1.118  1.2802 -0.5929  2.4284
  116MOL   C28744217   0.056   0.910   1.029  0.3019 -0.0500 -0.5564
  116MOL   C28844218   7.688   0.990   0.907  0.0121  0.0659 -0.9212
  116MOL   C28944219   7.673   1.137   0.925 -0.6283  0.2433  0.2135
  116MOL   C29044220   7.652   1.190   0.785 -0.1765  0.0455  0.1053
  116MOL   C29144221   0.055   1.108   0.697  0.0684  0.1135 -0.1225
  116MOL   C29244222   0.084   0.981   0.780  0.0078 -0.2024 -0.3647
  116MOL   C29344223   0.086   0.765   0.979 -0.4047 -0.3972  0.9853
  116MOL   H29444224   7.665   0.919   1.102  2.1397 -0.9740  1.6666
  116MOL   H29544225   7.588   0.949   0.893  0.4996 -2.4316  2.4298
  116MOL   H29644226   7.593   1.160   0.995 -0.6000 -0.1082  0.3640
  116MOL   H29744227   0.072   1.182   0.968 -0.1179  0.3484 -0.9395
  116MOL   H29844228   7.552   1.166   0.750  0.5829 -1.6322 -0.9626
  116MOL   H29944229   7.684   1.294   0.782  0.1863 -0.0595  0.2594
  116MOL   H30044230   0.145   1.163   0.668  0.4122 -0.9424 -1.1168
  116MOL   H30144231   0.011   1.072   0.604 -0.6975 -1.2688  0.7667
  116MOL   H30244232   0.189   0.971   0.809 -0.0646 -0.3109 -0.1369
  116MOL   H30344233   0.062   0.894   0.719  0.2186 -1.0309  0.7131
  116MOL   H30444234   0.115   0.709   1.068  2.1851 -0.4175  0.1703
  116MOL   H30544235   0.175   0.767   0.915 -1.3919  0.6239 -0.3824
  116MOL   C30644236   7.660   0.687   0.911 -0.7531 -1.2096 -0.3441
  116MOL   C30744237   0.014   0.543   0.861 -0.3947 -0.6190 -0.3046
  116MOL   C30844238   0.118   0.546   0.745 -0.5952 -0.0944  0.5584
  116MOL   C30944239   0.213   0.429   0.768  0.5750  0.5207 -0.1554
  116MOL   C31044240   0.218   0.419   0.924 -0.3892 -0.3995 -0.3942
  116MOL   C31144241   0.079   0.451   0.971 -0.5851  0.1691 -0.0882
  116MOL   C31244242   7.540   0.680   1.003  0.0843 -0.4985  0.3740
  116MOL   H31344243   7.633   0.747   0.824 -2.7874 -2.1242 -0.3876
  116MOL   H31444244   7.625   0.491   0.806  1.0816 -0.2530 -2.8256
  116MOL   H31544245   0.169   0.642   0.743 -0.1772 -0.2837  1.6962
  116MOL   H31644246   0.058   0.545   0.653  0.5873 -0.4065 -0.2191
  116MOL   H31744247   0.161   0.340   0.735 -1.0822  0.5604  2.2293
  116MOL   H31844248   0.307   0.439   0.713  1.8224  0.7325  1.9581
  116MOL   H31944249   0.281   0.490   0.978  0.5803 -1.3162 -0.3128
  116MOL   H32044250   0.244   0.316   0.947 -1.3557 -0.9619 -1.7655
  116MOL   H32144251   0.021   0.359   0.965  2.2085 -1.6104 -1.3490
  116MOL   H32244252   0.076   0.496   1.070  2.8186 -0.4227  0.3527
  116MOL   H32344253   7.509   0.784   1.020  3.2050  0.3702  1.1195
  116MOL   H32444254   7.584   0.649   1.098  2.5651 -0.8155 -0.8314
  116MOL   C32544255   7.419   0.592   0.965 -0.5610 -0.4513  0.4811
  116MOL   C32644256   7.303   0.674   0.906  0.2208 -0.3034 -0.1762
  116MOL   C32744257   7.207   0.598   0.812  0.8568 -0.1082  0.1548
  116MOL   C32844258   7.127   0.697   0.733  0.8411 -0.3045  0.0227
  116MOL   C32944259   7.225   0.812   0.717 -0.2679 -0.1453  0.4607
  116MOL   C33044260   7.346   0.775   0.801 -0.3398  0.2766  0.2210
  116MOL   C33144261   7.368   0.505   1.083  0.0583  0.3540  0.2238
  116MOL   H33244262   7.433   0.535   0.873 -0.4647  0.9506 -0.3935
  116MOL   H33344263   7.238   0.724   0.978 -0.3014 -1.9712  0.5411
  116MOL   H33444264   7.148   0.531   0.876 -1.2245  1.3367 -0.1866
  116MOL   H33544265   7.271   0.532   0.754  1.1340 -1.0290  1.4810
  116MOL   H33644266   7.043   0.741   0.786 -1.2042 -2.3350 -1.4448
  116MOL   H33744267   7.086   0.659   0.640 -1.6908  1.6526  0.2755
  116MOL   H33844268   7.199   0.914   0.748 -0.3340  0.7214 -2.2930
  116MOL   H33944269   7.239   0.815   0.609 -2.2406 -1.0777  0.1681
  116MOL   H34044270   7.375   0.870   0.846 -1.5650  0.8585 -0.2041
  116MOL   H34144271   7.438   0.753   0.746 -0.6096 -3.5471  1.1028
  116MOL   H34244272   7.261   0.488   1.070  0.3760 -0.1335 -1.9343
  116MOL   H34344273   7.381   0.561   1.175  0.6430 -0.1764  0.4672
  116MOL   C34444274   7.441   0.366   1.106  0.0017  0.4939  0.0811
  116MOL   C34544275   7.397   0.269   0.990  0.0506  0.1697  0.7954
  116MOL   C34644276   7.245   0.230   0.975 -0.2716  0.3498 -0.3018
  116MOL   C34744277   7.242   0.099   0.894 -1.0470  0.1202 -0.4219
  116MOL   C34844278   7.375   0.037   0.910 -0.0073  0.4028  0.5505
  116MOL   C34944279   7.466   0.131   0.983 -0.4105 -0.2532 -0.3470
  116MOL   C35044280   7.398   0.305   1.243  0.0740  0.4765 -0.1372
  116MOL   H35144281   7.548   0.382   1.108  0.1415  0.4178 -3.2755
  116MOL   H35244282   7.435   0.318   0.900  0.8883 -0.4775  0.7906
  116MOL   H35344283   7.183   0.308   0.929  0.6234  0.4495 -1.3608
  116MOL   H35444284   7.191   0.205   1.066  0.1881  0.9065  0.1306
  116MOL   H35544285   7.155   0.036   0.911 -1.1715  0.5155  0.4180
  116MOL   H35644286   7.230   0.121   0.787  2.5698 -1.4162 -1.2133
  116MOL   H35744287   7.413   0.015   0.811  0.2169  2.0252  0.2594
  116MOL   H35844288   7.355   7.631   0.960 -0.8864  0.2607 -0.0643
  116MOL   H35944289   7.490   0.091   1.081 -1.0475  1.8541  0.6913
  116MOL   H36044290   7.564   0.132   0.935 -0.6334 -2.2473 -0.8909
  116MOL   H36144291   7.455   0.213   1.257  2.1388  1.7114 -0.2313
  116MOL   H36244292   7.292   0.285   1.255  0.5857 -2.3206  0.0138
  116MOL   C36344293   7.452   0.371   1.375 -0.1867 -0.3015 -0.8463
  116MOL   C36444294   7.414   0.281   1.505 -0.5119  0.1343  0.4345
  116MOL   C36544295   7.282   0.202   1.505 -0.0151 -0.0272  0.8784
  116MOL   C36644296   7.256   0.159   1.648 -0.1325 -0.2163 -0.7691
  116MOL   C36744297   7.344   0.249   1.740  0.8217 -0.2353  0.1014
  116MOL   C36844298   7.411   0.345   1.642 -0.9318 -0.8812  0.0549
  116MOL   C36944299   7.607   0.385   1.375 -0.2419 -0.4985  0.0158
  116MOL   H37044300   7.391   0.461   1.383 -1.8188 -1.2876 -1.9641
  116MOL   H37144301   7.490   0.205   1.522 -0.2760  0.4473  0.7848
  116MOL   H37244302   7.202   0.266   1.468  1.5027  1.8677  0.7797
  116MOL   H37344303   7.281   0.129   1.425  2.1310  0.6351  0.2108
  116MOL   H37444304   7.153   0.182   1.675  0.1230 -0.2808  0.2817
  116MOL   H37544305   7.271   0.052   1.655 -1.4423 -0.3705 -0.0969
  116MOL   H37644306   7.285   0.313   1.805 -0.1677 -1.7572  0.7403
  116MOL   H37744307   7.428   0.204   1.793 -0.4627 -2.5451  0.2530
  116MOL   H37844308   7.507   0.383   1.677 -0.8440 -1.0688  0.0135
  116MOL   H37944309   7.338   0.425   1.626 -0.7959 -0.8303 -0.3079
  116MOL   H38044310   7.661   0.424   1.288  0.3683 -1.1211  0.1103
  116MOL   H38144311   7.651   0.285   1.380 -0.8170 -1.0317 -3.6796
  116MOL   H38244312   7.640   0.444   1.460 -0.4427  2.0041 -1.5779
  117MOL     C144313   0.806   3.332   6.254 -0.1544  0.6526  0.4211
  117MOL     C244314   0.691   3.248   6.305  0.6330 -0.3150 -0.4245
  117MOL     C344315   0.562   3.319   6.348  0.0275 -0.3994 -0.6400
  117MOL     C444316   0.505   3.226   6.455  0.8565 -0.5667 -0.1494
  117MOL     C544317   0.632   3.173   6.530  0.0796  0.1919  0.5235
  117MOL     C644318   0.732   3.154   6.416  0.8589  0.5749  0.0591
  117MOL     C744319   0.889   3.408   6.355  0.1338  0.2313 -0.0094
  117MOL     H844320   0.871   3.269   6.193  0.0820  0.2944  1.0375
  117MOL     H944321   0.664   3.179   6.225 -0.2453 -0.4107 -0.0472
  117MOL    H1044322   0.568   3.424   6.378 -0.8946  0.0248 -1.9023
  117MOL    H1144323   0.492   3.316   6.265  0.3610 -0.0653 -0.9322
  117MOL    H1244324   0.439   3.269   6.530  1.0234  1.8259 -1.3080
  117MOL    H1344325   0.462   3.139   6.406 -1.7217 -0.7667  2.3438
  117MOL    H1444326   0.680   3.243   6.598  0.7353 -1.0072  1.3211
  117MOL    H1544327   0.615   3.079   6.583 -0.8946 -0.0201 -0.1418
  117MOL    H1644328   0.723   3.055   6.371 -1.5043 -1.1811  4.1608
  117MOL    H1744329   0.835   3.168   6.450  0.9581 -0.5399  0.2318
  117MOL    H1844330   0.820   3.445   6.431  0.7115  2.9323 -0.7489
  117MOL    H1944331   0.965   3.347   6.404  0.0243  0.3267  0.2824
  117MOL    H2044332   0.769   3.409   6.186  0.4982  1.6762  1.2109
  117MOL    C2144333   0.971   3.523   6.292  0.2291  0.3040  0.0394
  117MOL    C2244334   1.017   3.628   6.391  0.3493 -0.0605 -0.4606
  117MOL    C2344335   1.085   3.580   6.519 -0.3850 -0.0387  0.4314
  117MOL    C2444336   1.037   3.673   6.633 -0.4873  0.1811 -0.2167
  117MOL    C2544337   0.963   3.790   6.571 -0.4292 -0.0442  0.1918
  117MOL    C2644338   0.908   3.719   6.445  0.1153 -0.2144 -0.0345
  117MOL    C2744339   1.091   3.466   6.203  0.6353  0.8910 -0.2980
  117MOL    H2844340   0.909   3.579   6.221  2.6596  0.2410 -2.2293
  117MOL    H2944341   1.086   3.690   6.335  0.5578 -1.1383 -1.4055
  117MOL    H3044342   1.192   3.579   6.500 -0.1338  0.8540  1.7280
  117MOL    H3144343   1.056   3.476   6.535  1.3680 -0.9456 -2.0605
  117MOL    H3244344   0.972   3.611   6.695  0.1891  0.2842  0.6041
  117MOL    H3344345   1.111   3.711   6.704 -0.4970  1.1678 -0.7201
  117MOL    H3444346   1.034   3.872   6.559 -0.4730  0.1721  1.3879
  117MOL    H3544347   0.883   3.818   6.639  0.3381 -0.9446  1.5023
  117MOL    H3644348   0.870   3.794   6.376 -1.0400 -1.0935 -0.3635
  117MOL    H3744349   0.827   3.652   6.476 -0.7011  0.3326 -0.9616
  117MOL    H3844350   1.160   3.418   6.273  2.0406 -0.5918 -2.6176
  117MOL    H3944351   1.044   3.387   6.144  1.5992  0.0764 -0.0030
  117MOL    C4044352   1.170   3.553   6.104 -1.2305  0.1280  0.3668
  117MOL    C4144353   1.281   3.484   6.034  0.0249 -0.0201  0.3663
  117MOL    C4244354   1.383   3.413   6.121 -0.1785 -0.1429  0.1161
  117MOL    C4344355   1.503   3.382   6.034  0.1723 -0.5893  0.3684
  117MOL    C4444356   1.521   3.504   5.942  0.4140 -0.2109  0.4258
  117MOL    C4544357   1.380   3.577   5.946 -0.5094  0.0921 -0.1766
  117MOL    C4644358   1.074   3.604   5.992 -0.1865 -0.0778 -0.1153
  117MOL    H4744359   1.222   3.634   6.155 -1.7285  1.1283 -0.6836
  117MOL    H4844360   1.245   3.405   5.967 -1.9419  0.9121  0.2933
  117MOL    H4944361   1.331   3.323   6.154 -0.1178 -0.1144  0.2881
  117MOL    H5044362   1.404   3.475   6.208  2.5791 -2.4579  1.2129
  117MOL    H5144363   1.463   3.307   5.966  0.7071 -2.4970  2.1117
  117MOL    H5244364   1.592   3.356   6.091 -1.0251  1.3427  3.2381
  117MOL    H5344365   1.584   3.580   5.988 -0.1165  0.4715  0.0311
  117MOL    H5444366   1.552   3.483   5.840 -1.0690 -0.9915  0.1193
  117MOL    H5544367   1.396   3.672   5.997 -2.5384 -0.7528  2.1257
  117MOL    H5644368   1.338   3.592   5.846 -2.5323  1.9232  0.8776
  117MOL    H5744369   1.114   3.600   5.891  1.2867  1.6175  0.3681
  117MOL    H5844370   0.997   3.528   5.988  0.6933 -1.0801  1.6884
  117MOL    C5944371   1.020   3.747   6.012 -0.4509 -0.2922  0.5050
  117MOL    C6044372   1.118   3.862   5.998 -0.7572 -0.0567 -0.5391
  117MOL    C6144373   1.081   4.004   6.061 -0.0602  0.1024  0.5859
  117MOL    C6244374   1.150   4.109   5.965  0.2381  0.6996 -0.0573
  117MOL    C6344375   1.250   4.030   5.886 -0.3995  0.3573  0.0896
  117MOL    C6444376   1.189   3.893   5.865 -0.2517 -0.2899 -0.3827
  117MOL    C6544377   0.897   3.782   5.926  0.2707  0.7231  0.1807
  117MOL    H6644378   0.974   3.752   6.111 -1.1288  1.7123  0.1153
  117MOL    H6744379   1.207   3.831   6.052 -0.0641  1.6170 -0.6981
  117MOL    H6844380   1.123   4.014   6.161  0.0714 -1.4977  0.7027
  117MOL    H6944381   0.979   4.014   6.096  0.5792  0.2140  2.4741
  117MOL    H7044382   1.200   4.179   6.032  1.3365  0.9636 -1.1347
  117MOL    H7144383   1.077   4.163   5.904  1.2608  1.3941 -0.6893
  117MOL    H7244384   1.339   4.034   5.949 -0.8323 -0.6939  0.7751
  117MOL    H7344385   1.269   4.070   5.787 -0.8594 -1.4652 -0.7525
  117MOL    H7444386   1.109   3.902   5.792 -1.3983 -2.0306  0.6351
  117MOL    H7544387   1.266   3.824   5.832 -0.0685  0.1312 -0.8431
  117MOL    H7644388   0.934   3.750   5.828  0.1094 -0.5631  0.5305
  117MOL    H7744389   0.888   3.890   5.931  1.1487  0.6855  3.5269
  117MOL    C7844390   0.761   3.719   5.964  0.0123  0.0417 -0.2530
  117MOL    C7944391   0.713   3.773   6.102 -0.3051  0.0117 -0.3803
  117MOL    C8044392   0.597   3.690   6.163  0.7153 -1.0273 -0.4765
  117MOL    C8144393   0.525   3.799   6.241 -0.4684  0.1106 -0.1690
  117MOL    C8244394   0.521   3.929   6.155 -0.0962  0.1524 -0.2075
  117MOL    C8344395   0.669   3.919   6.103 -0.1884 -0.4006 -0.6023
  117MOL    C8444396   0.668   3.743   5.841 -0.0523  0.2566  0.8113
  117MOL    H8544397   0.776   3.611   5.974  1.6510  0.1304 -1.5098
  117MOL    H8644398   0.784   3.756   6.183  1.0279  0.7002 -1.4017
  117MOL    H8744399   0.626   3.600   6.217 -0.4384 -1.4163 -0.4815
  117MOL    H8844400   0.536   3.659   6.077 -0.9445 -2.1960  1.0818
  117MOL    H8944401   0.574   3.813   6.337 -2.6605 -0.4907  1.0847
  117MOL    H9044402   0.429   3.756   6.272 -1.5748  1.8932 -1.0450
  117MOL    H9144403   0.454   3.896   6.075 -0.0453  1.9581 -0.9970
  117MOL    H9244404   0.486   4.014   6.213 -0.4194  1.0546 -1.7076
  117MOL    H9344405   0.674   3.956   6.001  0.1211  0.1079 -0.4101
  117MOL    H9444406   0.726   3.995   6.157 -0.4748  0.2004 -1.1450
  117MOL    H9544407   0.684   3.848   5.815 -0.4496  0.9370  3.2327
  117MOL    H9644408   0.564   3.726   5.871 -0.9727 -0.6042 -2.6619
  117MOL    C9744409   0.703   3.653   5.714 -0.1060  0.0416 -0.1439
  117MOL    C9844410   0.671   3.724   5.567 -0.5923  0.0474 -0.0302
  117MOL    C9944411   0.536   3.804   5.559  0.2124 -0.2362  1.3109
  117MOL   C10044412   0.552   3.918   5.455  0.1384  0.2232  0.5084
  117MOL   C10144413   0.703   3.924   5.426 -0.5135 -0.0357  0.1081
  117MOL   C10244414   0.774   3.834   5.531  0.1691 -0.1225  1.8021
  117MOL   C10344415   0.632   3.519   5.730 -0.3681 -0.0107  0.0147
  117MOL   H10444416   0.810   3.633   5.709  0.3004  2.6065 -3.5637
  117MOL   H10544417   0.675   3.660   5.479 -0.3600  0.4430 -0.3096
  117MOL   H10644418   0.442   3.750   5.547  0.2370  0.0829 -0.3989
  117MOL   H10744419   0.519   3.847   5.658 -0.7676  1.0525  0.5971
  117MOL   H10844420   0.506   4.010   5.490  0.0093 -0.0943  1.1736
  117MOL   H10944421   0.496   3.895   5.364 -0.2164 -0.3375  0.8700
  117MOL   H11044422   0.735   4.028   5.425 -2.6733  0.7139  2.5804
  117MOL   H11144423   0.730   3.880   5.330 -0.8313 -2.8259  1.2289
  117MOL   H11244424   0.869   3.806   5.485 -1.7333 -3.2941 -0.4044
  117MOL   H11344425   0.779   3.889   5.625 -2.2532  0.4885  1.6039
  117MOL   H11444426   0.653   3.475   5.828  0.7325  1.0481  0.2715
  117MOL   H11544427   0.526   3.543   5.745  0.1114  0.5062  3.0940
  117MOL   C11644428   0.660   3.415   5.620  0.2654 -0.0091  0.6610
  117MOL   C11744429   0.815   3.391   5.587 -0.9080  0.0737  1.1286
  117MOL   C11844430   0.906   3.328   5.695  0.1803  0.0635 -1.0319
  117MOL   C11944431   0.932   3.190   5.640  0.0663  0.4249  0.1073
  117MOL   C12044432   0.953   3.207   5.491 -0.2215 -0.0715 -0.7313
  117MOL   C12144433   0.849   3.310   5.456  1.2272 -0.7843  0.2987
  117MOL   C12244434   0.585   3.285   5.655 -0.3566 -0.1928  0.0866
  117MOL   H12344435   0.605   3.456   5.536 -2.4899  0.6394  2.7073
  117MOL   H12444436   0.854   3.492   5.570 -1.0017 -0.3329 -1.7240
  117MOL   H12544437   0.994   3.392   5.697  0.7611 -0.7439 -0.6010
  117MOL   H12644438   0.865   3.316   5.795  0.2121  0.8724 -0.9220
  117MOL   H12744439   0.846   3.127   5.663 -0.6241  1.5779  0.7506
  117MOL   H12844440   1.017   3.145   5.690 -1.9904 -1.6390  1.8756
  117MOL   H12944441   0.929   3.114   5.440  0.3502 -0.1020 -0.9455
  117MOL   H13044442   1.058   3.229   5.472  0.2412 -1.7570 -0.2286
  117MOL   H13144443   0.885   3.388   5.389 -0.8452  1.0483  1.2638
  117MOL   H13244444   0.752   3.276   5.420  0.1098  1.8760  0.6870
  117MOL   H13344445   0.641   3.239   5.737  0.6772  1.1145  0.1360
  117MOL   H13444446   0.604   3.203   5.585  0.5805  0.5997 -0.6013
  117MOL   C13544447   0.429   3.283   5.673 -0.4710  0.6917 -0.2253
  117MOL   C13644448   0.396   3.162   5.777 -0.0368 -0.5167  0.1298
  117MOL   C13744449   0.243   3.157   5.815 -0.0520 -0.2577 -0.4469
  117MOL   C13844450   0.236   3.093   5.949 -0.1515  0.6925 -0.6687
  117MOL   C13944451   0.375   3.077   6.003 -0.2266 -0.3129  0.0985
  117MOL   C14044452   0.457   3.174   5.921  0.2045 -0.1170  0.0291
  117MOL   C14144453   0.370   3.255   5.531 -0.4266  0.4153 -0.2954
  117MOL   H14244454   0.382   3.371   5.716 -2.7350 -0.2770 -0.6219
  117MOL   H14344455   0.430   3.070   5.730 -0.5546  0.3556 -2.0190
  117MOL   H14444456   0.212   3.261   5.821  0.7997 -0.0460  0.4519
  117MOL   H14544457   0.185   3.101   5.741 -0.1524  0.7878 -1.1598
  117MOL   H14644458   0.188   2.997   5.929 -0.2565  0.8783 -1.3160
  117MOL   H14744459   0.176   3.137   6.028  0.4215  0.1835  0.0524
  117MOL   H14844460   0.413   2.976   6.011  3.4071  1.0916  1.8157
  117MOL   H14944461   0.388   3.111   6.106 -0.0909 -0.2183  0.0502
  117MOL   H15044462   0.429   3.277   5.946 -0.9640 -0.3137 -0.4496
  117MOL   H15144463   0.562   3.156   5.940  0.4255  0.5573 -0.5550
  117MOL   H15244464   0.382   3.146   5.524  1.5263  0.5015  1.2359
  117MOL   H15344465   0.434   3.310   5.462  2.1379 -0.1127  1.5553
  117MOL   C15444466   0.222   3.296   5.506  0.0072  0.1044  0.9547
  117MOL   C15544467   0.208   3.450   5.502 -0.3775 -0.4308  0.0198
  117MOL   C15644468   0.066   3.501   5.506 -0.3518  0.2891 -0.1100
  117MOL   C15744469   0.086   3.653   5.477  0.0236  0.3182 -0.1637
  117MOL   C15844470   0.201   3.658   5.377  0.3661 -0.2889  0.5654
  117MOL   C15944471   0.274   3.523   5.389 -0.9435 -1.2368  0.3886
  117MOL   C16044472   0.177   3.235   5.369  0.1629  0.3937 -0.4912
  117MOL   H16144473   0.152   3.261   5.583 -0.6430  0.3653  0.4876
  117MOL   H16244474   0.245   3.489   5.596 -0.7898 -0.0979  0.0443
  117MOL   H16344475   7.681   3.467   5.434  0.4901  0.9549 -1.3238
  117MOL   H16444476   0.019   3.482   5.602 -1.0719 -1.3883 -0.7672
  117MOL   H16544477   7.685   3.706   5.448  0.8933  0.7265 -2.2805
  117MOL   H16644478   0.125   3.697   5.568  2.3024 -0.8204 -0.5387
  117MOL   H16744479   0.267   3.745   5.384 -1.0722  1.0806 -2.1315
  117MOL   H16844480   0.154   3.666   5.279 -1.1881 -0.3439  1.2803
  117MOL   H16944481   0.380   3.538   5.411 -0.6352  0.7401 -2.2649
  117MOL   H17044482   0.268   3.475   5.291  0.7861  0.0459 -0.3648
  117MOL   H17144483   0.257   3.262   5.300  0.4341  1.8945  0.3909
  117MOL   H17244484   0.093   3.294   5.333 -1.6957 -1.3902  0.8177
  117MOL   C17344485   0.146   3.087   5.364 -0.3064  0.0951 -0.3576
  117MOL   C17444486   0.153   3.023   5.226  1.0744  0.1016  0.0495
  117MOL   C17544487   0.301   3.001   5.165 -0.2601 -0.1037  0.4472
  117MOL   C17644488   0.279   2.988   5.014 -0.1730 -0.2390 -0.0522
  117MOL   C17744489   0.133   3.021   4.986  0.0545 -0.4289  0.0137
  117MOL   C17844490   0.075   3.086   5.105  0.7149  1.0401 -0.0643
  117MOL   C17944491   0.011   3.061   5.443 -0.7543 -0.4038  0.4178
  117MOL   H18044492   0.229   3.041   5.417  0.8952  1.1619 -1.2810
  117MOL   H18144493   0.114   2.923   5.249  1.0122  0.0471 -0.2948
  117MOL   H18244494   0.349   2.912   5.205  0.8029  1.1169  1.9136
  117MOL   H18344495   0.363   3.085   5.195 -0.6340  0.5197 -0.4888
  117MOL   H18444496   0.332   3.066   4.960  1.1884 -1.1913 -0.1331
  117MOL   H18544497   0.316   2.897   4.967  2.0292  1.4466 -1.7153
  117MOL   H18644498   0.081   2.929   4.959  2.2517 -1.4997 -0.7302
  117MOL   H18744499   0.127   3.074   4.891  1.0706 -1.4564 -0.6417
  117MOL   H18844500   0.109   3.189   5.103 -1.0180  1.6667  1.2801
  117MOL   H18944501   7.656   3.081   5.114  0.9218 -3.2614  1.6210
  117MOL   H19044502   0.008   3.105   5.542  0.6058  0.5180  0.0611
  117MOL   H19144503   7.629   3.115   5.381 -0.8277 -0.2587  0.6281
  117MOL   C19244504   7.652   2.915   5.469  0.1978 -0.2641  0.0283
  117MOL   C19344505   7.504   2.915   5.525 -0.4170  0.1298 -0.3219
  117MOL   C19444506   7.430   2.783   5.518 -0.0342  0.7374  0.6670
  117MOL   C19544507   7.282   2.820   5.552 -0.3217 -0.1818  0.1745
  117MOL   C19644508   7.263   2.969   5.504 -0.3216 -0.0546 -0.3667
  117MOL   C19744509   7.408   3.013   5.454  0.3783  0.5278 -0.2506
  117MOL   C19844510   0.050   2.830   5.569 -0.5241 -0.3291  0.1162
  117MOL   H19944511   7.660   2.863   5.374  0.7594  0.2015 -0.1813
  117MOL   H20044512   7.504   2.947   5.629  1.3003 -0.9200  0.0279
  117MOL   H20144513   7.451   2.715   5.600 -2.0364 -1.1823 -0.3674
  117MOL   H20244514   7.440   2.739   5.419 -2.9544 -1.0855  1.1203
  117MOL   H20344515   7.219   2.745   5.505  0.5511  0.0852 -1.4218
  117MOL   H20444516   7.261   2.830   5.659  2.8136  2.0132  0.6536
  117MOL   H20544517   7.237   3.026   5.593  0.0178 -1.6019  0.7613
  117MOL   H20644518   7.187   2.966   5.426 -0.5857 -1.8146 -0.0654
  117MOL   H20744519   7.436   3.118   5.460 -0.6577  0.7474  0.8483
  117MOL   H20844520   7.417   2.987   5.348  0.9246 -0.8175  0.1151
  117MOL   H20944521   0.068   2.893   5.657 -1.5557 -0.3350  0.3341
  117MOL   H21044522   7.673   2.750   5.600 -0.3473  0.0063  1.3953
  117MOL   C21144523   0.184   2.765   5.517 -0.7901  0.2464 -0.3515
  117MOL   C21244524   0.300   2.820   5.602  0.0489 -0.2233  0.2097
  117MOL   C21344525   0.324   2.761   5.741 -0.3172 -0.2922  0.1491
  117MOL   C21444526   0.476   2.783   5.774 -0.3896  0.3334  0.1995
  117MOL   C21544527   0.540   2.829   5.637  0.5896 -0.4269  0.1713
  117MOL   C21644528   0.435   2.800   5.529  0.1423 -0.0296 -0.1814
  117MOL   C21744529   0.169   2.608   5.516  0.3770  0.7064  0.3103
  117MOL   H21844530   0.220   2.805   5.423 -0.5614 -0.3199 -0.5090
  117MOL   H21944531   0.305   2.927   5.617  0.2202 -0.1654 -0.2609
  117MOL   H22044532   0.272   2.816   5.819 -2.6134  0.6562 -1.9727
  117MOL   H22144533   0.297   2.656   5.748  1.2647 -0.6905  0.5767
  117MOL   H22244534   0.501   2.858   5.849  1.8484  0.7437 -0.8904
  117MOL   H22344535   0.524   2.693   5.810 -0.0077  1.6215  3.0506
  117MOL   H22444536   0.634   2.776   5.622  0.3837 -1.2561  1.6941
  117MOL   H22544537   0.574   2.932   5.638 -2.4433  0.6402 -1.0061
  117MOL   H22644538   0.447   2.859   5.438 -2.4410  0.0759 -0.5016
  117MOL   H22744539   0.442   2.699   5.490  0.6893 -0.1714  0.2777
  117MOL   H22844540   0.126   2.557   5.602  0.0894  1.3110  0.5253
  117MOL   H22944541   0.274   2.578   5.520  0.1855  0.0249  0.3999
  117MOL   C23044542   0.085   2.552   5.394  0.2882  0.0026  0.5468
  117MOL   C23144543   7.636   2.507   5.440  0.0384 -0.3184  0.9412
  117MOL   C23244544   7.537   2.496   5.326  0.1001  0.0225  0.6409
  117MOL   C23344545   7.419   2.416   5.385 -0.3341  0.1338  0.2273
  117MOL   C23444546   7.474   2.336   5.502 -0.1875  0.0065 -0.2833
  117MOL   C23544547   7.625   2.368   5.508  0.1678  0.7885 -0.7905
  117MOL   C23644548   0.170   2.441   5.334  0.8878 -0.0394 -0.1786
  117MOL   H23744549   0.074   2.636   5.325 -0.9559  0.4076  1.2245
  117MOL   H23844550   7.596   2.572   5.518  2.2605 -0.6613  2.3919
  117MOL   H23944551   7.506   2.592   5.286  2.2541  0.2225 -0.6151
  117MOL   H24044552   7.571   2.450   5.233  1.4044  1.8545  0.1815
  117MOL   H24144553   7.337   2.483   5.413 -1.0742 -1.1815  1.3288
  117MOL   H24244554   7.384   2.353   5.304  2.6787 -1.6559  0.2503
  117MOL   H24344555   7.461   2.228   5.502  0.4142 -0.0685 -0.2644
  117MOL   H24444556   7.423   2.369   5.593 -0.3703  0.8520 -0.6832
  117MOL   H24544557   7.672   2.290   5.448 -3.8601 -0.6562 -2.2125
  117MOL   H24644558   7.649   2.348   5.612  0.0199 -0.9369 -1.0712
  117MOL   H24744559   0.112   2.405   5.249  2.4930 -1.9177 -0.5146
  117MOL   H24844560   0.173   2.353   5.399 -1.3344  0.6402  0.8947
  117MOL   C24944561   0.307   2.479   5.283  0.0524  0.1739 -0.6591
  117MOL   C25044562   0.318   2.478   5.129 -0.3922 -0.2572  0.0380
  117MOL   C25144563   0.446   2.547   5.066 -0.1567  0.0357  0.1512
  117MOL   C25244564   0.412   2.565   4.916  0.5580 -0.4462 -0.0888
  117MOL   C25344565   0.262   2.572   4.911  0.0543  0.0404  0.9349
  117MOL   C25444566   0.217   2.569   5.056 -0.6021 -0.1857  0.3761
  117MOL   C25544567   0.414   2.400   5.365 -0.0192  0.0213 -0.5114
  117MOL   H25644568   0.333   2.581   5.310  3.6405 -1.7320  3.7305
  117MOL   H25744569   0.308   2.377   5.088  0.4409 -0.2996 -0.0822
  117MOL   H25844570   0.533   2.492   5.101 -0.4393  0.9358  2.3869
  117MOL   H25944571   0.452   2.645   5.112 -1.3235  0.3301 -0.3103
  117MOL   H26044572   0.442   2.470   4.872 -2.5617 -0.8698 -1.3929
  117MOL   H26144573   0.475   2.642   4.871  1.4510 -0.7446  0.6336
  117MOL   H26244574   0.226   2.484   4.857 -0.1651  0.4906  0.3350
  117MOL   H26344575   0.216   2.658   4.862  1.3228  1.5278  2.3228
  117MOL   H26444576   0.113   2.538   5.063 -1.6587  3.1730  0.5741
  117MOL   H26544577   0.210   2.670   5.097  0.3726  0.2125 -0.3872
  117MOL   H26644578   0.505   2.457   5.349 -0.3286  0.0833 -2.0978
  117MOL   H26744579   0.398   2.411   5.472 -0.2423 -2.7358 -0.2194
  117MOL   C26844580   0.429   2.247   5.337  0.4732 -0.9230  0.0893
  117MOL   C26944581   0.444   2.184   5.479  0.5172  0.0562 -0.0437
  117MOL   C27044582   0.577   2.177   5.560 -0.2504 -0.0856  0.1353
  117MOL   C27144583   0.570   2.074   5.663  0.7293  0.4940 -0.2913
  117MOL   C27244584   0.437   1.991   5.628  0.5989  0.4908 -0.3760
  117MOL   C27344585   0.405   2.035   5.486 -0.2151  0.2311  0.3043
  117MOL   C27444586   0.553   2.228   5.239  0.0007 -0.2541 -0.2127
  117MOL   H27544587   0.335   2.217   5.291 -0.1677 -0.3063  0.9674
  117MOL   H27644588   0.366   2.215   5.549 -0.0101 -2.9563  0.8051
  117MOL   H27744589   0.654   2.161   5.484  0.8962 -0.2123  1.3149
  117MOL   H27844590   0.604   2.271   5.609  1.8419 -0.1514 -0.8363
  117MOL   H27944591   0.660   2.014   5.646 -1.7488 -3.2872 -0.7165
  117MOL   H28044592   0.559   2.116   5.762 -0.2441 -0.7176  0.1193
  117MOL   H28144593   0.351   2.014   5.691 -0.2341 -1.9886 -0.5387
  117MOL   H28244594   0.451   1.884   5.644 -1.2875  0.4065  0.9232
  117MOL   H28344595   0.306   2.008   5.450 -0.1007 -0.5015  0.5257
  117MOL   H28444596   0.468   1.979   5.417 -0.5720 -1.0445  0.9957
  117MOL   H28544597   0.641   2.267   5.289 -0.1956 -0.9382  0.6947
  117MOL   H28644598   0.534   2.284   5.148 -0.5606 -0.1386 -0.0286
  117MOL   C28744599   0.587   2.081   5.186  0.6053  0.8104 -0.1804
  117MOL   C28844600   0.465   2.021   5.118  0.4703  0.2335 -0.1262
  117MOL   C28944601   0.400   2.105   5.005 -0.3814 -0.4779 -0.5736
  117MOL   C29044602   0.360   2.001   4.899 -0.2516 -0.6541  0.5846
  117MOL   C29144603   0.366   1.863   4.963 -0.4465  0.1739 -0.6081
  117MOL   C29244604   0.478   1.871   5.062 -0.0139 -0.3956 -0.4763
  117MOL   C29344605   0.721   2.079   5.103 -0.0900  0.0673  0.3622
  117MOL   H29444606   0.603   2.013   5.270  1.2205 -0.4289 -1.2985
  117MOL   H29544607   0.387   2.037   5.193 -0.7483 -0.1507 -1.3004
  117MOL   H29644608   0.314   2.163   5.038 -0.8260 -0.2285 -2.1536
  117MOL   H29744609   0.477   2.173   4.969  0.1951 -0.1688  1.2064
  117MOL   H29844610   0.260   2.024   4.863 -0.3801  0.9111  1.8824
  117MOL   H29944611   0.439   2.004   4.825  0.0345 -0.6979  0.8861
  117MOL   H30044612   0.375   1.779   4.894 -1.2743  2.1150 -3.1571
  117MOL   H30144613   0.270   1.840   5.008 -0.9491  0.1850 -1.6714
  117MOL   H30244614   0.575   1.862   5.013  1.6019 -0.7890  2.6658
  117MOL   H30344615   0.479   1.788   5.132  0.6737 -1.8588 -2.1953
  117MOL   H30444616   0.708   2.137   5.011 -0.9938 -2.0249 -0.8720
  117MOL   H30544617   0.732   1.983   5.053  1.8092  0.9204 -0.9431
  117MOL   C30644618   0.855   2.128   5.157  0.2910  0.8193 -0.2577
  117MOL   C30744619   0.887   2.064   5.292 -0.2430  0.0995  0.0901
  117MOL   C30844620   0.920   1.917   5.312  0.3145 -0.2235 -0.5669
  117MOL   C30944621   0.982   1.907   5.449 -0.2192 -0.1593  0.1873
  117MOL   C31044622   1.067   2.030   5.466  0.4764  0.7684 -0.2180
  117MOL   C31144623   0.991   2.134   5.383 -0.0747 -0.3167 -0.4274
  117MOL   C31244624   0.981   2.102   5.064 -0.9826 -0.5311 -0.1217
  117MOL   H31344625   0.840   2.235   5.172  0.0496  0.4821  2.0573
  117MOL   H31444626   0.794   2.060   5.348  0.7097  0.7239  1.7206
  117MOL   H31544627   0.985   1.877   5.234  3.6621  0.6428  1.6347
  117MOL   H31644628   0.831   1.855   5.310 -2.0140  2.9562  0.7797
  117MOL   H31744629   0.899   1.903   5.520 -0.6756 -1.6844 -0.4199
  117MOL   H31844630   1.049   1.823   5.469  1.3227  0.7774 -0.9844
  117MOL   H31944631   1.166   2.016   5.422  0.6573  2.3905 -0.3595
  117MOL   H32044632   1.079   2.057   5.571 -0.0385 -0.6727  0.2162
  117MOL   H32144633   0.932   2.203   5.444  2.5965  0.1921  1.6461
  117MOL   H32244634   1.066   2.191   5.330 -1.4047  2.9528  1.0370
  117MOL   H32344635   0.972   2.001   5.023  3.0221 -1.3670  0.8501
  117MOL   H32444636   1.068   2.099   5.128 -0.3283 -0.0324 -0.9775
  117MOL   C32544637   1.008   2.207   4.954 -0.6994 -0.8815  0.5699
  117MOL   C32644638   1.119   2.158   4.855 -0.6208 -0.4226  0.5016
  117MOL   C32744639   1.074   2.040   4.759  0.1108  0.2841  0.2615
  117MOL   C32844640   1.157   1.915   4.793  0.0065  0.4318 -0.6913
  117MOL   C32944641   1.257   1.959   4.901 -0.2339  0.3920 -0.0532
  117MOL   C33044642   1.255   2.114   4.902  0.1074 -0.3884  0.1277
  117MOL   C33144643   1.048   2.342   5.017 -0.4288 -0.5773  0.1859
  117MOL   H33244644   0.916   2.214   4.896 -0.3230 -0.2416  0.0440
  117MOL   H33344645   1.134   2.242   4.788  0.1991 -0.9147  0.0565
  117MOL   H33444646   1.105   2.075   4.660  1.3828  0.6684  0.7876
  117MOL   H33544647   0.969   2.014   4.759  0.0384  0.4202 -2.0422
  117MOL   H33644648   1.217   1.877   4.710  0.7201  1.3823 -0.6233
  117MOL   H33744649   1.098   1.828   4.820  1.7359 -1.2020 -2.0095
  117MOL   H33844650   1.355   1.911   4.888 -1.2663 -1.6258 -0.6425
  117MOL   H33944651   1.229   1.915   4.997 -1.8161 -0.3709 -0.8461
  117MOL   H34044652   1.332   2.156   4.837  0.2239 -1.2357 -0.2912
  117MOL   H34144653   1.268   2.160   4.999  0.7407  2.2320 -1.1588
  117MOL   H34244654   1.137   2.334   5.080 -1.4111  1.6231  1.9411
  117MOL   H34344655   0.963   2.363   5.082 -0.8264  0.2777 -0.6099
  117MOL   C34444656   1.062   2.460   4.925  0.8691 -0.2356  0.4690
  117MOL   C34544657   1.142   2.570   5.000  0.7444 -0.5003  0.1416
  117MOL   C34644658   1.158   2.705   4.922  0.1188  0.2028 -0.5848
  117MOL   C34744659   1.282   2.778   4.995 -0.2333 -0.0593  0.3626
  117MOL   C34844660   1.342   2.675   5.087 -0.2143 -0.2251 -0.4715
  117MOL   C34944661   1.285   2.540   5.057  0.4475  0.0770 -0.0855
  117MOL   C35044662   0.924   2.499   4.866 -0.0022  0.4819 -0.0324
  117MOL   H35144663   1.124   2.428   4.841  1.9829  0.3606  1.0587
  117MOL   H35244664   1.075   2.582   5.085 -1.4369  1.8866 -1.8048
  117MOL   H35344665   1.067   2.764   4.925 -0.0752 -0.1394  0.1878
  117MOL   H35444666   1.197   2.703   4.820  1.0913  0.8289 -0.2388
  117MOL   H35544667   1.358   2.810   4.923 -0.5845 -1.1381 -0.4923
  117MOL   H35644668   1.252   2.863   5.057  1.3727 -0.2512  1.4371
  117MOL   H35744669   1.331   2.710   5.190 -0.8976  2.4317 -1.3776
  117MOL   H35844670   1.448   2.656   5.076 -0.1587 -0.8882  1.1049
  117MOL   H35944671   1.332   2.478   4.981 -0.1096 -1.7388  1.0004
  117MOL   H36044672   1.279   2.483   5.150 -1.3151  0.2971 -0.0315
  117MOL   H36144673   0.900   2.603   4.891  0.4490  0.5218  0.2388
  117MOL   H36244674   0.851   2.435   4.915  1.5628  0.3677  2.2037
  117MOL   C36344675   0.906   2.466   4.715  0.2989  0.1831 -0.5629
  117MOL   C36444676   0.758   2.465   4.682  0.1853  0.1531  0.2146
  117MOL   C36544677   0.685   2.337   4.731 -0.2203 -0.0427 -0.5867
  117MOL   C36644678   0.562   2.316   4.645 -0.1367 -0.5748  0.1450
  117MOL   C36744679   0.622   2.343   4.509  0.2660 -0.7213  0.1036
  117MOL   C36844680   0.737   2.446   4.535 -0.1668 -0.4443  0.5037
  117MOL   C36944681   0.973   2.581   4.645 -0.5988 -0.4434 -0.4523
  117MOL   H37044682   0.962   2.373   4.701  0.3167  0.0885  0.1099
  117MOL   H37144683   0.709   2.557   4.714  2.0841  1.5454 -0.7219
  117MOL   H37244684   0.753   2.253   4.730  1.8599  1.5653  0.9545
  117MOL   H37344685   0.652   2.347   4.835  0.1372 -1.5701 -0.3263
  117MOL   H37444686   0.528   2.214   4.664 -2.1221  0.0222 -0.0535
  117MOL   H37544687   0.477   2.380   4.670 -0.7471 -1.8646  1.4424
  117MOL   H37644688   0.669   2.259   4.459 -0.3690 -1.1376  0.1977
  117MOL   H37744689   0.546   2.391   4.446 -0.3112  0.0750  1.3829
  117MOL   H37844690   0.724   2.542   4.485  0.6563 -0.0105  1.1178
  117MOL   H37944691   0.818   2.402   4.478  1.2898  2.5593  0.1302
  117MOL   H38044692   0.974   2.559   4.538  1.1355  1.4459 -0.8490
  117MOL   H38144693   1.078   2.581   4.672 -1.3785  1.7824  2.7825
  117MOL   H38244694   0.932   2.681   4.655  0.2416  0.0506 -1.6982
  118MOL     C144695   0.094   0.939   2.733 -0.2327  0.0263 -0.0274
  118MOL     C244696   0.074   0.858   2.868  0.4502  0.0128 -0.8400
  118MOL     C344697   7.622   0.869   2.920  0.7147 -0.3864 -1.2306
  118MOL     C444698   7.636   0.935   3.060  0.0728 -0.4114 -0.0694
  118MOL     C544699   0.083   0.879   3.113  0.0419  0.1587  0.5971
  118MOL     C644700   0.170   0.877   2.993 -0.0859 -0.3198 -0.3160
  118MOL     C744701   0.235   0.914   2.683 -0.1161 -0.5855  0.7589
  118MOL     H844702   0.033   0.914   2.646 -0.3644  3.7627 -1.0867
  118MOL     H944703   0.086   0.753   2.841 -0.6822 -0.8104  1.6770
  118MOL    H1044704   7.562   0.925   2.848 -1.7455 -0.8428  0.4152
  118MOL    H1144705   7.567   0.776   2.932  2.3908 -1.2937 -0.4005
  118MOL    H1244706   7.636   1.044   3.067  0.3316 -0.5479  3.1118
  118MOL    H1344707   7.556   0.909   3.130  1.2937 -1.8102  0.8479
  118MOL    H1444708   0.110   0.942   3.197 -0.1022  1.0696 -0.0345
  118MOL    H1544709   0.062   0.780   3.153  0.6103 -0.9767 -1.7902
  118MOL    H1644710   0.237   0.793   3.008  1.0119  0.4984 -0.5993
  118MOL    H1744711   0.224   0.971   2.982 -0.3401 -0.4224 -2.6041
  118MOL    H1844712   0.305   0.959   2.754  1.2845  0.2366 -1.0970
  118MOL    H1944713   0.260   0.808   2.680  0.2188 -0.4825 -0.3547
  118MOL    H2044714   0.076   1.045   2.748  0.5599  0.1445  0.1326
  118MOL    C2144715   0.265   0.983   2.555  0.1743  0.0479 -0.4127
  118MOL    C2244716   0.416   1.029   2.539  0.3654 -0.1242  0.0252
  118MOL    C2344717   0.528   0.925   2.542  0.4057  0.2597 -0.0040
  118MOL    C2444718   0.662   0.993   2.583  0.4647 -0.8350  0.7830
  118MOL    C2544719   0.619   1.120   2.661  0.3389  0.4169 -0.2708
  118MOL    C2644720   0.467   1.146   2.623  0.2448  0.1473 -0.7282
  118MOL    C2744721   0.226   0.904   2.432 -0.0455  0.2884  0.2331
  118MOL    H2844722   0.200   1.069   2.570  3.4438  2.3027  1.3586
  118MOL    H2944723   0.435   1.070   2.440  4.3711 -0.2659  0.6634
  118MOL    H3044724   0.535   0.868   2.450  0.8869  0.0553  0.1542
  118MOL    H3144725   0.525   0.852   2.623 -0.1987  0.7180  0.3917
  118MOL    H3244726   0.732   0.930   2.638  0.3028 -0.0533  1.8998
  118MOL    H3344727   0.713   1.021   2.490 -0.2184 -2.3972 -0.0861
  118MOL    H3444728   0.680   1.210   2.649 -1.4782  1.7905  0.5612
  118MOL    H3544729   0.623   1.089   2.766 -0.5533 -1.7820 -0.8569
  118MOL    H3644730   0.444   1.238   2.569  0.3858 -0.3439 -1.6364
  118MOL    H3744731   0.412   1.156   2.717  1.7711 -1.4057  0.3569
  118MOL    H3844732   0.289   0.817   2.417 -2.6173 -1.6943  0.5709
  118MOL    H3944733   0.133   0.850   2.445  0.1364  0.0144  0.3929
  118MOL    C4044734   0.208   0.964   2.287 -0.8871  0.3033 -0.6000
  118MOL    C4144735   0.203   0.855   2.186 -0.0846  0.5055 -0.7241
  118MOL    C4244736   0.327   0.760   2.180  0.0851 -0.1668  0.5123
  118MOL    C4344737   0.342   0.720   2.030 -0.4069  0.3638 -0.4861
  118MOL    C4444738   0.234   0.789   1.949 -0.3405  0.2029 -0.8565
  118MOL    C4544739   0.205   0.909   2.038  0.8530 -0.0637 -0.0815
  118MOL    C4644740   0.088   1.057   2.274 -0.3318 -0.2051 -0.3550
  118MOL    H4744741   0.298   1.019   2.257 -1.6801  2.4623  0.8677
  118MOL    H4844742   0.111   0.799   2.205 -1.1293  2.1873 -0.6652
  118MOL    H4944743   0.315   0.668   2.236 -2.5419 -1.1816 -1.6264
  118MOL    H5044744   0.420   0.805   2.215  0.3249  0.1457 -0.5072
  118MOL    H5144745   0.354   0.615   2.004 -1.6176  0.5409 -1.8022
  118MOL    H5244746   0.434   0.765   1.991  0.2851  0.5817  1.3311
  118MOL    H5344747   0.271   0.819   1.851  2.3431 -0.9437 -0.2307
  118MOL    H5444748   0.144   0.731   1.926  0.0781 -0.4095 -0.9475
  118MOL    H5544749   0.296   0.970   2.036 -0.1786  1.5561  1.2024
  118MOL    H5644750   0.125   0.971   2.000 -1.3864 -2.3146  0.8061
  118MOL    H5744751   0.111   1.132   2.349 -3.0334 -1.3573  1.6700
  118MOL    H5844752   0.080   1.107   2.177 -2.2680 -1.6540 -0.9773
  118MOL    C5944753   7.635   1.012   2.305 -0.4558 -0.1617  0.8972
  118MOL    C6044754   7.549   1.122   2.373  0.3915 -0.3035 -0.4025
  118MOL    C6144755   7.539   1.263   2.307  0.0525  0.8442 -0.1723
  118MOL    C6244756   7.519   1.363   2.424  0.1741 -0.0894  0.4535
  118MOL    C6344757   7.517   1.275   2.548 -0.3743  0.3886  0.0902
  118MOL    C6444758   7.592   1.143   2.524 -0.4025 -0.3265 -0.0257
  118MOL    C6544759   7.562   0.960   2.177  0.4631 -0.2076  0.1039
  118MOL    H6644760   7.638   0.931   2.377  1.0402 -0.4782  0.4992
  118MOL    H6744761   7.448   1.081   2.384 -0.2126  1.0311 -0.9435
  118MOL    H6844762   7.449   1.266   2.246 -0.6006 -1.1645  0.6347
  118MOL    H6944763   7.617   1.286   2.235  1.7491  0.6347  1.5573
  118MOL    H7044764   7.431   1.423   2.403 -0.8681 -1.3752  1.0501
  118MOL    H7144765   7.602   1.434   2.427  1.7467 -1.7797 -1.1845
  118MOL    H7244766   7.415   1.249   2.573 -0.0386 -1.4619 -0.3516
  118MOL    H7344767   7.567   1.326   2.630  1.3511 -0.5710 -0.3390
  118MOL    H7444768   0.009   1.159   2.534 -0.3577  0.6450 -1.7096
  118MOL    H7544769   7.554   1.065   2.590  0.7925 -0.9165 -0.0362
  118MOL    H7644770   7.619   0.878   2.134  0.5677  0.4225 -0.9739
  118MOL    H7744771   7.556   1.047   2.112  1.3599  0.6357  1.1202
  118MOL    C7844772   7.422   0.902   2.201  0.0581  0.1238  0.6726
  118MOL    C7944773   7.336   0.874   2.067  0.3944 -0.7158  0.4743
  118MOL    C8044774   7.391   0.758   1.987 -0.8001  0.1270 -0.0244
  118MOL    C8144775   7.328   0.767   1.852 -0.2619 -0.4433 -0.0863
  118MOL    C8244776   7.269   0.908   1.846 -0.4716  0.1630 -0.1725
  118MOL    C8344777   7.325   0.988   1.962 -0.3752  0.3343 -0.0148
  118MOL    C8444778   7.425   0.778   2.299 -1.0918  0.9533  1.0650
  118MOL    H8544779   7.351   0.980   2.230  0.6732  0.6854  0.6849
  118MOL    H8644780   7.239   0.843   2.106  0.2206 -0.0535  0.5715
  118MOL    H8744781   7.376   0.659   2.030 -0.7339  0.6960  1.3147
  118MOL    H8844782   7.496   0.781   1.971 -0.3072 -1.5419  0.7745
  118MOL    H8944783   7.246   0.699   1.830 -1.0673  0.9186 -1.4148
  118MOL    H9044784   7.395   0.759   1.766  0.0465  0.9711  0.0144
  118MOL    H9144785   7.305   0.960   1.757 -0.3011  1.5053  0.6649
  118MOL    H9244786   7.161   0.914   1.844 -0.7370 -3.5214 -0.3141
  118MOL    H9344787   7.416   1.044   1.942 -0.9465  1.3473  0.2143
  118MOL    H9444788   7.242   1.054   1.987 -0.8356 -0.5706  0.8998
  118MOL    H9544789   7.528   0.748   2.319 -0.8032 -0.2354 -1.8872
  118MOL    H9644790   7.379   0.689   2.257  0.1710 -0.1213  1.9127
  118MOL    C9744791   7.362   0.801   2.434 -0.2366 -0.5927  0.1309
  118MOL    C9844792   7.402   0.688   2.533 -0.2968 -0.7446  0.2430
  118MOL    C9944793   7.392   0.544   2.487  0.1766  0.5034 -0.2125
  118MOL   C10044794   7.540   0.495   2.482 -0.0813  0.5244  0.5674
  118MOL   C10144795   7.612   0.576   2.588  0.8139 -0.3933  0.9474
  118MOL   C10244796   7.543   0.715   2.589  0.0088 -0.3349 -0.1077
  118MOL   C10344797   7.206   0.826   2.421 -0.0652  0.6944 -1.0488
  118MOL   H10444798   7.403   0.891   2.481 -0.6490 -1.1987  1.6806
  118MOL   H10544799   7.337   0.704   2.620 -0.1952  0.6706  0.0611
  118MOL   H10644800   7.345   0.476   2.558  0.4368  0.5347 -0.0082
  118MOL   H10744801   7.331   0.526   2.398  3.8903 -0.4230 -2.6661
  118MOL   H10844802   7.583   0.525   2.386  1.9806  0.5057  1.4532
  118MOL   H10944803   7.557   0.388   2.497  0.5266  0.2132 -2.0183
  118MOL   H11044804   0.029   0.587   2.569  0.6754 -0.6148  0.0016
  118MOL   H11144805   7.611   0.524   2.683 -0.0488  0.2461  1.2983
  118MOL   H11244806   7.529   0.744   2.693 -6.5234  1.1045 -1.1347
  118MOL   H11344807   7.600   0.793   2.539  0.1841 -0.6390 -0.3896
  118MOL   H11444808   7.185   0.868   2.322  3.1116  0.9039 -1.7180
  118MOL   H11544809   7.160   0.729   2.434  0.5935  0.5658  0.4532
  118MOL   C11644810   7.147   0.928   2.532 -0.1705 -0.5482  0.0794
  118MOL   C11744811   7.166   1.073   2.501 -0.2780  0.2618 -0.6239
  118MOL   C11844812   7.095   1.133   2.378 -0.1551  0.5916  0.2795
  118MOL   C11944813   7.123   1.288   2.402 -1.5957  0.4757 -0.3290
  118MOL   C12044814   7.133   1.310   2.560 -0.4068  0.2331  0.0582
  118MOL   C12144815   7.137   1.169   2.617  0.1588  0.1047 -0.5418
  118MOL   C12244816   7.003   0.888   2.562  0.0097  0.3535  0.0022
  118MOL   H12344817   7.195   0.913   2.629 -0.9785  2.3285  0.9633
  118MOL   H12444818   7.269   1.088   2.468  0.1271 -0.8594  0.1169
  118MOL   H12544819   7.130   1.084   2.287 -0.7300 -0.2172  0.4857
  118MOL   H12644820   6.988   1.118   2.390 -0.3432  1.9213  0.3722
  118MOL   H12744821   7.050   1.352   2.352 -0.6342  0.3990 -1.8778
  118MOL   H12844822   7.223   1.311   2.364 -1.5655  1.5759  0.3890
  118MOL   H12944823   7.054   1.365   2.610 -0.8586  0.6505 -1.0908
  118MOL   H13044824   7.228   1.345   2.601  0.1708 -2.1091  0.8102
  118MOL   H13144825   7.215   1.164   2.693 -0.9252 -0.8857  0.5249
  118MOL   H13244826   7.043   1.153   2.671  1.3655 -0.6615  1.3798
  118MOL   H13344827   6.952   0.880   2.466  0.8596 -0.7921 -0.3710
  118MOL   H13444828   6.947   0.966   2.613 -0.9792 -0.9713  0.9547
  118MOL   C13544829   6.990   0.759   2.646 -0.1449 -0.1175 -0.1649
  118MOL   C13644830   6.861   0.668   2.608 -0.4281 -0.3108  0.1089
  118MOL   C13744831   6.867   0.607   2.469 -0.1888 -0.5200 -0.5625
  118MOL   C13844832   6.726   0.552   2.448 -0.3157  0.8809  0.2848
  118MOL   C13944833   6.633   0.621   2.546 -0.0378 -0.2070  0.6096
  118MOL   C14044834   6.721   0.727   2.621 -0.0193 -0.5379 -0.3461
  118MOL   C14144835   6.985   0.799   2.797 -0.0082  0.2224  0.1248
  118MOL   H14244836   7.071   0.689   2.626 -1.6637 -1.6879 -0.9213
  118MOL   H14344837   6.870   0.588   2.681  0.1267 -1.1734 -0.8818
  118MOL   H14444838   6.902   0.682   2.398 -2.2331  1.2757  0.2789
  118MOL   H14544839   6.942   0.528   2.465  2.0167  1.4205  1.1508
  118MOL   H14644840   6.727   0.445   2.469 -0.1617  0.7280 -0.4724
  118MOL   H14744841   6.701   0.563   2.342  0.1404  2.1789  0.3123
  118MOL   H14844842   6.593   0.551   2.619 -0.8735 -0.3296  0.0447
  118MOL   H14944843   6.545   0.659   2.494  1.2244 -0.1965 -1.6122
  118MOL   H15044844   6.708   0.823   2.571  1.0949 -1.1383 -1.8674
  118MOL   H15144845   6.695   0.733   2.726 -0.3082 -0.6562 -0.4111
  118MOL   H15244846   6.885   0.800   2.841 -0.3792 -2.9957 -0.5036
  118MOL   H15344847   7.022   0.901   2.794 -0.5813  0.4052 -1.5805
  118MOL   C15444848   7.082   0.717   2.883  0.0354  0.0659 -0.0739
  118MOL   C15544849   7.129   0.801   3.006  0.1490  0.5240  0.1732
  118MOL   C15644850   7.030   0.867   3.109  0.2969 -0.3570 -0.2817
  118MOL   C15744851   7.118   0.962   3.187 -0.7017 -0.7677 -0.0008
  118MOL   C15844852   7.249   0.980   3.103  0.2370 -0.5725 -0.2644
  118MOL   C15944853   7.225   0.917   2.970  0.7084  0.3249 -0.0942
  118MOL   C16044854   7.021   0.585   2.922 -0.1740  1.0286  0.0519
  118MOL   H16144855   7.170   0.697   2.822  0.4077  1.0064  0.1411
  118MOL   H16244856   7.191   0.735   3.067  1.7579  0.7507 -1.1805
  118MOL   H16344857   6.954   0.923   3.054 -0.5706  0.0185  1.2918
  118MOL   H16444858   6.984   0.794   3.175  0.7141 -0.0720  0.3303
  118MOL   H16544859   7.074   1.061   3.202 -1.7145 -1.2823  0.4721
  118MOL   H16644860   7.143   0.920   3.284  1.6089 -0.1953 -0.3262
  118MOL   H16744861   7.340   0.963   3.160 -0.5640  2.2041  1.9765
  118MOL   H16844862   7.267   1.084   3.075 -0.6796 -0.1396  0.7161
  118MOL   H16944863   7.319   0.878   2.932  1.1305  1.6763 -0.4432
  118MOL   H17044864   7.185   0.989   2.898 -3.1494 -0.3666  1.2195
  118MOL   H17144865   6.979   0.526   2.840 -0.8465 -2.7323  2.9262
  118MOL   H17244866   6.945   0.614   2.994  0.4268  2.6451  0.0469
  118MOL   C17344867   7.111   0.478   2.984  0.6265  0.9530  0.5386
  118MOL   C17444868   7.220   0.429   2.887 -0.6573 -0.4971  0.3296
  118MOL   C17544869   7.179   0.358   2.753 -0.4260  0.2174 -0.0131
  118MOL   C17644870   7.286   0.247   2.737 -0.1883  0.2240  0.0946
  118MOL   C17744871   7.396   0.267   2.838  0.2965 -0.0967  0.0601
  118MOL   C17844872   7.327   0.337   2.954  0.6773  0.1749 -0.1868
  118MOL   C17944873   7.031   0.357   3.050 -0.4516 -0.0848  0.7468
  118MOL   H18044874   7.167   0.521   3.066  1.9338 -1.7637  1.1283
  118MOL   H18144875   7.274   0.521   2.865 -1.9678  0.1948 -0.0159
  118MOL   H18244876   7.191   0.426   2.669 -0.2488 -0.1765 -0.3126
  118MOL   H18344877   7.075   0.327   2.755 -0.8823  1.5588 -1.5516
  118MOL   H18444878   7.234   0.154   2.765  0.1361  0.0468  0.1091
  118MOL   H18544879   7.317   0.237   2.633  0.2216 -0.3127  0.2622
  118MOL   H18644880   7.465   0.331   2.784  2.9535 -2.3622  0.6623
  118MOL   H18744881   7.453   0.177   2.861 -1.3241 -1.3271 -0.5988
  118MOL   H18844882   7.289   0.262   3.023 -0.9550  0.2322 -0.9870
  118MOL   H18944883   7.403   0.390   3.011 -0.3144  3.6017 -1.8847
  118MOL   H19044884   6.982   0.303   2.969  1.2424  1.0572 -1.0981
  118MOL   H19144885   7.093   0.275   3.086  3.6277  2.3168 -0.5337
  118MOL   C19244886   6.933   0.390   3.163  0.4040 -0.0921 -0.0584
  118MOL   C19344887   6.998   0.449   3.292  0.5710  0.9112 -0.9091
  118MOL   C19444888   7.074   0.347   3.385  0.1762 -0.0751 -0.6907
  118MOL   C19544889   7.039   0.389   3.531 -0.7428 -0.7260  0.8462
  118MOL   C19644890   6.968   0.522   3.521 -0.0786  0.1534 -0.0336
  118MOL   C19744891   6.903   0.522   3.384 -0.0368  0.3870 -0.1242
  118MOL   C19844892   6.857   0.260   3.206  0.2675  0.2008 -0.0123
  118MOL   H19944893   6.851   0.454   3.130  0.7366 -0.3799 -1.4839
  118MOL   H20044894   7.064   0.531   3.264  0.9215  1.8313  2.3948
  118MOL   H20144895   7.180   0.348   3.361  1.0868 -0.2437  2.9666
  118MOL   H20244896   7.044   0.244   3.367  0.3554 -0.0860 -0.9203
  118MOL   H20344897   6.984   0.303   3.569  1.7141 -2.9100 -0.3034
  118MOL   H20444898   7.133   0.402   3.586 -1.6913  1.1613  2.0794
  118MOL   H20544899   7.038   0.605   3.528  2.9981 -2.4043  0.9617
  118MOL   H20644900   6.907   0.537   3.610  1.1704 -1.7207  1.1766
  118MOL   H20744901   6.893   0.621   3.339 -0.3912  0.3249 -0.1850
  118MOL   H20844902   6.803   0.478   3.384  0.3233 -0.4336 -1.6625
  118MOL   H20944903   6.917   0.168   3.209  0.8106  0.4840 -1.6122
  118MOL   H21044904   6.811   0.267   3.304  1.8920 -0.1916  0.7999
  118MOL   C21144905   6.733   0.220   3.128  0.9031 -0.5449 -0.8059
  118MOL   C21244906   6.629   0.131   3.215  0.1263  0.6932 -0.2109
  118MOL   C21344907   6.681   0.006   3.297  0.4196  0.4643  0.1570
  118MOL   C21444908   6.579   7.681   3.409 -0.1007  0.0162  0.0026
  118MOL   C21544909   6.531   0.133   3.439 -0.5162  0.6563  0.5284
  118MOL   C21644910   6.545   0.217   3.308 -0.3562 -0.3807 -0.1511
  118MOL   C21744911   6.665   0.327   3.035  1.2018 -0.4448  0.2622
  118MOL   H21844912   6.780   0.144   3.065  1.0706 -1.2481  0.1396
  118MOL   H21944913   6.557   0.088   3.145 -1.4943 -1.0541  2.4433
  118MOL   H22044914   6.693   7.605   3.239  5.0943  1.2229 -0.2671
  118MOL   H22144915   6.774   0.011   3.354  0.2827  0.3622  0.3945
  118MOL   H22244916   6.493   7.624   3.372  0.9423 -1.1343 -0.6779
  118MOL   H22344917   6.607   7.623   3.497  1.2587  1.0861  0.2957
  118MOL   H22444918   6.594   0.166   3.521 -0.5230 -0.0382  0.8123
  118MOL   H22544919   6.427   0.128   3.470 -0.9597 -0.9867 -1.1426
  118MOL   H22644920   6.448   0.236   3.262 -2.7486 -2.7657  3.6807
  118MOL   H22744921   6.590   0.313   3.333  0.6595 -0.5143 -1.3992
  118MOL   H22844922   6.741   0.352   2.961 -2.4483 -1.1101 -3.8906
  118MOL   H22944923   6.640   0.418   3.090  0.1708  1.2681 -2.9137
  118MOL   C23044924   6.539   0.293   2.947  0.1494 -0.2209 -0.5950
  118MOL   C23144925   6.566   0.170   2.855  0.4433 -0.2835 -0.1800
  118MOL   C23244926   6.437   0.116   2.780  0.4182  0.1178 -0.7475
  118MOL   C23344927   6.482   0.098   2.637 -0.8898  0.1717 -0.5266
  118MOL   C23444928   6.590   0.198   2.619  0.4061 -0.0744  0.3196
  118MOL   C23544929   6.675   0.191   2.746  0.0379 -0.4845 -0.6055
  118MOL   C23644930   6.491   0.419   2.880  0.3161 -0.4994 -0.9672
  118MOL   H23744931   6.455   0.271   3.013  1.3985 -0.2300  1.0470
  118MOL   H23844932   6.599   0.092   2.924  1.6566 -0.3633 -0.8451
  118MOL   H23944933   6.398   0.021   2.818  2.1615  0.3365  1.7307
  118MOL   H24044934   6.351   0.179   2.801  1.3648  1.7215 -1.6566
  118MOL   H24144935   6.524   0.000   2.613 -1.9654 -0.6354  0.7859
  118MOL   H24244936   6.394   0.120   2.577 -2.5407 -1.2418  1.2992
  118MOL   H24344937   6.559   0.302   2.610  1.3059  0.2961  1.3960
  118MOL   H24444938   6.660   0.183   2.537 -0.4884 -1.7773 -0.1402
  118MOL   H24544939   6.738   0.280   2.751  0.0188 -0.4498 -0.9462
  118MOL   H24644940   6.735   0.100   2.749  1.8725  0.6472 -1.7289
  118MOL   H24744941   6.420   0.393   2.801  1.4117 -3.5799 -1.0346
  118MOL   H24844942   6.573   0.466   2.825 -0.8743  2.2221 -0.5074
  118MOL   C24944943   6.413   0.530   2.962  0.6453 -0.1139  0.1871
  118MOL   C25044944   6.263   0.570   2.928  0.5256  0.0656 -0.8098
  118MOL   C25144945   6.162   0.459   2.946  0.8617  0.9033 -0.1139
  118MOL   C25244946   6.039   0.509   2.881  0.4799 -0.8034  0.3160
  118MOL   C25344947   6.080   0.609   2.773  0.1457  0.2228  0.2038
  118MOL   C25444948   6.226   0.630   2.790 -0.4352  0.3995  0.6532
  118MOL   C25544949   6.503   0.666   2.968 -0.3738  0.4310 -0.4455
  118MOL   H25644950   6.416   0.497   3.066  0.1814 -0.4488  0.0949
  118MOL   H25744951   6.223   0.641   3.001 -0.6165 -2.5354  1.1448
  118MOL   H25844952   6.159   0.441   3.053 -0.6780 -2.2390 -0.6201
  118MOL   H25944953   6.195   0.377   2.882  0.0660 -0.2262  0.8975
  118MOL   H26044954   5.989   0.561   2.963 -1.4173 -2.3005  0.1480
  118MOL   H26144955   5.981   0.423   2.847 -0.3062 -0.2151  0.1614
  118MOL   H26244956   6.030   0.705   2.788 -2.6863 -0.8401 -2.0938
  118MOL   H26344957   6.056   0.570   2.675  1.0266 -1.8424  0.7977
  118MOL   H26444958   6.254   0.731   2.761 -1.1473  0.9405  1.7974
  118MOL   H26544959   6.275   0.567   2.716 -0.0517  2.6279 -1.0289
  118MOL   H26644960   6.608   0.640   2.956 -0.2151  0.8085  0.1122
  118MOL   H26744961   6.483   0.713   2.871 -0.2409 -0.4098 -0.8864
  118MOL   C26844962   6.482   0.767   3.089  0.7792  0.2395 -0.6324
  118MOL   C26944963   6.513   0.913   3.034 -0.4250 -0.0099 -0.2244
  118MOL   C27044964   6.421   0.973   2.920  0.6762  0.4159  0.2139
  118MOL   C27144965   6.508   1.005   2.806 -0.0312  0.1596 -0.2958
  118MOL   C27244966   6.643   1.039   2.867 -0.0587 -0.5602 -0.4997
  118MOL   C27344967   6.658   0.945   2.989  0.5541 -0.9814 -0.1332
  118MOL   C27444968   6.566   0.731   3.211 -0.0759  0.2700 -0.9669
  118MOL   H27544969   6.376   0.776   3.109  0.9671  2.7017 -0.5686
  118MOL   H27644970   6.483   0.968   3.124 -0.8639  1.7996 -1.4482
  118MOL   H27744971   6.336   0.907   2.901  2.3275 -1.3618 -1.1692
  118MOL   H27844972   6.373   1.068   2.947 -2.6079 -1.4178  1.2108
  118MOL   H27944973   6.516   0.923   2.735 -0.0497  1.8944 -2.3445
  118MOL   H28044974   6.455   1.083   2.752 -0.7914 -1.3140 -1.7234
  118MOL   H28144975   6.634   1.138   2.910  3.2767 -0.2978 -0.2887
  118MOL   H28244976   6.730   1.018   2.804  0.6303  0.4813  0.1004
  118MOL   H28344977   6.725   0.980   3.067  0.8140  0.5297 -1.0226
  118MOL   H28444978   6.695   0.855   2.940  0.1196 -0.6589 -1.0640
  118MOL   H28544979   6.669   0.755   3.183  0.5728 -0.4077  0.7798
  118MOL   H28644980   6.563   0.622   3.217 -0.1914  0.2324 -1.6493
  118MOL   C28744981   6.515   0.785   3.347  0.7019 -0.1359  1.1919
  118MOL   C28844982   6.399   0.698   3.407 -0.7145 -0.7269 -0.0858
  118MOL   C28944983   6.429   0.548   3.426  0.4836 -0.3862 -0.3383
  118MOL   C29044984   6.378   0.505   3.562  0.3104 -0.2012 -0.0713
  118MOL   C29144985   6.373   0.634   3.642 -0.4726  0.6336 -0.2134
  118MOL   C29244986   6.354   0.747   3.543  0.0157  0.2829 -0.2060
  118MOL   C29344987   6.629   0.827   3.448 -0.2852  0.0836 -0.2053
  118MOL   H29444988   6.463   0.878   3.327 -0.0680 -0.6592  0.7307
  118MOL   H29544989   6.319   0.709   3.334  0.1592  0.8458 -0.8387
  118MOL   H29644990   6.401   0.492   3.337  1.7312 -0.3291 -0.7773
  118MOL   H29744991   6.535   0.521   3.421  0.4462 -0.3220 -1.6299
  118MOL   H29844992   6.279   0.459   3.563  0.1265  0.1870 -0.3940
  118MOL   H29944993   6.444   0.431   3.606  0.1472 -0.5777 -0.4484
  118MOL   H30044994   6.467   0.639   3.698 -0.1050 -2.2298 -0.5375
  118MOL   H30144995   6.291   0.636   3.714  0.6802  0.0766  1.1522
  118MOL   H30244996   6.392   0.840   3.586 -0.2039 -0.1856  1.0157
  118MOL   H30344997   6.247   0.766   3.542  0.2647  1.9445  1.6761
  118MOL   H30444998   6.702   0.747   3.442 -0.2811  0.1333 -0.8897
  118MOL   H30544999   6.590   0.818   3.549 -2.7419  0.3272 -1.1021
  118MOL   C30645000   6.698   0.967   3.430  0.1506  0.5668 -0.2317
  118MOL   C30745001   6.624   1.079   3.499  0.4821  0.4222  0.7223
  118MOL   C30845002   6.683   1.214   3.479  0.4708  0.1969  0.2080
  118MOL   C30945003   6.580   1.314   3.511 -0.2094 -0.0240  1.1482
  118MOL   C31045004   6.450   1.244   3.499 -0.4868  0.8671  0.4209
  118MOL   C31145005   6.485   1.106   3.451 -0.0600  0.3872  0.2765
  118MOL   C31245006   6.848   0.964   3.464 -0.9523 -0.0804  0.2721
  118MOL   H31345007   6.701   0.994   3.324 -0.6014 -0.4710 -0.5319
  118MOL   H31445008   6.620   1.074   3.608 -1.0779 -0.7467  0.6308
  118MOL   H31545009   6.711   1.231   3.375 -1.6385  1.5014 -0.1724
  118MOL   H31645010   6.770   1.226   3.543  1.7073 -3.1047 -0.7513
  118MOL   H31745011   6.598   1.359   3.609  0.3765  1.5224  0.3471
  118MOL   H31845012   6.593   1.397   3.442 -0.2015 -1.2513 -0.3635
  118MOL   H31945013   6.391   1.296   3.423  0.4736  0.1123 -0.8565
  118MOL   H32045014   6.393   1.241   3.591 -0.4089 -1.6038  0.4150
  118MOL   H32145015   6.420   1.031   3.495 -1.2014  1.5116  0.5498
  118MOL   H32245016   6.472   1.105   3.342  1.0655  2.0367  0.0971
  118MOL   H32345017   6.904   1.048   3.423  0.9316 -0.2163  2.4799
  118MOL   H32445018   6.891   0.880   3.410 -3.1135 -0.0408 -1.5913
  118MOL   C32545019   6.895   0.955   3.621  0.0171  0.4248  0.1277
  118MOL   C32645020   7.043   0.996   3.643  0.6554 -0.0226  0.4795
  118MOL   C32745021   7.078   1.146   3.607  0.1779 -0.9942  0.1726
  118MOL   C32845022   7.187   1.146   3.505  0.6251 -0.2729  0.0828
  118MOL   C32945023   7.264   1.013   3.530 -0.3674  0.4807  0.1000
  118MOL   C33045024   7.152   0.915   3.571  0.0498  0.3844 -0.0893
  118MOL   C33145025   6.869   0.821   3.695  0.5481  1.3405 -0.0784
  118MOL   H33245026   6.840   1.031   3.677 -1.9591 -0.1222 -1.0148
  118MOL   H33345027   7.067   0.988   3.749 -0.8798 -2.2407  0.6812
  118MOL   H33445028   7.120   1.193   3.696  0.8466 -1.4217  0.0900
  118MOL   H33545029   6.992   1.199   3.568  0.0401 -0.5096  1.1243
  118MOL   H33645030   7.250   1.235   3.510 -0.0106  0.0695  3.0673
  118MOL   H33745031   7.143   1.144   3.405  0.2014 -0.4948  0.2721
  118MOL   H33845032   7.320   1.041   3.619 -2.5957  1.6345  1.1704
  118MOL   H33945033   7.324   0.981   3.445  3.2880  0.7078  2.4840
  118MOL   H34045034   7.197   0.841   3.636 -0.1159 -2.1669 -2.7578
  118MOL   H34145035   7.112   0.853   3.490  0.2066  0.7066 -0.4160
  118MOL   H34245036   6.946   0.749   3.668  0.6910  1.4844 -0.0530
  118MOL   H34345037   6.781   0.785   3.641  0.1445  2.4229 -0.1537
  118MOL   C34445038   6.841   0.819   3.847  0.1999 -0.2418 -0.0595
  118MOL   C34545039   6.882   0.678   3.903 -0.0211  0.2740  0.5335
  118MOL   C34645040   6.845   0.641   4.048 -0.1084  0.0449 -0.3649
  118MOL   C34745041   6.973   0.594   4.117  0.0906 -0.5185 -0.2847
  118MOL   C34845042   7.090   0.666   4.053  0.1617 -0.1471  0.3859
  118MOL   C34945043   7.036   0.666   3.906  0.0420  0.6374  0.0514
  118MOL   C35045044   6.700   0.868   3.881  0.2435 -0.3841  0.3449
  118MOL   H35145045   6.903   0.898   3.890  1.9155 -1.6640  0.1234
  118MOL   H35245046   6.846   0.607   3.828  0.9085 -1.4367  1.6689
  118MOL   H35345047   6.775   0.559   4.064  0.1959  0.1418  1.5895
  118MOL   H35445048   6.809   0.724   4.107  0.2563 -0.7692  1.0182
  118MOL   H35545049   6.956   0.618   4.222  0.3268 -1.2521 -0.0786
  118MOL   H35645050   6.988   0.486   4.112  0.2228 -0.4621 -1.1238
  118MOL   H35745051   7.177   0.604   4.071  0.2706  0.4433  1.9407
  118MOL   H35845052   7.116   0.768   4.082  2.2746 -0.3864 -0.6463
  118MOL   H35945053   7.076   0.752   3.853  0.7068  0.6771  0.6086
  118MOL   H36045054   7.070   0.576   3.855  0.0914  0.7885 -0.1809
  118MOL   H36145055   6.682   0.818   3.977 -0.6997 -0.0469  0.3551
  118MOL   H36245056   6.634   0.832   3.802 -2.4107 -0.0618  2.3343
  118MOL   C36345057   6.673   1.020   3.901 -0.1666  0.5406  0.3440
  118MOL   C36445058   6.532   1.051   3.952  0.7006  0.2186 -0.5942
  118MOL   C36545059   6.422   0.974   3.872 -0.4100 -0.2406 -0.1416
  118MOL   C36645060   6.292   1.044   3.893  0.3625 -0.5041 -0.5189
  118MOL   C36745061   6.329   1.191   3.924  0.3671 -0.2936 -0.5283
  118MOL   C36845062   6.483   1.194   3.959 -0.1420  0.2352  0.5382
  118MOL   C36945063   6.776   1.098   3.988 -0.4170 -0.2515  0.5264
  118MOL   H37045064   6.672   1.077   3.809 -0.0033 -0.2349 -0.1400
  118MOL   H37145065   6.531   1.017   4.056  1.1686  0.6447 -0.4471
  118MOL   H37245066   6.441   0.977   3.765 -0.9249 -1.1281 -0.2604
  118MOL   H37345067   6.424   0.866   3.878  2.2778 -0.2236 -0.0179
  118MOL   H37445068   6.222   1.032   3.810 -1.8410 -0.6243  1.3242
  118MOL   H37545069   6.246   1.002   3.982  0.4843 -0.7908 -0.5902
  118MOL   H37645070   6.322   1.264   3.843  0.6105  1.0286  0.6327
  118MOL   H37745071   6.264   1.222   4.006  1.2716 -0.1692  0.1379
  118MOL   H37845072   6.520   1.245   4.048  0.7369 -2.0423  1.5366
  118MOL   H37945073   6.528   1.253   3.879  0.9767 -2.9069 -1.2441
  118MOL   H38045074   6.736   1.199   3.995  1.5393  0.6050 -0.4768
  118MOL   H38145075   6.880   1.108   3.956 -2.0361  0.9798 -4.8150
  118MOL   H38245076   6.774   1.071   4.094 -2.0141  0.9371  0.8226
  119MOL     C145077   1.777   6.424   2.895  0.0740 -0.0623 -0.5389
  119MOL     C245078   1.844   6.342   3.013 -0.6554  0.0765 -0.5370
  119MOL     C345079   1.866   6.409   3.148 -0.2147 -0.2698  0.4900
  119MOL     C445080   1.953   6.310   3.228  0.5984 -0.1412  0.9408
  119MOL     C545081   2.026   6.232   3.118 -0.0150 -0.5778  0.3714
  119MOL     C645082   1.982   6.291   2.979  0.3245 -0.3095 -0.3918
  119MOL     C745083   1.859   6.536   2.820 -0.1062  0.3508 -0.1396
  119MOL     H845084   1.754   6.341   2.829  0.9510 -1.3307  0.7421
  119MOL     H945085   1.770   6.263   3.026  0.4868 -0.5657  2.4074
  119MOL    H1045086   1.910   6.509   3.146  1.7421 -1.0628  2.0827
  119MOL    H1145087   1.773   6.434   3.199  0.0398 -0.5397  1.0878
  119MOL    H1245088   2.015   6.370   3.295 -0.0162 -1.4763  2.7353
  119MOL    H1345089   1.886   6.237   3.273 -0.5147  0.0831 -0.3295
  119MOL    H1445090   2.133   6.251   3.125 -0.0734 -0.1296  0.1061
  119MOL    H1545091   2.007   6.125   3.120  1.3687 -0.8653 -0.7502
  119MOL    H1645092   1.955   6.209   2.913 -1.6618  0.6363 -0.7989
  119MOL    H1745093   2.055   6.362   2.941 -1.0955  1.0176 -0.6919
  119MOL    H1845094   1.892   6.604   2.898 -2.4240  1.3107  0.0577
  119MOL    H1945095   1.943   6.474   2.789  0.6529  2.1795 -1.8874
  119MOL    H2045096   1.678   6.456   2.930 -0.7445 -0.8563 -2.0961
  119MOL    C2145097   1.782   6.608   2.701 -0.5855  0.1448  0.3206
  119MOL    C2245098   1.686   6.722   2.743 -0.1988  0.7505  0.5009
  119MOL    C2345099   1.758   6.854   2.792 -0.8230 -0.1692 -0.6037
  119MOL    C2445100   1.644   6.928   2.859  0.3418 -0.3804 -0.6258
  119MOL    C2545101   1.527   6.834   2.871 -0.0566  0.0570  0.0446
  119MOL    C2645102   1.583   6.694   2.850  0.0956 -0.5740  0.3938
  119MOL    C2745103   1.884   6.661   2.593  0.6358 -0.8600  0.6237
  119MOL    H2845104   1.713   6.540   2.651  1.2059 -0.8880 -0.7764
  119MOL    H2945105   1.634   6.752   2.652 -0.2656 -2.1045 -0.4610
  119MOL    H3045106   1.796   6.913   2.709 -1.3860 -2.6945 -2.7013
  119MOL    H3145107   1.834   6.817   2.861  1.5244  1.3898 -2.3243
  119MOL    H3245108   1.675   6.952   2.961  0.6071 -2.5393 -0.1767
  119MOL    H3345109   1.607   7.014   2.804 -0.6514 -0.1492  0.3884
  119MOL    H3445110   1.446   6.859   2.802  1.1271  3.1174 -0.3087
  119MOL    H3545111   1.500   6.842   2.976  0.8073 -0.9461  0.3515
  119MOL    H3645112   1.509   6.617   2.828 -2.2767  1.7130  0.0957
  119MOL    H3745113   1.631   6.663   2.943  1.6084  0.5881  0.0126
  119MOL    H3845114   1.839   6.714   2.509 -1.4974  0.7747  2.7576
  119MOL    H3945115   1.932   6.740   2.650 -1.3831 -0.7268  2.1882
  119MOL    C4045116   1.991   6.563   2.539 -0.7053  0.1985  0.1065
  119MOL    C4145117   1.921   6.445   2.460  0.2269 -0.4983 -0.1040
  119MOL    C4245118   2.030   6.340   2.416  0.1514 -0.3183  0.6745
  119MOL    C4345119   2.031   6.341   2.264 -0.1488  0.2941  0.9757
  119MOL    C4445120   1.893   6.391   2.223  0.2581  0.0785 -0.0269
  119MOL    C4545121   1.846   6.485   2.335 -0.1865 -0.2831  0.0972
  119MOL    C4645122   2.098   6.644   2.456 -0.1368  0.9523  0.2060
  119MOL    H4745123   2.047   6.519   2.621  1.3245  0.8981 -0.8662
  119MOL    H4845124   1.844   6.403   2.524 -0.7482  1.3753  0.0009
  119MOL    H4945125   1.984   6.242   2.430  1.0203 -0.8479 -0.0744
  119MOL    H5045126   2.128   6.328   2.462 -0.8442 -0.3293  2.8268
  119MOL    H5145127   2.034   6.242   2.218 -3.2917  0.5780  0.0169
  119MOL    H5245128   2.097   6.412   2.215  0.9745 -1.7857 -0.5893
  119MOL    H5345129   1.892   6.428   2.121 -1.3188  0.9004  0.2678
  119MOL    H5445130   1.831   6.301   2.223  0.8617 -0.3456  0.8453
  119MOL    H5545131   1.884   6.582   2.303 -0.1341 -0.3116  0.0743
  119MOL    H5645132   1.737   6.488   2.345 -0.3366  0.8111 -1.6913
  119MOL    H5745133   2.144   6.583   2.378  0.8223  1.8710  0.0540
  119MOL    H5845134   2.053   6.710   2.382  1.7674  2.5635  0.4449
  119MOL    C5945135   2.206   6.710   2.534 -0.2532 -0.3433  0.2276
  119MOL    C6045136   2.344   6.699   2.473 -0.4633 -0.3722  0.0472
  119MOL    C6145137   2.363   6.717   2.322  0.2554 -0.4273 -0.2050
  119MOL    C6245138   2.431   6.596   2.264 -0.1521 -0.3288  0.2669
  119MOL    C6345139   2.504   6.539   2.389  0.0514 -0.3531  0.3419
  119MOL    C6445140   2.419   6.568   2.508 -0.0385 -0.3628  0.2229
  119MOL    C6545141   2.159   6.861   2.559 -0.1512 -0.5694  0.1875
  119MOL    H6645142   2.224   6.658   2.629 -1.5376  0.8265  1.1437
  119MOL    H6745143   2.411   6.769   2.523  2.4174 -1.9726 -1.4090
  119MOL    H6845144   2.424   6.805   2.306  0.7754 -0.9755 -1.3399
  119MOL    H6945145   2.271   6.735   2.265  2.6827  2.2845 -3.4843
  119MOL    H7045146   2.482   6.604   2.168 -0.5048 -0.6408  0.0526
  119MOL    H7145147   2.355   6.522   2.240  0.3327 -0.6587 -0.2367
  119MOL    H7245148   2.589   6.608   2.382 -0.4221  0.2503  0.4958
  119MOL    H7345149   2.545   6.438   2.385 -2.4936 -1.3936 -0.1239
  119MOL    H7445150   2.354   6.484   2.536  2.6415 -2.5726 -0.0156
  119MOL    H7545151   2.493   6.574   2.587  1.2423 -3.0040 -0.7233
  119MOL    H7645152   2.051   6.873   2.555 -0.0750  0.0856  0.1440
  119MOL    H7745153   2.207   6.922   2.483  0.0919  0.7683  1.3978
  119MOL    C7845154   2.218   6.912   2.697 -0.3084  0.3741 -0.1769
  119MOL    C7945155   2.221   7.065   2.701 -0.3245 -0.5899  0.7560
  119MOL    C8045156   2.083   7.134   2.669 -0.1896  0.5745 -0.1601
  119MOL    C8145157   2.134   7.281   2.671 -0.2284  0.0294 -0.2452
  119MOL    C8245158   2.263   7.287   2.600  0.0891  0.1330 -0.2190
  119MOL    C8345159   2.320   7.139   2.607  0.0583  0.5213 -0.4781
  119MOL    C8445160   2.145   6.857   2.831 -0.4945  0.8963  0.0424
  119MOL    H8545161   2.322   6.879   2.701 -0.5873 -0.3249  1.7927
  119MOL    H8645162   2.253   7.089   2.803  1.4899  3.0759 -0.6134
  119MOL    H8745163   2.009   7.106   2.743  0.7814  0.3387  0.7296
  119MOL    H8845164   2.059   7.117   2.563 -1.2784 -2.6665  0.5401
  119MOL    H8945165   2.164   7.308   2.772 -0.3974 -0.7546  0.0144
  119MOL    H9045166   2.061   7.349   2.627  0.8775  0.3751 -1.5998
  119MOL    H9145167   2.265   7.328   2.498 -0.6383 -0.5991 -0.5311
  119MOL    H9245168   2.338   7.352   2.646  0.2893  0.2865 -0.7561
  119MOL    H9345169   2.313   7.094   2.508  1.4239 -0.8215  0.0193
  119MOL    H9445170   2.422   7.135   2.646 -0.6126 -0.4680  1.2492
  119MOL    H9545171   2.104   6.757   2.818 -1.3290  1.4218 -1.6063
  119MOL    H9645172   2.053   6.915   2.842 -1.6883 -0.0933 -3.9291
  119MOL    C9745173   2.238   6.857   2.954 -0.2730  0.5988 -0.3436
  119MOL    C9845174   2.341   6.736   2.959  0.1771 -0.3351  0.1804
  119MOL    C9945175   2.461   6.751   3.046 -0.0173 -0.3419  0.9739
  119MOL   C10045176   2.515   6.609   3.063 -0.3386 -0.4765 -0.7850
  119MOL   C10145177   2.391   6.531   3.086 -0.3833  0.3116 -0.4703
  119MOL   C10245178   2.280   6.606   3.012 -0.3057 -0.3185 -0.1185
  119MOL   C10345179   2.166   6.883   3.087  0.1838  0.2096 -0.1331
  119MOL   H10445180   2.305   6.941   2.937  1.7557 -0.6494  1.1579
  119MOL   H10545181   2.378   6.726   2.857  0.6414  0.0437  0.3125
  119MOL   H10645182   2.534   6.820   3.004 -0.2340 -1.4089 -1.2463
  119MOL   H10745183   2.432   6.796   3.140  0.7147  2.2560  0.0000
  119MOL   H10845184   2.584   6.614   3.147  0.4851 -0.5055 -1.4515
  119MOL   H10945185   2.558   6.568   2.971 -1.0337 -1.5086 -0.6633
  119MOL   H11045186   2.382   6.528   3.195 -0.5907  0.2793 -0.4869
  119MOL   H11145187   2.405   6.427   3.057  0.7138  0.4514 -0.4462
  119MOL   H11245188   2.245   6.546   2.928 -0.9705 -0.2360  0.0955
  119MOL   H11345189   2.189   6.611   3.071 -0.5959 -0.0650 -0.5882
  119MOL   H11445190   2.062   6.849   3.085  0.8078 -1.7405  0.8065
  119MOL   H11545191   2.214   6.826   3.166  0.1172 -1.4069 -1.2555
  119MOL   C11645192   2.164   7.034   3.141  0.0312 -0.6116 -0.8588
  119MOL   C11745193   2.065   7.128   3.056 -0.1364 -0.1121 -0.1146
  119MOL   C11845194   1.918   7.096   3.048 -0.4429 -0.1214  0.0769
  119MOL   C11945195   1.846   7.221   3.012 -0.7819  0.0707  0.3223
  119MOL   C12045196   1.944   7.337   3.036 -0.0016  0.0947 -0.9077
  119MOL   C12145197   2.074   7.274   3.089 -0.2825  1.2018 -0.3059
  119MOL   C12245198   2.125   7.039   3.295  0.9631  0.2793  0.8888
  119MOL   H12345199   2.265   7.073   3.128  0.0231  0.1108  1.0821
  119MOL   H12445200   2.100   7.106   2.955  0.5061 -0.7629  0.2503
  119MOL   H12545201   1.896   7.021   2.971  0.4543  0.2280 -0.5252
  119MOL   H12645202   1.877   7.061   3.142 -1.6088  0.2981 -0.2660
  119MOL   H12745203   1.746   7.240   3.050 -1.6306 -1.1720 -1.1968
  119MOL   H12845204   1.839   7.220   2.903  0.9733  1.3227  0.1716
  119MOL   H12945205   1.903   7.411   3.104 -0.0219 -0.4896 -0.2739
  119MOL   H13045206   1.958   7.378   2.936 -2.2922  1.4213 -0.6925
  119MOL   H13145207   2.159   7.331   3.052  0.1598  0.6159 -0.2123
  119MOL   H13245208   2.075   7.289   3.197  3.8014 -0.1010 -0.0797
  119MOL   H13345209   2.092   6.941   3.329 -0.3021 -0.1072 -1.3259
  119MOL   H13445210   2.043   7.108   3.314  0.5258  0.1898 -0.6258
  119MOL   C13545211   2.238   7.080   3.385  0.2576  0.2487  0.0785
  119MOL   C13645212   2.359   6.979   3.381  0.3615  0.3019 -0.0127
  119MOL   C13745213   2.341   6.846   3.444  0.3276 -0.1951  0.0079
  119MOL   C13845214   2.474   6.796   3.481 -0.6096 -0.8886 -0.8789
  119MOL   C13945215   2.543   6.924   3.530 -1.0367  0.0015  0.0460
  119MOL   C14045216   2.493   7.033   3.429 -1.1236 -0.2369 -0.3032
  119MOL   C14145217   2.176   7.102   3.527 -0.3139  0.5688  0.4140
  119MOL   H14245218   2.288   7.165   3.340  0.2539  0.0559 -0.2936
  119MOL   H14345219   2.372   6.958   3.274 -0.7128 -1.8588  0.2399
  119MOL   H14445220   2.284   6.852   3.536  1.4919 -1.1253  0.7971
  119MOL   H14545221   2.291   6.771   3.383  0.2146  0.1408 -0.3142
  119MOL   H14645222   2.519   6.763   3.387  3.6091  0.7040  0.4780
  119MOL   H14745223   2.478   6.714   3.553  2.2683 -2.0644 -2.3358
  119MOL   H14845224   2.651   6.906   3.530 -0.8360  1.1261 -0.9521
  119MOL   H14945225   2.517   6.944   3.634  2.7852 -0.7471  1.2159
  119MOL   H15045226   2.479   7.123   3.488  0.3344 -1.1034  1.4105
  119MOL   H15145227   2.554   7.047   3.339 -0.7490  0.6251  0.0853
  119MOL   H15245228   2.251   7.073   3.600  0.5737 -1.0293 -1.0824
  119MOL   H15345229   2.100   7.030   3.556  1.0291  0.0106  2.6341
  119MOL   C15445230   2.138   7.254   3.554  0.2173 -0.3691  0.1741
  119MOL   C15545231   2.053   7.273   3.676 -0.0177 -0.4602  0.1997
  119MOL   C15645232   2.101   7.213   3.811 -0.4411 -0.5807  0.1433
  119MOL   C15745233   1.978   7.210   3.897 -0.0227 -0.4832  0.2992
  119MOL   C15845234   1.856   7.214   3.802  0.6433 -0.0690 -0.3378
  119MOL   C15945235   1.915   7.217   3.659  0.1744  1.1502 -0.0667
  119MOL   C16045236   2.266   7.342   3.565 -0.9670  0.1778  0.4228
  119MOL   H16145237   2.086   7.300   3.470 -0.9285  0.0037  1.0798
  119MOL   H16245238   2.045   7.381   3.691 -1.5027 -0.7783  1.9022
  119MOL   H16345239   2.123   7.106   3.810  1.2988 -0.2305 -1.1644
  119MOL   H16445240   2.182   7.266   3.861 -1.3360  0.3269  0.6496
  119MOL   H16545241   1.979   7.126   3.967 -0.5050  0.2531  1.2095
  119MOL   H16645242   1.971   7.297   3.963  2.3581 -0.8506  1.0940
  119MOL   H16745243   1.790   7.297   3.825  0.1032 -0.7957  0.7996
  119MOL   H16845244   1.788   7.130   3.819 -0.0373  1.0566  2.9818
  119MOL   H16945245   1.866   7.276   3.582 -0.6104 -0.1106 -0.5555
  119MOL   H17045246   1.924   7.119   3.613 -0.1429  1.4495 -0.7755
  119MOL   H17145247   2.330   7.318   3.480 -1.9485  0.2290 -0.3402
  119MOL   H17245248   2.333   7.310   3.644 -1.4901 -1.2974  0.2821
  119MOL   C17345249   2.266   7.497   3.560  0.4556 -0.3219 -0.6795
  119MOL   C17445250   2.224   7.540   3.417  0.5462  0.2984  0.1107
  119MOL   C17545251   2.316   7.487   3.308 -0.1111 -0.1649 -0.5813
  119MOL   C17645252   2.291   7.583   3.193 -0.0755  0.0793  0.0291
  119MOL   C17745253   2.259   0.030   3.252  0.6690  1.1501  0.8053
  119MOL   C17845254   2.200   0.002   3.391  0.0187 -0.0591 -0.3813
  119MOL   C17945255   2.409   7.552   3.603  1.0038 -0.8718 -0.2712
  119MOL   H18045256   2.192   7.529   3.632  1.3613 -0.3398  0.2659
  119MOL   H18145257   2.130   7.487   3.404  2.9530 -4.3105  0.1922
  119MOL   H18245258   2.289   7.386   3.276 -0.8938  0.2559 -1.2414
  119MOL   H18345259   2.419   7.482   3.344  0.8214 -0.3917 -3.1648
  119MOL   H18445260   2.372   7.593   3.121  0.1375  1.1370  0.3939
  119MOL   H18545261   2.202   7.564   3.134  0.2594  0.3730 -0.5814
  119MOL   H18645262   2.199   0.094   3.186 -1.6520 -1.5418  0.2433
  119MOL   H18745263   2.352   0.087   3.261  0.5239  1.4040  0.7204
  119MOL   H18845264   2.249   0.061   3.468  0.3611  1.3125 -1.6379
  119MOL   H18945265   2.092   0.009   3.385 -0.0555 -1.1816 -0.6139
  119MOL   H19045266   2.482   7.476   3.575 -1.3019 -2.0994 -3.2247
  119MOL   H19145267   2.438   7.634   3.538 -0.7572  0.2033  0.2588
  119MOL   C19245268   2.411   7.609   3.746  0.2211  0.7198 -0.1658
  119MOL   C19345269   2.523   0.027   3.760  0.1976  0.4488  0.0256
  119MOL   C19445270   2.507   0.163   3.681 -0.3801  0.1235 -0.2125
  119MOL   C19545271   2.648   0.214   3.657  0.0222  0.2222 -0.0432
  119MOL   C19645272   2.734   0.081   3.658 -0.1557 -0.0423 -0.5539
  119MOL   C19745273   2.668   7.662   3.746 -0.6223  0.9154  0.3765
  119MOL   C19845274   2.413   7.499   3.852  0.0241  0.3867  0.5543
  119MOL   H19945275   2.322   7.670   3.762 -0.6345 -0.9789  1.8598
  119MOL   H20045276   2.511   0.057   3.863  1.5094 -1.7975  0.8763
  119MOL   H20145277   2.445   0.237   3.732 -3.2136 -2.9582  1.0456
  119MOL   H20245278   2.470   0.153   3.579 -0.5076  0.0293 -0.1577
  119MOL   H20345279   2.664   0.281   3.573  1.6552 -1.6652 -1.2725
  119MOL   H20445280   2.665   0.271   3.748 -2.4831  0.6657  0.1992
  119MOL   H20545281   2.832   0.109   3.698  0.0297 -1.6634  0.1551
  119MOL   H20645282   2.759   0.058   3.554  2.6958  2.7623 -0.5786
  119MOL   H20745283   2.725   7.667   3.838  2.3941  1.9243 -1.4644
  119MOL   H20845284   2.678   7.559   3.710  1.3043  0.9337  0.7856
  119MOL   H20945285   2.350   7.412   3.829 -1.0971  0.3800  3.3736
  119MOL   H21045286   2.515   7.462   3.852 -0.3936 -0.7939  0.1314
  119MOL   C21145287   2.382   7.542   3.997  0.4693 -0.4155  0.0153
  119MOL   C21245288   2.251   7.630   4.014 -0.0145  0.0773  0.2993
  119MOL   C21345289   2.119   7.562   3.954  0.5826  0.1380  0.0724
  119MOL   C21445290   2.013   7.624   4.042  0.6899  0.1576 -0.4042
  119MOL   C21545291   2.075   7.626   4.185 -0.3599 -0.2278  0.3758
  119MOL   C21645292   2.222   7.669   4.154  0.3779 -0.4687  0.1767
  119MOL   C21745293   2.386   7.419   4.088  0.1642  0.2994 -0.8600
  119MOL   H21845294   2.463   7.608   4.028 -0.9737  1.4232 -0.0690
  119MOL   H21945295   2.269   0.039   3.972 -0.0407  0.6114  1.5216
  119MOL   H22045296   2.096   7.592   3.852  0.3850  1.3481  0.4634
  119MOL   H22145297   2.114   7.454   3.962 -2.4488  0.3082  1.0067
  119MOL   H22245298   1.993   0.036   4.008 -1.1224  0.2465  0.8257
  119MOL   H22345299   1.919   7.570   4.053  0.3318  0.7931 -0.2661
  119MOL   H22445300   2.076   7.521   4.213 -0.9963 -0.0572  1.0701
  119MOL   H22545301   2.024   0.003   4.255 -0.4736  2.4624 -2.1496
  119MOL   H22645302   2.218   0.088   4.162 -0.7059 -0.3628 -1.6274
  119MOL   H22745303   2.305   7.640   4.218  1.1115  1.3455  0.0606
  119MOL   H22845304   2.295   7.364   4.064 -0.8359  0.4917  2.3111
  119MOL   H22945305   2.373   7.453   4.191 -2.4619  0.5635 -1.2509
  119MOL   C23045306   2.514   7.326   4.096  0.0828  0.3091 -0.3416
  119MOL   C23145307   2.489   7.201   4.187  0.7434  0.2521  0.2503
  119MOL   C23245308   2.458   7.227   4.340 -0.0377  1.0531  0.9755
  119MOL   C23345309   2.406   7.086   4.381  0.2281  0.6980  0.0691
  119MOL   C23445310   2.354   7.005   4.247 -0.6956 -0.5040  0.1513
  119MOL   C23545311   2.384   7.107   4.137  0.2083  0.8933 -0.2132
  119MOL   C23645312   2.637   7.407   4.142 -0.0276 -0.3283  0.0979
  119MOL   H23745313   2.527   7.287   3.995 -1.8410 -2.0335  0.2657
  119MOL   H23845314   2.578   7.139   4.179 -0.1085 -0.6496 -2.8632
  119MOL   H23945315   2.543   7.261   4.398  0.0729  3.1869 -0.3695
  119MOL   H24045316   2.391   7.310   4.362  0.6564  1.4909  1.4615
  119MOL   H24145317   2.482   7.031   4.437 -0.6677 -1.5764 -0.8760
  119MOL   H24245318   2.328   7.092   4.456 -0.4244 -0.4888 -0.5006
  119MOL   H24345319   2.250   6.973   4.251 -0.3353 -1.7871 -0.4222
  119MOL   H24445320   2.413   6.914   4.235  0.5092  0.3838 -0.7495
  119MOL   H24545321   2.293   7.155   4.101 -0.4098 -1.4332 -1.9491
  119MOL   H24645322   2.408   7.062   4.040  1.4738  0.6675  0.1864
  119MOL   H24745323   2.613   7.437   4.244 -1.8078 -0.8487 -0.1539
  119MOL   H24845324   2.659   7.502   4.093  2.6789 -1.2985 -0.6461
  119MOL   C24945325   2.779   7.335   4.141  0.7985 -0.3360 -0.0670
  119MOL   C25045326   2.880   7.406   4.239 -0.3893  0.0278 -0.8293
  119MOL   C25145327   2.844   7.413   4.393 -0.7916  0.1795 -0.4172
  119MOL   C25245328   2.869   7.553   4.437 -0.3801 -0.0331 -0.0545
  119MOL   C25345329   2.975   7.604   4.336 -0.7279  0.2875  0.3002
  119MOL   C25445330   2.937   7.539   4.206 -0.1447 -0.0969 -0.2441
  119MOL   C25545331   2.859   7.320   4.006  0.2401  0.7879 -0.2270
  119MOL   H25645332   2.766   7.235   4.180  0.2417 -0.0470  0.4810
  119MOL   H25745333   2.965   7.338   4.241  0.0769  0.5831 -1.8215
  119MOL   H25845334   2.924   7.352   4.433 -0.3540 -1.2245 -3.2715
  119MOL   H25945335   2.747   7.375   4.425 -1.7595  1.1979 -2.0268
  119MOL   H26045336   2.899   7.551   4.542  1.7141  0.4276 -0.6054
  119MOL   H26145337   2.797   7.634   4.427  1.3117  1.4657 -0.3035
  119MOL   H26245338   3.076   7.572   4.359 -1.1755 -1.0484  0.4836
  119MOL   H26345339   2.972   0.023   4.330 -1.3838  0.5434  4.3977
  119MOL   H26445340   3.021   7.530   4.136  0.1602 -0.1589  0.1248
  119MOL   H26545341   2.865   7.597   4.148 -2.3733 -2.9880 -0.4325
  119MOL   H26645342   2.853   7.418   3.957  1.2612  1.0927  0.2434
  119MOL   H26745343   2.965   7.311   4.029 -0.0499  1.0078  1.2219
  119MOL   C26845344   2.813   7.213   3.901 -0.3183  0.3797  0.0165
  119MOL   C26945345   2.886   7.077   3.921 -0.0408 -1.0851  0.1792
  119MOL   C27045346   2.829   6.956   3.833 -0.3945 -0.1461 -0.5705
  119MOL   C27145347   2.862   6.828   3.909  0.8890  0.0486  0.1611
  119MOL   C27245348   2.900   6.867   4.054  0.1751 -0.5833 -0.5697
  119MOL   C27345349   2.872   7.018   4.062 -0.3114  0.4820 -0.4484
  119MOL   C27445350   2.818   7.259   3.752  0.4462 -0.2106 -0.2798
  119MOL   H27545351   2.706   7.193   3.911 -0.0553 -1.5246 -0.7012
  119MOL   H27645352   2.993   7.082   3.901  0.0937  0.6459  1.2217
  119MOL   H27745353   2.722   6.946   3.816 -0.4905 -0.7038  0.3288
  119MOL   H27845354   2.867   6.949   3.731  3.0518 -0.3114  0.6375
  119MOL   H27945355   2.773   6.764   3.915  2.1573 -1.7358  0.4882
  119MOL   H28045356   2.923   6.761   3.848  0.2439 -0.5991  0.2134
  119MOL   H28145357   3.005   6.853   4.080 -0.2032 -0.8675  0.8676
  119MOL   H28245358   2.839   6.817   4.130 -1.3819  1.2719 -0.5513
  119MOL   H28345359   2.931   7.077   4.133 -1.0057  0.7463 -0.0907
  119MOL   H28445360   2.769   7.017   4.099 -0.1004 -0.8067  0.1558
  119MOL   H28545361   2.772   7.354   3.723 -1.0326  0.0572  2.7282
  119MOL   H28645362   2.747   7.192   3.706  0.1719 -1.0775  1.3611
  119MOL   C28745363   2.956   7.263   3.676 -0.6374 -0.1129 -0.2984
  119MOL   C28845364   2.929   7.245   3.520 -0.0448  0.4958  0.3888
  119MOL   C28945365   2.815   7.324   3.445 -0.1469  0.3328 -0.1708
  119MOL   C29045366   2.841   7.285   3.293 -0.2962  0.7283 -0.1237
  119MOL   C29145367   2.998   7.272   3.285  0.3157 -1.2541  0.4347
  119MOL   C29245368   3.051   7.256   3.426 -0.6868  0.1400 -0.2388
  119MOL   C29345369   3.038   7.394   3.700 -0.9049  0.4758  0.1497
  119MOL   H29445370   3.025   7.184   3.705 -0.0673  0.1933 -0.8131
  119MOL   H29545371   2.896   7.143   3.501 -0.3403  0.8385 -0.9935
  119MOL   H29645372   2.719   7.304   3.490  0.5290 -0.4739  0.9352
  119MOL   H29745373   2.837   7.431   3.451 -1.4106  0.8231 -3.5238
  119MOL   H29845374   2.815   7.180   3.277  1.4770  0.0628  1.1773
  119MOL   H29945375   2.795   7.356   3.225 -0.3456  1.9444  1.1482
  119MOL   H30045376   3.040   7.361   3.238 -0.8453 -0.2855  1.2223
  119MOL   H30145377   3.034   7.188   3.225  0.2581 -1.1081  0.1933
  119MOL   H30245378   3.105   7.347   3.452  0.9664 -1.5099  2.3196
  119MOL   H30345379   3.114   7.168   3.441 -1.8368 -0.2307  2.9136
  119MOL   H30445380   2.998   7.434   3.793 -0.1923 -0.9422  1.0775
  119MOL   H30545381   3.005   7.468   3.626 -1.7738  0.2481  0.3049
  119MOL   C30645382   3.191   7.378   3.715 -0.1245 -0.4098  0.2267
  119MOL   C30745383   3.277   7.502   3.719 -0.4733 -0.2500 -0.8204
  119MOL   C30845384   3.290   7.575   3.585 -0.2929  0.0183  0.3382
  119MOL   C30945385   3.294   0.033   3.616 -0.4595 -0.1664 -0.4099
  119MOL   C31045386   3.287   0.050   3.765  0.1618  0.1503  0.0796
  119MOL   C31145387   3.238   7.611   3.815  0.6467  0.0534 -0.6128
  119MOL   C31245388   3.231   7.297   3.838 -0.3144  0.4330 -0.0534
  119MOL   H31345389   3.225   7.325   3.627 -0.2803 -1.9436  1.0692
  119MOL   H31445390   3.376   7.468   3.749 -1.5491 -1.4679  1.5439
  119MOL   H31545391   3.215   7.550   3.510 -0.4631 -0.4664  0.6650
  119MOL   H31645392   3.388   7.542   3.550  0.0996 -0.1458  1.5704
  119MOL   H31745393   3.384   0.071   3.568 -0.6027 -0.2034 -0.7077
  119MOL   H31845394   3.207   0.086   3.578 -0.6086 -0.1120  0.0056
  119MOL   H31945395   3.220   0.132   3.789 -0.7596  0.1625 -2.4106
  119MOL   H32045396   3.388   0.059   3.805 -1.2521  2.1103  3.3819
  119MOL   H32145397   3.272   7.576   3.912 -0.0072 -2.1411 -1.1454
  119MOL   H32245398   3.130   7.619   3.831  0.5878  0.4614 -1.1685
  119MOL   H32345399   3.138   7.269   3.888 -1.7115  3.3779 -0.9033
  119MOL   H32445400   3.262   7.369   3.914  2.0962  0.2783 -0.8346
  119MOL   C32545401   3.321   7.169   3.834  0.2975  0.0242 -0.5140
  119MOL   C32645402   3.360   7.129   3.975 -0.3148  0.0629 -0.0351
  119MOL   C32745403   3.243   7.109   4.089 -0.3869  0.1338  0.4580
  119MOL   C32845404   3.317   7.147   4.218 -0.0188  0.5167  0.3086
  119MOL   C32945405   3.417   7.259   4.179 -0.2071 -0.1141  0.7148
  119MOL   C33045406   3.456   7.230   4.035  0.0704 -1.1252  0.3476
  119MOL   C33145407   3.444   7.165   3.740  0.6109 -0.1723 -0.0207
  119MOL   H33245408   3.246   7.092   3.820 -0.1104  0.7894 -2.9090
  119MOL   H33345409   3.406   7.031   3.968  1.0441  0.6783  0.1139
  119MOL   H33445410   3.203   7.008   4.087  1.0093 -0.4374  0.3315
  119MOL   H33545411   3.171   7.191   4.084 -0.3588  0.1261 -0.0586
  119MOL   H33645412   3.367   7.057   4.253  0.8152 -0.0324 -2.1701
  119MOL   H33745413   3.248   7.168   4.300  0.6787  4.0690  0.0479
  119MOL   H33845414   3.504   7.258   4.245  1.6967 -1.0490 -1.7253
  119MOL   H33945415   3.375   7.360   4.182  0.3695  0.2105 -0.9768
  119MOL   H34045416   3.550   7.176   4.042  0.3213 -0.6671  0.5395
  119MOL   H34145417   3.480   7.316   3.972 -0.8316 -0.9864  0.1860
  119MOL   H34245418   3.529   7.206   3.796 -0.7538  0.6545  1.4711
  119MOL   H34345419   3.425   7.232   3.656  0.6189 -0.6601 -0.4186
  119MOL   C34445420   3.476   7.022   3.685 -0.0907  0.4096  0.4393
  119MOL   C34545421   3.623   7.008   3.636  0.2240  0.2967 -0.5331
  119MOL   C34645422   3.728   7.002   3.746  0.1116 -0.4138  0.3956
  119MOL   C34745423   3.863   7.044   3.679  0.5408  0.1127  1.2317
  119MOL   C34845424   3.820   7.053   3.531 -0.4235 -0.3728  0.0705
  119MOL   C34945425   3.674   7.092   3.518  0.9133  0.2022 -0.5641
  119MOL   C35045426   3.362   6.955   3.596 -0.5672  0.1539 -0.7088
  119MOL   H35145427   3.473   6.959   3.774  0.1950  1.9971  1.5846
  119MOL   H35245428   3.635   6.905   3.600  0.1313  0.1169 -0.0516
  119MOL   H35345429   3.728   6.899   3.779 -2.8454 -0.0492  1.7004
  119MOL   H35445430   3.708   7.067   3.832 -0.9091  0.8129 -0.7390
  119MOL   H35545431   3.920   7.131   3.711  2.4500 -1.2479  1.5905
  119MOL   H35645432   3.933   6.961   3.689  0.1259 -0.8732 -3.0237
  119MOL   H35745433   3.841   6.952   3.497 -2.1116 -0.6076 -0.3187
  119MOL   H35845434   3.887   7.124   3.483 -1.5897 -0.6373 -1.9725
  119MOL   H35945435   3.654   7.197   3.543  1.1542  0.2358 -0.5091
  119MOL   H36045436   3.630   7.070   3.421  0.8505  1.9430 -0.9600
  119MOL   H36145437   3.367   6.989   3.493  2.3698  0.6084 -0.4570
  119MOL   H36245438   3.263   6.988   3.630 -0.7634 -1.0711 -0.0765
  119MOL   C36345439   3.369   6.802   3.603 -0.0857  0.4555 -0.3537
  119MOL   C36445440   3.348   6.725   3.738 -0.0029 -0.4032  0.1284
  119MOL   C36545441   3.371   6.573   3.737  0.1243  0.1409  0.4175
  119MOL   C36645442   3.281   6.501   3.838  0.8605 -0.6123  0.4831
  119MOL   C36745443   3.161   6.604   3.858 -0.1528  0.5058  0.4895
  119MOL   C36845444   3.208   6.735   3.798  0.0447  0.0850 -0.1598
  119MOL   C36945445   3.270   6.753   3.486  0.4840 -0.1665 -0.0178
  119MOL   H37045446   3.461   6.757   3.564  0.3511  1.4067 -0.4155
  119MOL   H37145447   3.423   6.761   3.809  1.4105 -1.5117 -0.7799
  119MOL   H37245448   3.346   6.534   3.638 -0.4155  0.9195  0.2398
  119MOL   H37345449   3.477   6.563   3.763 -0.3035  2.5308  3.2872
  119MOL   H37445450   3.252   6.402   3.804 -1.9931 -0.2666  1.6964
  119MOL   H37545451   3.336   6.470   3.927  0.1600  1.3432  1.6205
  119MOL   H37645452   3.075   6.562   3.807 -0.5182  1.3922  0.3650
  119MOL   H37745453   3.150   6.594   3.966 -0.3464 -0.3125  0.3980
  119MOL   H37845454   3.204   6.812   3.875 -0.3915 -0.2302  0.1349
  119MOL   H37945455   3.137   6.760   3.719  1.4846  2.0125 -0.8964
  119MOL   H38045456   3.308   6.777   3.387  0.7812 -1.8917 -0.3337
  119MOL   H38145457   3.173   6.804   3.491  0.1945 -0.7303  0.1222
  119MOL   H38245458   3.234   6.651   3.498 -3.8040  1.3855  1.3163
  120MOL     C145459   5.228   2.715   3.180  0.3183  0.3742 -0.1464
  120MOL     C245460   5.244   2.591   3.282 -0.2276 -1.0324  0.3677
  120MOL     C345461   5.377   2.518   3.285  0.4200  0.0874  0.8870
  120MOL     C445462   5.343   2.367   3.311 -0.1590 -0.3658 -0.1819
  120MOL     C545463   5.209   2.353   3.245  0.0468 -0.5465  0.5030
  120MOL     C645464   5.140   2.489   3.244 -0.0659  0.8451  0.2681
  120MOL     C745465   5.307   2.830   3.232 -0.0223 -0.2705 -0.0586
  120MOL     H845466   5.266   2.693   3.080  0.7877  2.9249 -0.5774
  120MOL     H945467   5.212   2.617   3.383 -2.2012  0.7521 -0.6797
  120MOL    H1045468   5.426   2.528   3.188 -1.1258  1.7029  0.2573
  120MOL    H1145469   5.445   2.566   3.355 -0.4181  0.7040  1.2764
  120MOL    H1245470   5.406   2.282   3.280  0.6715  0.7703 -1.7074
  120MOL    H1345471   5.341   2.346   3.418 -1.6389 -4.6640 -0.9227
  120MOL    H1445472   5.217   2.311   3.145 -2.1756 -2.9272  1.2618
  120MOL    H1545473   5.156   2.271   3.294 -4.3153  2.6425  1.4213
  120MOL    H1645474   5.047   2.494   3.300  1.0584  0.9519  2.1660
  120MOL    H1745475   5.101   2.507   3.144  0.5103  0.0009 -0.1125
  120MOL    H1845476   5.283   2.838   3.337 -1.1340  1.4144 -0.4252
  120MOL    H1945477   5.414   2.808   3.223  0.3021  0.2616  2.3566
  120MOL    H2045478   5.122   2.736   3.168 -0.2301 -0.1350  3.2641
  120MOL    C2145479   5.272   2.966   3.160  0.3159 -0.5307  0.2443
  120MOL    C2245480   5.267   3.082   3.262 -0.2466  0.3392  0.1630
  120MOL    C2345481   5.392   3.105   3.354  0.2823 -0.1354  0.5000
  120MOL    C2445482   5.354   3.171   3.482 -0.3619  0.3339 -0.1154
  120MOL    C2545483   5.217   3.109   3.507 -0.5555  0.3322  0.6372
  120MOL    C2645484   5.154   3.072   3.369 -0.1388  0.6390  0.5747
  120MOL    C2745485   5.369   3.013   3.047  0.4720  0.3118 -0.3026
  120MOL    H2845486   5.171   2.948   3.121  0.9019 -2.6152 -0.3596
  120MOL    H2945487   5.252   3.177   3.211 -0.9768 -1.0788 -2.3709
  120MOL    H3045488   5.474   3.158   3.306 -2.0494  1.3519 -2.0133
  120MOL    H3145489   5.442   3.011   3.373 -2.2927 -1.8182 -0.6951
  120MOL    H3245490   5.425   3.161   3.564 -3.2304 -1.5204  2.2606
  120MOL    H3345491   5.339   3.276   3.455  1.9175  0.3405 -1.4738
  120MOL    H3445492   5.148   3.179   3.554 -1.5075 -1.6455  2.2433
  120MOL    H3545493   5.214   3.020   3.570 -1.0963  0.7021  1.1423
  120MOL    H3645494   5.077   3.145   3.342  0.3776  0.2957 -1.9860
  120MOL    H3745495   5.112   2.971   3.370  0.1924  0.4851 -0.2999
  120MOL    H3845496   5.349   3.119   3.032  2.1813  0.9197  1.5264
  120MOL    H3945497   5.470   2.999   3.086 -0.3412 -2.2444  0.9295
  120MOL    C4045498   5.364   2.932   2.917 -0.2825  1.0270 -1.0788
  120MOL    C4145499   5.224   2.925   2.850 -0.3992  0.6232 -0.2120
  120MOL    C4245500   5.211   2.815   2.745 -0.1134 -0.1910 -0.6153
  120MOL    C4345501   5.071   2.856   2.684 -0.1623 -0.0581  0.3239
  120MOL    C4445502   5.049   3.005   2.715 -0.5868 -0.4462 -0.2972
  120MOL    C4545503   5.175   3.053   2.788  0.1459  0.2224  0.7949
  120MOL    C4645504   5.475   2.969   2.818  0.7276 -0.4088 -0.0518
  120MOL    H4745505   5.384   2.828   2.945 -0.2238  0.8844 -1.6482
  120MOL    H4845506   5.146   2.900   2.921  1.0144  1.0304  1.5039
  120MOL    H4945507   5.217   2.716   2.790  0.6873  0.4003  0.6019
  120MOL    H5045508   5.274   2.818   2.656  0.0576  0.9649 -0.4661
  120MOL    H5145509   4.988   2.798   2.725 -1.1590  1.9066  1.1519
  120MOL    H5245510   5.070   2.844   2.576  0.1873 -0.5217  0.3715
  120MOL    H5345511   5.023   3.073   2.634  0.2838 -0.7415 -0.8311
  120MOL    H5445512   4.959   3.017   2.775  0.0256 -0.8677  0.7148
  120MOL    H5545513   5.253   3.099   2.728 -0.3409 -0.7935 -0.6664
  120MOL    H5645514   5.133   3.118   2.865 -0.6475  0.4510  0.1784
  120MOL    H5745515   5.462   2.931   2.717  0.8854 -0.1429 -0.1736
  120MOL    H5845516   5.449   3.075   2.806 -1.3506 -0.6801  1.6938
  120MOL    C5945517   5.622   2.960   2.850 -0.1403  0.3547 -0.4991
  120MOL    C6045518   5.679   2.814   2.876 -0.6441 -0.4096 -0.1613
  120MOL    C6145519   5.811   2.819   2.936 -0.0078  0.0619 -0.5537
  120MOL    C6245520   5.884   2.687   2.906  0.0127  0.4082 -0.0010
  120MOL    C6345521   5.828   2.641   2.776 -0.1507 -0.5575 -0.1196
  120MOL    C6445522   5.696   2.720   2.758  0.0795  0.1617 -0.4451
  120MOL    C6545523   5.700   3.042   2.745  0.2298  0.1358  0.0070
  120MOL    H6645524   5.644   3.008   2.945  1.5300  1.4932 -1.4475
  120MOL    H6745525   5.615   2.773   2.954  1.5118 -1.2040  1.2267
  120MOL    H6845526   5.796   2.840   3.042 -1.8105  1.1974 -1.0198
  120MOL    H6945527   5.873   2.903   2.905 -1.4420  0.7406 -1.6437
  120MOL    H7045528   5.869   2.613   2.984  1.3439  0.2799  0.1546
  120MOL    H7145529   5.992   2.705   2.902  0.0881 -0.2303 -1.1894
  120MOL    H7245530   5.801   2.536   2.767  0.4468 -0.8133  0.9658
  120MOL    H7345531   5.892   2.662   2.690  1.8763  0.2452  1.5384
  120MOL    H7445532   5.711   2.762   2.659  1.6237 -3.8131 -2.0174
  120MOL    H7545533   5.604   2.663   2.747  0.7939 -1.0890 -0.1402
  120MOL    H7645534   5.655   3.029   2.646  1.1970 -0.1191 -0.4054
  120MOL    H7745535   5.804   3.012   2.729  0.1224  0.3627 -1.1699
  120MOL    C7845536   5.705   3.190   2.794 -0.3753 -0.3610  0.2939
  120MOL    C7945537   5.816   3.212   2.897  0.2699  0.5995  0.5814
  120MOL    C8045538   5.793   3.341   2.980  0.4150  0.5727 -0.3200
  120MOL    C8145539   5.931   3.396   3.015 -0.7013 -0.1020 -0.0229
  120MOL    C8245540   6.036   3.304   2.957 -0.5592 -0.4392 -0.1850
  120MOL    C8345541   5.965   3.224   2.851 -0.1484  0.1396 -1.3560
  120MOL    C8445542   5.728   3.282   2.671  0.2742 -0.0443 -0.5131
  120MOL    H8545543   5.607   3.207   2.838  0.8285  0.1698  2.8690
  120MOL    H8645544   5.815   3.135   2.974  5.6931  0.1666  0.3907
  120MOL    H8745545   5.760   3.306   3.078  1.4866  0.4241 -0.0092
  120MOL    H8845546   5.713   3.411   2.956  0.6932  0.8462 -0.4530
  120MOL    H8945547   5.953   3.409   3.121  0.5855 -0.1854 -0.2648
  120MOL    H9045548   5.935   3.485   2.952  1.6079  0.4288  0.8090
  120MOL    H9145549   6.122   3.357   2.918 -1.1011 -1.2405 -2.5740
  120MOL    H9245550   6.065   3.233   3.035 -0.2994 -1.2183 -0.9825
  120MOL    H9345551   5.985   3.270   2.754  1.9345 -0.1851 -1.1064
  120MOL    H9445552   6.011   3.125   2.842 -1.1921 -0.6045  1.0542
  120MOL    H9545553   5.803   3.233   2.609  0.9334 -1.4605  1.3815
  120MOL    H9645554   5.768   3.377   2.706 -1.2253  0.2237  0.5313
  120MOL    C9745555   5.599   3.310   2.589  0.4121 -0.1408 -0.3081
  120MOL    C9845556   5.620   3.316   2.444  0.0330  0.6508 -0.6284
  120MOL    C9945557   5.722   3.420   2.384  0.0663  0.4677 -0.0832
  120MOL   C10045558   5.791   3.356   2.263  0.2538 -0.8652 -0.0139
  120MOL   C10145559   5.793   3.213   2.305 -0.1863 -0.3166  0.4255
  120MOL   C10245560   5.661   3.181   2.379  0.2734  0.4325 -0.0896
  120MOL   C10345561   5.527   3.437   2.647  0.1128 -0.7979 -0.4954
  120MOL   H10445562   5.532   3.227   2.606  1.2757 -0.5334  1.2879
  120MOL   H10545563   5.525   3.348   2.401 -0.5558 -1.8142 -1.2294
  120MOL   H10645564   5.675   3.517   2.371 -1.9887 -0.3786  0.9440
  120MOL   H10745565   5.809   3.441   2.447  1.4130 -0.5544 -1.5365
  120MOL   H10845566   5.892   3.389   2.237  0.6370 -0.3934  1.9701
  120MOL   H10945567   5.727   3.369   2.176 -2.4234 -0.0878  2.0222
  120MOL   H11045568   5.882   3.202   2.367  0.5924  2.5454 -0.1080
  120MOL   H11145569   5.799   3.148   2.217 -0.5785  1.3715 -0.8789
  120MOL   H11245570   5.592   3.147   2.302  1.0499  0.5932 -0.8683
  120MOL   H11345571   5.685   3.090   2.434 -0.8204  0.1496 -0.0799
  120MOL   H11445572   5.569   3.450   2.746 -1.8159  0.3008  0.1920
  120MOL   H11545573   5.563   3.528   2.599 -2.9464  0.8673  0.2198
  120MOL   C11645574   5.378   3.424   2.650  1.0037 -0.3305  0.4957
  120MOL   C11745575   5.316   3.473   2.790  0.1697 -0.3432  0.3856
  120MOL   C11845576   5.335   3.379   2.916 -0.0820  0.3780  0.2088
  120MOL   C11945577   5.357   3.470   3.042 -0.3457 -0.2888 -0.0011
  120MOL   C12045578   5.324   3.617   2.993 -0.9540  0.9671 -0.4332
  120MOL   C12145579   5.357   3.613   2.843  0.5519 -0.6486  1.4679
  120MOL   C12245580   5.301   3.503   2.536  0.5654 -0.2074 -0.2338
  120MOL   H12345581   5.336   3.323   2.644 -1.2632  0.6477 -0.8548
  120MOL   H12445582   5.208   3.466   2.780  0.0813  0.2014  0.8974
  120MOL   H12545583   5.257   3.309   2.946 -0.7799  1.5638  1.1807
  120MOL   H12645584   5.424   3.321   2.891  0.1081  0.6703  0.2096
  120MOL   H12745585   5.455   3.463   3.089  0.4147  2.3280 -1.0904
  120MOL   H12845586   5.275   3.455   3.112 -0.2234  0.7050  0.3583
  120MOL   H12945587   5.392   3.681   3.051 -0.4767 -2.1556  2.6503
  120MOL   H13045588   5.227   3.657   3.021 -0.9095  1.2519 -0.6884
  120MOL   H13145589   5.310   3.689   2.780  0.1547 -3.1282 -1.3526
  120MOL   H13245590   5.465   3.627   2.832  0.4578 -1.2949 -0.5645
  120MOL   H13345591   5.347   3.500   2.438 -1.6894 -2.6583 -1.2827
  120MOL   H13445592   5.300   3.611   2.550 -1.7036  0.0063 -1.7308
  120MOL   C13545593   5.149   3.457   2.515 -0.2036 -0.6873  0.1118
  120MOL   C13645594   5.152   3.363   2.393  0.4202 -0.3194  0.3203
  120MOL   C13745595   5.013   3.302   2.374 -0.3606  0.1849  0.0242
  120MOL   C13845596   5.043   3.186   2.282  0.1079 -0.3513  0.3862
  120MOL   C13945597   5.182   3.136   2.310  0.0607 -0.1570 -0.3469
  120MOL   C14045598   5.236   3.238   2.411 -0.8894 -0.2254  0.8044
  120MOL   C14145599   5.063   3.580   2.487 -0.5992  0.1535 -0.2795
  120MOL   H14245600   5.105   3.403   2.598  1.7508 -0.1892  1.4943
  120MOL   H14345601   5.183   3.417   2.304  1.0392 -1.2935 -0.0706
  120MOL   H14445602   4.958   3.266   2.461 -1.3566  0.2791 -0.5651
  120MOL   H14545603   4.938   3.369   2.333  1.0230  1.7265 -0.0603
  120MOL   H14645604   5.047   3.233   2.184 -0.6654  0.7890  0.8949
  120MOL   H14745605   4.965   3.110   2.273 -1.7373  1.6782 -1.3215
  120MOL   H14845606   5.245   3.135   2.221 -0.7241 -3.4776 -0.9184
  120MOL   H14945607   5.178   3.041   2.362 -1.0030 -0.3658 -0.7973
  120MOL   H15045608   5.226   3.205   2.514  0.4921 -2.5913  0.2217
  120MOL   H15145609   5.341   3.256   2.386 -0.9154 -1.9507 -0.6318
  120MOL   H15245610   4.974   3.557   2.429 -0.2144 -1.2772 -0.3253
  120MOL   H15345611   5.114   3.642   2.414  0.5988  0.9906  1.2267
  120MOL   C15445612   5.020   3.657   2.618  0.5792 -0.6568  0.3078
  120MOL   C15545613   5.011   3.815   2.599  0.3847  0.2510 -0.3204
  120MOL   C15645614   4.902   3.871   2.499  0.1230 -0.7025 -0.2396
  120MOL   C15745615   4.958   4.009   2.457 -0.3021  0.2684 -0.1957
  120MOL   C15845616   5.110   3.995   2.455 -0.6206 -0.8692 -0.4025
  120MOL   C15945617   5.141   3.887   2.561 -0.4616 -0.5632  0.4842
  120MOL   C16045618   4.885   3.612   2.673  0.0204  0.2852  0.1176
  120MOL   H16145619   5.098   3.629   2.689  0.0028  0.7877  1.5247
  120MOL   H16245620   4.992   3.852   2.700 -0.2392  1.0925 -0.7511
  120MOL   H16345621   4.890   3.800   2.417  0.6023  0.1142 -1.0154
  120MOL   H16445622   4.804   3.884   2.544  1.9503  1.5603  3.3705
  120MOL   H16545623   4.935   4.032   2.353  1.1418 -0.0132 -0.5954
  120MOL   H16645624   4.934   4.088   2.527  2.0184  0.4698  0.4336
  120MOL   H16745625   5.161   4.091   2.459  0.8570 -1.6593 -0.0310
  120MOL   H16845626   5.149   3.951   2.364 -1.0140 -0.1569 -0.9220
  120MOL   H16945627   5.186   3.932   2.650 -0.3050  0.4505 -0.0936
  120MOL   H17045628   5.226   3.830   2.525 -1.1320 -1.5562  0.4524
  120MOL   H17145629   4.861   3.510   2.644  2.5075 -0.0469 -0.9072
  120MOL   H17245630   4.806   3.663   2.618 -2.0169 -1.7068  1.1344
  120MOL   C17345631   4.857   3.619   2.825 -0.1448 -1.1991  0.2095
  120MOL   C17445632   4.922   3.493   2.895  0.3704  0.7727  0.3198
  120MOL   C17545633   4.878   3.348   2.855 -0.2939 -0.3725 -0.4319
  120MOL   C17645634   4.851   3.277   2.983 -0.1422 -0.6789 -0.2431
  120MOL   C17745635   4.944   3.340   3.075 -0.4949  0.0866 -0.5199
  120MOL   C17845636   4.935   3.488   3.048 -0.2151  0.2841  0.5944
  120MOL   C17945637   4.706   3.620   2.855 -0.3813 -0.4379  0.3365
  120MOL   H18045638   4.918   3.703   2.857 -0.7587  0.1035 -1.9121
  120MOL   H18145639   5.029   3.500   2.873  0.4601  1.5387  0.9857
  120MOL   H18245640   4.955   3.298   2.796  0.7176  1.2559 -0.5101
  120MOL   H18345641   4.781   3.346   2.804 -0.1314 -1.7996 -0.7094
  120MOL   H18445642   4.752   3.293   3.026  0.4168 -1.2838  1.3053
  120MOL   H18545643   4.854   3.169   2.978  0.0145 -0.7501  1.2444
  120MOL   H18645644   5.034   3.288   3.042  0.2973  2.1789 -1.7231
  120MOL   H18745645   4.930   3.306   3.178  0.4097 -0.8964 -0.7106
  120MOL   H18845646   4.852   3.529   3.106 -1.2636  0.4051 -0.9855
  120MOL   H18945647   5.023   3.545   3.081  0.9946  0.5804 -2.9450
  120MOL   H19045648   4.651   3.535   2.815 -0.1354 -0.9835  1.1308
  120MOL   H19145649   4.699   3.605   2.963 -0.7063 -0.6664  0.2846
  120MOL   C19245650   4.617   3.744   2.818 -0.9029  0.2615 -0.0096
  120MOL   C19345651   4.649   3.866   2.912 -0.0792 -0.4942 -0.6951
  120MOL   C19445652   4.577   3.851   3.041  0.3976  0.2144  0.2951
  120MOL   C19545653   4.571   3.994   3.098  0.0030  1.0930  0.2756
  120MOL   C19645654   4.591   4.089   2.981 -0.9353  0.4256  0.9024
  120MOL   C19745655   4.602   3.997   2.863  0.0749  0.7581  0.4131
  120MOL   C19845656   4.457   3.712   2.806 -0.4192  0.5887  0.1969
  120MOL   H19945657   4.663   3.767   2.722  1.8634 -1.1078  0.9413
  120MOL   H20045658   4.756   3.871   2.935 -0.2542  3.3862 -0.3150
  120MOL   H20145659   4.628   3.785   3.112 -0.7053  1.0269  1.8681
  120MOL   H20245660   4.476   3.811   3.032  1.0631 -1.3191 -0.5741
  120MOL   H20345661   4.476   4.015   3.146  0.3190  2.0210  0.4990
  120MOL   H20445662   4.640   3.995   3.182 -1.5479 -1.5153  1.6753
  120MOL   H20545663   4.679   4.153   2.985 -1.2170  0.7243  2.6796
  120MOL   H20645664   4.500   4.148   2.971 -0.4586  0.9114 -0.8415
  120MOL   H20745665   4.655   4.037   2.777  0.8887 -0.1873  0.4712
  120MOL   H20845666   4.498   3.989   2.829  0.0362  0.3334  0.6246
  120MOL   H20945667   4.424   3.671   2.901  1.7417 -0.8220  0.3867
  120MOL   H21045668   4.406   3.809   2.807  2.2824  2.0463  1.0211
  120MOL   C21145669   4.399   3.626   2.688 -0.0533 -0.1882  0.7901
  120MOL   C21245670   4.470   3.645   2.551 -0.0688 -0.3073  0.3206
  120MOL   C21345671   4.402   3.561   2.442  0.5789  0.7792 -0.0524
  120MOL   C21445672   4.483   3.610   2.321  0.3915 -0.5072 -0.0396
  120MOL   C21545673   4.505   3.760   2.335  0.1283  0.8108 -0.5512
  120MOL   C21645674   4.471   3.782   2.489  0.0545 -0.5938  0.6177
  120MOL   C21745675   4.373   3.481   2.731  0.3057 -0.4600  0.3188
  120MOL   H21845676   4.304   3.671   2.659 -1.2534 -2.8335  0.4403
  120MOL   H21945677   4.571   3.608   2.571  0.1908 -0.0097 -0.4427
  120MOL   H22045678   4.422   3.455   2.462 -1.0862  0.7438  1.6352
  120MOL   H22145679   4.293   3.571   2.440  0.1962 -2.6394 -0.0422
  120MOL   H22245680   4.580   3.561   2.320  0.4937 -0.4011  2.3263
  120MOL   H22345681   4.436   3.600   2.223  1.2915  2.1319 -0.7742
  120MOL   H22445682   4.430   3.814   2.276 -0.7817  0.8357  0.5935
  120MOL   H22545683   4.606   3.785   2.305  1.0978 -2.2376 -0.0082
  120MOL   H22645684   4.531   3.858   2.541  0.4090 -1.5276  1.5879
  120MOL   H22745685   4.372   3.826   2.493 -0.2754 -1.1888 -0.7819
  120MOL   H22845686   4.465   3.447   2.776 -0.8855 -1.9967  1.6401
  120MOL   H22945687   4.354   3.412   2.649 -0.5494 -0.3152  0.3893
  120MOL   C23045688   4.253   3.462   2.831  0.1858 -0.0267 -0.0368
  120MOL   C23145689   4.248   3.312   2.877 -0.2134 -0.5446  0.8220
  120MOL   C23245690   4.370   3.266   2.954 -0.8814  0.2500  0.9627
  120MOL   C23345691   4.322   3.149   3.037  0.1572 -0.2442  0.3564
  120MOL   C23445692   4.166   3.157   3.049 -0.1815  0.0750 -0.3978
  120MOL   C23545693   4.127   3.279   2.972  1.0761 -1.1948 -0.1261
  120MOL   C23645694   4.120   3.518   2.780  0.4415  0.1854 -0.1419
  120MOL   H23745695   4.271   3.510   2.928 -0.6284  2.9173 -1.2839
  120MOL   H23845696   4.233   3.249   2.790 -2.0859  0.0308  0.7127
  120MOL   H23945697   4.447   3.236   2.883 -0.7349 -0.8345  1.5552
  120MOL   H24045698   4.417   3.345   3.013 -0.1653  1.2062 -0.8420
  120MOL   H24145699   4.368   3.059   2.997 -2.2791 -1.3845  0.0338
  120MOL   H24245700   4.360   3.163   3.138  2.7366 -0.5881 -0.5461
  120MOL   H24345701   4.123   3.167   3.149 -2.1052  2.2321 -1.3832
  120MOL   H24445702   4.125   3.062   3.016  0.2317 -0.3346  0.2688
  120MOL   H24545703   4.108   3.355   3.048  0.6352 -0.9083 -0.5255
  120MOL   H24645704   4.033   3.266   2.919  0.4063 -0.7551  0.9400
  120MOL   H24745705   4.121   3.627   2.774 -0.1846  0.1190 -2.0546
  120MOL   H24845706   4.046   3.499   2.857 -0.3931  2.0657 -0.4532
  120MOL   C24945707   4.068   3.479   2.637  0.3730 -0.7002  0.4863
  120MOL   C25045708   3.972   3.582   2.573 -0.0559 -0.2919 -0.7581
  120MOL   C25145709   4.027   3.716   2.515 -0.1250  0.0982 -0.4531
  120MOL   C25245710   3.920   3.824   2.537  0.3963 -0.2427  0.4793
  120MOL   C25345711   3.801   3.753   2.602 -1.4726  0.1464  0.0671
  120MOL   C25445712   3.857   3.627   2.660  0.1914  0.0011 -0.0284
  120MOL   C25545713   3.985   3.347   2.640  0.3516  0.4185  0.0707
  120MOL   H25645714   4.146   3.482   2.561  0.6911 -2.6790  0.7083
  120MOL   H25745715   3.930   3.539   2.482 -2.6012 -2.6923  1.4606
  120MOL   H25845716   4.050   3.708   2.409 -1.6620  0.0200 -0.7928
  120MOL   H25945717   4.117   3.750   2.566  0.0245 -1.7915  0.6216
  120MOL   H26045718   3.876   3.865   2.445  3.7560 -0.2759 -1.1947
  120MOL   H26145719   3.954   3.910   2.594  1.4698  0.0473 -0.5813
  120MOL   H26245720   3.731   3.714   2.528 -0.7563 -0.8494 -0.1015
  120MOL   H26345721   3.759   3.819   2.678  2.0293  0.7608  1.5772
  120MOL   H26445722   3.770   3.561   2.654  0.7208 -0.5889 -1.8257
  120MOL   H26545723   3.891   3.641   2.762 -2.1445 -1.9333  1.0888
  120MOL   H26645724   4.030   3.270   2.702 -0.6439 -0.5856 -0.4203
  120MOL   H26745725   3.904   3.369   2.709  0.2589  1.9747 -0.5157
  120MOL   C26845726   3.951   3.267   2.508  0.6314  0.1329 -0.2969
  120MOL   C26945727   3.864   3.147   2.552 -0.0763 -0.3496  0.1058
  120MOL   C27045728   3.825   3.031   2.452  0.5949 -0.2597 -0.3056
  120MOL   C27145729   3.701   2.966   2.508 -0.0112  0.4094 -0.2494
  120MOL   C27245730   3.618   3.094   2.544 -0.1360 -0.3367 -0.1208
  120MOL   C27345731   3.715   3.187   2.608 -0.1009 -0.4921  0.4023
  120MOL   C27445732   4.075   3.229   2.428 -0.9233  0.3782 -0.2022
  120MOL   H27545733   3.894   3.334   2.443  2.1380  0.2427 -1.5409
  120MOL   H27645734   3.907   3.094   2.637 -2.5588 -0.3256  1.4216
  120MOL   H27745735   3.802   3.067   2.352  0.2747  1.3623  0.3288
  120MOL   H27845736   3.901   2.955   2.436 -1.9786 -2.9991 -0.0692
  120MOL   H27945737   3.652   2.892   2.445 -0.5677  1.8781 -1.5674
  120MOL   H28045738   3.716   2.902   2.595 -2.7982 -1.4357 -1.0761
  120MOL   H28145739   3.534   3.067   2.608 -1.2617  1.3165 -0.8687
  120MOL   H28245740   3.581   3.132   2.449  0.9840 -0.6069 -0.6748
  120MOL   H28345741   3.711   3.169   2.715  0.5923  1.0611  0.6985
  120MOL   H28445742   3.684   3.289   2.587  1.7781 -0.0635 -0.3468
  120MOL   H28545743   4.121   3.146   2.480 -0.0251  0.9541 -0.0718
  120MOL   H28645744   4.141   3.316   2.432  1.4525 -1.4757  1.9632
  120MOL   C28745745   4.065   3.184   2.273 -1.0014 -0.5293  0.0401
  120MOL   C28845746   4.002   3.277   2.174 -0.2612  0.2661  0.0100
  120MOL   C28945747   3.855   3.288   2.158 -0.2289  0.8261  0.8384
  120MOL   C29045748   3.833   3.418   2.074 -0.4062 -0.2964 -0.3710
  120MOL   C29145749   3.964   3.489   2.082 -0.7349  0.4521  0.1035
  120MOL   C29245750   4.059   3.419   2.181  0.5742 -0.3965  0.0758
  120MOL   C29345751   4.202   3.133   2.221 -0.0449  0.0972 -0.2084
  120MOL   H29445752   4.001   3.097   2.287  2.0922 -2.8985  0.0913
  120MOL   H29545753   4.029   3.240   2.075 -2.3036 -2.3546  0.3850
  120MOL   H29645754   3.824   3.207   2.093 -0.1616  0.7024  0.9618
  120MOL   H29745755   3.791   3.287   2.247 -0.8915  2.5454  0.4096
  120MOL   H29845756   3.819   3.405   1.967 -0.0990  1.9054 -0.7029
  120MOL   H29945757   3.750   3.476   2.112 -0.1570 -0.2753  0.1442
  120MOL   H30045758   3.945   3.594   2.104 -2.3110 -0.0687  1.2771
  120MOL   H30145759   4.006   3.483   1.981 -1.0101 -1.6411  0.0783
  120MOL   H30245760   4.052   3.470   2.277  0.0352 -1.8737  0.8413
  120MOL   H30345761   4.161   3.430   2.144  0.5897  1.0781  0.5240
  120MOL   H30445762   4.284   3.152   2.291 -1.1727  0.5615  1.0129
  120MOL   H30545763   4.237   3.197   2.140 -0.2077 -0.7709 -0.9774
  120MOL   C30645764   4.206   2.984   2.171 -0.5851  0.5206 -0.6573
  120MOL   C30745765   4.197   2.879   2.283 -0.3629 -0.1217  1.4914
  120MOL   C30845766   4.198   2.728   2.231 -0.0227  0.0270  0.6063
  120MOL   C30945767   4.239   2.649   2.355 -0.4386  0.7084 -0.5845
  120MOL   C31045768   4.315   2.745   2.454  0.2630 -0.1486 -0.0700
  120MOL   C31145769   4.316   2.884   2.381 -0.4064 -0.2194  0.5813
  120MOL   C31245770   4.108   2.967   2.049  0.3243  0.9205  0.3677
  120MOL   H31345771   4.311   2.977   2.141 -0.8563 -1.7680 -1.1511
  120MOL   H31445772   4.103   2.907   2.332 -0.6273 -0.9779  1.4818
  120MOL   H31545773   4.268   2.718   2.149  0.0237  0.5323  0.5833
  120MOL   H31645774   4.101   2.694   2.195 -0.2166 -0.1076  1.2364
  120MOL   H31745775   4.155   2.601   2.405  2.2056 -1.2833  2.1187
  120MOL   H31845776   4.309   2.575   2.317  1.0037  0.6072  2.1465
  120MOL   H31945777   4.411   2.698   2.473  0.4484 -0.1597 -1.0285
  120MOL   H32045778   4.276   2.742   2.556  2.3037 -1.7552  0.7012
  120MOL   H32145779   4.307   2.964   2.455 -1.9715  0.1877 -0.0501
  120MOL   H32245780   4.409   2.893   2.324 -0.0569 -0.5453  1.0879
  120MOL   H32345781   4.017   3.013   2.087 -0.1861  0.0773  0.1757
  120MOL   H32445782   4.077   2.863   2.038 -2.6959  1.7604  0.5720
  120MOL   C32545783   4.166   3.014   1.913 -0.6932  0.6651 -0.3290
  120MOL   C32645784   4.058   3.028   1.805  0.3234  0.8059 -1.0520
  120MOL   C32745785   4.114   3.064   1.668 -0.1627  0.0493  0.1766
  120MOL   C32845786   4.003   3.150   1.604 -0.4979 -0.1642  0.7314
  120MOL   C32945787   3.872   3.147   1.693 -0.0785  0.1395 -0.6511
  120MOL   C33045788   3.941   3.125   1.829 -0.6775 -0.2287 -0.1461
  120MOL   C33145789   4.280   2.923   1.868 -0.2918 -0.2632  0.5220
  120MOL   H33245790   4.211   3.112   1.928 -0.9450  0.9372 -1.3029
  120MOL   H33345791   4.013   2.929   1.806  0.0786  0.9151  1.2437
  120MOL   H33445792   4.152   2.980   1.611  1.9003 -0.4961  2.3180
  120MOL   H33545793   4.192   3.139   1.685 -0.0183  0.1171 -0.7799
  120MOL   H33645794   3.986   3.114   1.502 -1.4471 -0.0636  0.8469
  120MOL   H33745795   4.040   3.252   1.592 -1.8859  0.1842 -0.9586
  120MOL   H33845796   3.813   3.063   1.658 -4.0971  2.0303  1.3082
  120MOL   H33945797   3.822   3.244   1.682  0.7402  0.5738 -0.6081
  120MOL   H34045798   3.874   3.113   1.914 -0.3419  2.8786  0.6362
  120MOL   H34145799   3.987   3.220   1.856  0.3385  0.7682 -4.9371
  120MOL   H34245800   4.239   2.846   1.802  0.8491 -3.7576  3.7599
  120MOL   H34345801   4.312   2.861   1.951  0.0686  0.4158  0.8936
  120MOL   C34445802   4.411   2.977   1.808 -0.2286 -0.4930  0.4267
  120MOL   C34545803   4.482   2.895   1.698 -0.9209  0.4622 -0.2107
  120MOL   C34645804   4.402   2.839   1.579 -0.3649  0.4989 -0.1453
  120MOL   C34745805   4.502   2.743   1.507  0.1256  0.0207  0.2157
  120MOL   C34845806   4.622   2.723   1.599  0.5810  0.3491  0.0637
  120MOL   C34945807   4.584   2.781   1.733 -0.1452  0.1061  0.5200
  120MOL   C35045808   4.510   3.026   1.923  1.0523 -0.1309  0.4413
  120MOL   H35145809   4.381   3.066   1.753 -1.3517 -1.9011 -1.2810
  120MOL   H35245810   4.539   2.979   1.658  1.4502 -0.7422  0.5478
  120MOL   H35345811   4.362   2.926   1.526 -0.2626 -0.1625 -1.3439
  120MOL   H35445812   4.319   2.774   1.609 -1.2384  1.7618  0.1984
  120MOL   H35545813   4.449   2.654   1.474 -1.1515 -0.3551  3.1515
  120MOL   H35645814   4.535   2.796   1.417  3.3100 -1.5152  0.3954
  120MOL   H35745815   4.704   2.788   1.567 -0.1686 -0.0696 -2.8736
  120MOL   H35845816   4.651   2.618   1.596  3.1685  1.0543 -2.7191
  120MOL   H35945817   4.526   2.706   1.787 -1.5012  1.2291  0.6478
  120MOL   H36045818   4.669   2.816   1.792 -0.6511 -0.1282  1.3996
  120MOL   H36145819   4.552   2.938   1.973  0.3143 -0.8056 -0.1009
  120MOL   H36245820   4.458   3.070   2.007 -1.3836  0.8309 -1.5270
  120MOL   C36345821   4.623   3.125   1.893  0.6814 -0.5015  0.3571
  120MOL   C36445822   4.584   3.248   1.814  0.0276  0.0015  0.0138
  120MOL   C36545823   4.703   3.331   1.765 -0.8366 -0.0998 -0.0205
  120MOL   C36645824   4.642   3.472   1.735 -0.0583 -0.1920  0.2430
  120MOL   C36745825   4.528   3.482   1.838 -1.2943  0.1047 -0.1317
  120MOL   C36845826   4.506   3.343   1.893  0.4114 -0.3474 -0.4080
  120MOL   C36945827   4.739   3.139   2.006 -0.6521 -0.2869 -0.1621
  120MOL   H37045828   4.673   3.077   1.809 -0.5224 -1.4336  0.1691
  120MOL   H37145829   4.528   3.222   1.724  1.9606 -3.8497 -0.1710
  120MOL   H37245830   4.784   3.338   1.838 -0.6203  0.1221 -0.2828
  120MOL   H37345831   4.763   3.295   1.681 -0.9312 -1.0764  0.3205
  120MOL   H37445832   4.719   3.549   1.743 -0.1737  0.1023 -1.3439
  120MOL   H37545833   4.598   3.478   1.635  0.8070  1.2351 -0.0688
  120MOL   H37645834   4.553   3.562   1.908  0.8667  1.2858 -2.1944
  120MOL   H37745835   4.434   3.519   1.796 -0.3399  1.2067 -1.3122
  120MOL   H37845836   4.400   3.321   1.906  0.2377 -0.1242 -1.4111
  120MOL   H37945837   4.539   3.348   1.997  2.1705 -0.3529 -0.9630
  120MOL   H38045838   4.700   3.198   2.089 -0.5611 -3.8805  2.5480
  120MOL   H38145839   4.836   3.179   1.976  0.3708  0.2651  3.6343
  120MOL   H38245840   4.751   3.048   2.064 -0.4679  0.8357  1.5707
  121MOL     C145841   5.807   6.776   1.154 -0.0909  0.0348  0.4421
  121MOL     C245842   5.686   6.686   1.162  0.2216  0.7578  0.2947
  121MOL     C345843   5.547   6.758   1.173 -0.2064  0.2681 -0.0132
  121MOL     C445844   5.461   6.651   1.234 -0.3917  0.4167  0.2744
  121MOL     C545845   5.543   6.591   1.344  0.7898 -0.1373 -0.0757
  121MOL     C645846   5.684   6.600   1.286 -0.6524  0.3096  0.5021
  121MOL     C745847   5.933   6.692   1.130 -0.1513 -0.4563 -0.3546
  121MOL     H845848   5.809   6.854   1.078  0.3350 -0.0429  0.3701
  121MOL     H945849   5.683   6.620   1.075 -1.3458 -0.2967  1.1240
  121MOL    H1045850   5.541   6.845   1.239 -1.2221  0.5532 -0.4804
  121MOL    H1145851   5.503   6.791   1.079  0.8054  0.3725 -0.4543
  121MOL    H1245852   5.367   6.693   1.270 -1.7443 -2.1997 -0.0753
  121MOL    H1345853   5.442   6.577   1.156  0.4750 -0.4515  0.8854
  121MOL    H1445854   5.549   6.649   1.436  0.4764 -0.0962 -0.0822
  121MOL    H1545855   5.519   6.487   1.368  0.6446 -0.0842  0.0069
  121MOL    H1645856   5.721   6.500   1.265 -0.0604  0.9490 -1.6105
  121MOL    H1745857   5.731   6.648   1.372  2.5463  0.9243 -1.5093
  121MOL    H1845858   5.907   6.591   1.161 -1.9446 -0.5701 -2.1236
  121MOL    H1945859   5.954   6.686   1.023 -0.5256 -0.6351 -0.4177
  121MOL    H2045860   5.805   6.831   1.248 -3.8784  2.0826 -0.7312
  121MOL    C2145861   6.061   6.740   1.201 -0.5230  0.1336 -0.0082
  121MOL    C2245862   6.103   6.882   1.161 -0.0562 -0.5333 -0.2497
  121MOL    C2345863   6.108   6.915   1.011 -0.0393  0.2605 -0.3787
  121MOL    C2445864   6.231   7.002   0.991  0.6822 -0.2963 -0.0929
  121MOL    C2545865   6.273   7.049   1.128  0.1325 -0.2643 -0.1522
  121MOL    C2645866   6.237   6.930   1.218  0.9013 -0.5516  0.4505
  121MOL    C2745867   6.056   6.734   1.357 -0.4066  0.0400  0.1143
  121MOL    H2845868   6.141   6.672   1.171  1.0368  1.2246  1.5500
  121MOL    H2945869   6.031   6.952   1.203 -0.3846 -1.3640  0.6116
  121MOL    H3045870   6.021   6.977   0.993 -1.1871 -1.0332  0.6449
  121MOL    H3145871   6.112   6.826   0.948 -0.5302 -0.2165  0.2544
  121MOL    H3245872   6.315   6.944   0.951  0.3127 -0.1934 -1.0212
  121MOL    H3345873   6.231   7.095   0.935 -1.4362  0.3063  0.8671
  121MOL    H3445874   6.226   7.146   1.144  0.2046  0.0777 -1.8847
  121MOL    H3545875   6.379   7.074   1.128 -0.2036  1.2068  0.0199
  121MOL    H3645876   6.241   6.946   1.325 -0.8031 -1.7856  0.7313
  121MOL    H3745877   6.308   6.849   1.199  0.4974 -0.3408 -2.2961
  121MOL    H3845878   6.144   6.768   1.411  0.8962  1.9027 -3.0639
  121MOL    H3945879   5.973   6.794   1.394 -2.3756 -2.7045  0.3491
  121MOL    C4045880   6.028   6.596   1.428 -0.0450  0.3194 -0.4178
  121MOL    C4145881   6.113   6.490   1.362 -0.5458 -0.8569  0.5909
  121MOL    C4245882   6.099   6.338   1.402  0.4736 -0.2828  0.3182
  121MOL    C4345883   6.241   6.285   1.374  0.1589 -0.2552  0.3944
  121MOL    C4445884   6.327   6.393   1.318  0.5945 -0.6413  0.2223
  121MOL    C4545885   6.259   6.520   1.369 -0.4759  0.4289 -0.6414
  121MOL    C4645886   6.056   6.609   1.580 -0.2717  0.2200 -0.0316
  121MOL    H4745887   5.925   6.569   1.402  0.1443 -0.1650 -0.6788
  121MOL    H4845888   6.089   6.490   1.256 -0.9254 -0.2871  0.6707
  121MOL    H4945889   6.021   6.294   1.339 -1.6254  0.5570  2.2579
  121MOL    H5045890   6.081   6.329   1.509  1.7678 -0.9684  0.4869
  121MOL    H5145891   6.251   6.207   1.299  0.4191  0.7229 -0.5861
  121MOL    H5245892   6.284   6.247   1.467  0.3642  0.7858  0.7287
  121MOL    H5345893   6.432   6.387   1.345  1.4180 -0.1673 -2.7827
  121MOL    H5445894   6.306   6.396   1.211 -2.0645  1.3986  0.7520
  121MOL    H5545895   6.304   6.531   1.468  1.1598 -3.1434 -0.9123
  121MOL    H5645896   6.288   6.604   1.307  0.5343  0.4335 -0.1717
  121MOL    H5745897   6.056   6.505   1.614  0.4105  0.3234  0.2992
  121MOL    H5845898   6.148   6.661   1.607 -0.4396  1.2465 -1.4331
  121MOL    C5945899   5.945   6.695   1.659  0.0381 -0.1542  0.4667
  121MOL    C6045900   5.902   6.641   1.791 -0.0563  0.0855 -0.1180
  121MOL    C6145901   5.999   6.584   1.889 -0.4583 -0.2195 -0.5072
  121MOL    C6245902   5.917   6.511   1.988  0.2026  0.4739 -0.0985
  121MOL    C6345903   5.804   6.455   1.910 -0.0484  0.2606  0.3087
  121MOL    C6445904   5.787   6.538   1.780 -0.1152 -0.1205 -0.2786
  121MOL    C6545905   5.983   6.850   1.674  0.3987  0.3706 -0.0183
  121MOL    H6645906   5.860   6.685   1.591 -0.5585 -2.6425  1.5377
  121MOL    H6745907   5.847   6.718   1.845 -0.2089 -0.2701  0.2326
  121MOL    H6845908   6.054   6.666   1.936 -1.0442 -0.9669  1.5723
  121MOL    H6945909   6.077   6.513   1.861 -0.9511 -0.7067 -0.6529
  121MOL    H7045910   5.893   6.590   2.058 -2.7186 -1.6454  1.4033
  121MOL    H7145911   5.969   6.427   2.035 -1.3809 -1.0777 -1.0883
  121MOL    H7245912   5.718   6.442   1.976 -0.1660  0.3966  0.1813
  121MOL    H7345913   5.830   6.355   1.874  2.1892  0.7160  0.6384
  121MOL    H7445914   5.816   6.469   1.701  1.3071  0.7952 -0.5889
  121MOL    H7545915   5.687   6.578   1.766 -0.1686 -0.9967 -2.5600
  121MOL    H7645916   6.058   6.877   1.599 -0.7333  1.5594 -0.7499
  121MOL    H7745917   6.047   6.856   1.762 -0.1014  0.0177  0.3690
  121MOL    C7845918   5.869   6.953   1.680 -0.0863  0.3666 -0.7450
  121MOL    C7945919   5.918   7.096   1.730 -0.2289  0.3051  0.2413
  121MOL    C8045920   6.030   7.176   1.656  0.1063  0.0044 -0.1173
  121MOL    C8145921   6.088   7.273   1.758 -0.1029  0.4894 -0.5048
  121MOL    C8245922   6.079   7.194   1.891  0.2398  1.4864  0.3516
  121MOL    C8345923   5.953   7.109   1.876  0.1099 -0.8579  0.7635
  121MOL    C8445924   5.794   6.965   1.543  0.7313  0.6198 -0.5792
  121MOL    H8545925   5.810   6.910   1.761 -0.7311  0.6643 -1.0597
  121MOL    H8645926   5.832   7.163   1.725  0.0043  0.6309  0.5313
  121MOL    H8745927   5.987   7.219   1.565  2.3518  0.5841 -0.9270
  121MOL    H8845928   6.113   7.113   1.626  2.1731  1.9805  1.2896
  121MOL    H8945929   6.034   7.367   1.767 -0.3674  0.1734  1.4424
  121MOL    H9045930   6.191   7.301   1.739 -0.1065  1.6312  1.0402
  121MOL    H9145931   6.169   7.137   1.913 -0.6600 -0.3449 -0.5837
  121MOL    H9245932   6.072   7.272   1.967  2.5789  0.0567  2.0829
  121MOL    H9345933   5.976   7.014   1.924  0.2393 -1.5882 -0.7147
  121MOL    H9445934   5.871   7.153   1.932  0.7047 -1.8122  2.4259
  121MOL    H9545935   5.775   6.868   1.497  0.9282  0.1185  0.3823
  121MOL    H9645936   5.870   7.008   1.478  0.0018  1.6991 -0.7356
  121MOL    C9745937   5.655   7.036   1.537  0.2705  0.2874 -0.4413
  121MOL    C9845938   5.535   6.937   1.558  0.4320 -0.2107 -1.1624
  121MOL    C9945939   5.554   6.873   1.696  0.0443 -0.0551 -0.8348
  121MOL   C10045940   5.412   6.834   1.754  0.1109  0.1342 -0.2699
  121MOL   C10145941   5.316   6.886   1.650 -0.2621 -0.0789 -0.3876
  121MOL   C10245942   5.393   6.989   1.561 -0.3912  0.0171  0.0053
  121MOL   C10345943   5.636   7.101   1.403 -0.4044 -0.1409  0.2304
  121MOL   H10445944   5.645   7.117   1.609 -2.0373  1.7932 -2.3915
  121MOL   H10545945   5.529   6.860   1.481 -0.7268 -1.2604 -0.0414
  121MOL   H10645946   5.627   6.791   1.699 -0.5324 -0.6145 -1.8819
  121MOL   H10745947   5.575   6.951   1.769 -1.0395 -0.3246 -0.2134
  121MOL   H10845948   5.393   6.886   1.848  3.2999 -0.3419  0.7131
  121MOL   H10945949   5.406   6.727   1.772 -0.7362  0.3345  0.7291
  121MOL   H11045950   5.226   6.926   1.697  0.3538 -0.5535  1.2354
  121MOL   H11145951   5.284   6.796   1.597  1.5532 -0.4240 -0.9184
  121MOL   H11245952   5.356   6.999   1.459  1.2619  1.9417 -0.4382
  121MOL   H11345953   5.372   7.086   1.607  3.2179  1.1069 -0.5126
  121MOL   H11445954   5.706   7.058   1.331  0.0982  1.6990 -0.4213
  121MOL   H11545955   5.537   7.087   1.361  0.0889  1.6838 -1.6489
  121MOL   C11645956   5.659   7.255   1.398  0.2288  0.1045 -0.1565
  121MOL   C11745957   5.687   7.314   1.252  0.1290 -0.0546 -0.0061
  121MOL   C11845958   5.815   7.255   1.178 -0.4182  0.4068 -0.1001
  121MOL   C11945959   5.782   7.203   1.040  0.6033  0.4451 -0.4167
  121MOL   C12045960   5.628   7.183   1.049  0.3976  0.0263 -0.4579
  121MOL   C12145961   5.576   7.287   1.148  0.4548  0.8366  0.2767
  121MOL   C12245962   5.550   7.340   1.469 -0.0675 -0.2165  0.6072
  121MOL   H12345963   5.757   7.259   1.444  0.5379 -0.8862 -0.7257
  121MOL   H12445964   5.694   7.423   1.260 -0.9308 -0.0657  1.1943
  121MOL   H12545965   5.894   7.330   1.169  1.5250 -1.6513 -0.8267
  121MOL   H12645966   5.862   7.172   1.232  1.3192  0.1255 -1.9749
  121MOL   H12745967   5.834   7.112   1.013  0.7417 -0.3060  2.2704
  121MOL   H12845968   5.814   7.282   0.971  0.7512 -0.5676 -1.5343
  121MOL   H12945969   5.599   7.082   1.078 -1.5177  0.8155  0.4956
  121MOL   H13045970   5.573   7.197   0.957 -0.6364  0.5032  0.2253
  121MOL   H13145971   5.554   7.382   1.100  1.1378  0.9297  0.1414
  121MOL   H13245972   5.481   7.252   1.188  0.9448  0.5545  1.2218
  121MOL   H13345973   5.484   7.278   1.530 -1.3493  0.5391  0.0054
  121MOL   H13445974   5.477   7.385   1.402  1.2958 -1.2722 -1.6207
  121MOL   C13545975   5.595   7.451   1.566  0.0852  0.0776 -0.1177
  121MOL   C13645976   5.650   7.397   1.702 -0.7152 -0.7362  0.6238
  121MOL   C13745977   5.550   7.332   1.799  0.2018  0.3102  0.0091
  121MOL   C13845978   5.632   7.321   1.929 -0.1057 -0.0657 -0.0209
  121MOL   C13945979   5.740   7.423   1.920 -0.0262  0.2833 -0.2284
  121MOL   C14045980   5.723   7.499   1.784  0.7094  0.2787  0.3252
  121MOL   C14145981   5.480   7.553   1.593 -0.1025  0.4552  0.2867
  121MOL   H14245982   5.668   7.503   1.504 -2.3402  0.7067 -2.5643
  121MOL   H14345983   5.727   7.324   1.679  0.0711  0.6771 -1.4719
  121MOL   H14445984   5.465   7.398   1.812  0.0696  0.0794  0.3248
  121MOL   H14545985   5.507   7.233   1.780 -2.4947  1.4775 -0.1518
  121MOL   H14645986   5.690   7.230   1.941  1.2031  0.8661  0.8885
  121MOL   H14745987   5.573   7.327   2.020 -1.2881 -0.5205 -0.7426
  121MOL   H14845988   5.841   7.381   1.920  0.5674  1.6641  1.6242
  121MOL   H14945989   5.737   7.492   2.004 -1.6022 -3.4538  2.9105
  121MOL   H15045990   5.661   7.585   1.810  1.1721  0.3872  1.0998
  121MOL   H15145991   5.818   7.535   1.745 -0.8228  4.1800 -0.0458
  121MOL   H15245992   5.477   7.603   1.689 -0.8402  1.2121 -0.1188
  121MOL   H15345993   5.393   7.487   1.583  0.7505 -0.4146 -1.6242
  121MOL   C15445994   5.475   7.672   1.493 -0.0098  0.4310 -0.0280
  121MOL   C15545995   5.329   0.044   1.502  0.6348  0.4421 -0.0448
  121MOL   C15645996   5.206   7.646   1.477 -0.3093  0.2212 -0.3759
  121MOL   C15745997   5.093   0.055   1.436 -0.2143 -0.3305  0.2425
  121MOL   C15845998   5.163   0.176   1.376  0.6110 -0.8604  0.4140
  121MOL   C15945999   5.313   0.170   1.407 -0.4776  0.1065  1.0573
  121MOL   C16046000   5.587   0.080   1.522  0.4321 -0.3455 -0.0197
  121MOL   H16146001   5.476   7.631   1.392 -0.6746 -0.9286  0.4931
  121MOL   H16246002   5.319   0.079   1.605  1.5461 -0.6722  0.4461
  121MOL   H16346003   5.237   7.591   1.388  0.3027  1.1576 -0.7487
  121MOL   H16446004   5.181   7.564   1.545 -2.1323 -1.0595 -2.5116
  121MOL   H16546005   5.021   0.016   1.364 -1.2016  0.0734  1.0000
  121MOL   H16646006   5.042   0.083   1.528  0.3841  0.6443  0.2868
  121MOL   H16746007   5.127   0.267   1.424  0.2993 -0.8210  0.1082
  121MOL   H16846008   5.147   0.192   1.269 -0.4891 -1.0572  0.5438
  121MOL   H16946009   5.354   0.256   1.461 -0.9142  0.1818  1.2710
  121MOL   H17046010   5.373   0.158   1.317  0.2552  2.2490  1.2469
  121MOL   H17146011   5.657   0.033   1.590  1.4285  1.2638  0.0827
  121MOL   H17246012   5.549   0.166   1.578  1.7443  0.0970  0.2114
  121MOL   C17346013   5.664   0.134   1.402 -0.7258 -0.4326 -0.6055
  121MOL   C17446014   5.755   0.032   1.329  0.7984 -0.5911 -0.0074
  121MOL   C17546015   5.881   7.679   1.406 -0.2417 -0.3379 -0.0957
  121MOL   C17646016   5.954   7.594   1.303 -0.1750  0.0082  0.1637
  121MOL   C17746017   5.929   7.662   1.164 -0.2079  0.5718 -0.3946
  121MOL   C17846018   5.807   0.064   1.189  0.3733  0.3829  0.1188
  121MOL   C17946019   5.738   0.264   1.448  0.8608 -0.2976 -0.3977
  121MOL   H18046020   5.585   0.157   1.331 -0.0505 -0.8688 -1.5194
  121MOL   H18146021   5.681   7.643   1.311 -1.2470  1.9084 -2.9859
  121MOL   H18246022   5.859   7.624   1.497  2.1142 -2.1504 -0.5744
  121MOL   H18346023   5.940   0.077   1.433 -0.5801  0.3678 -1.5908
  121MOL   H18446024   6.059   7.586   1.331  0.3986  0.0409 -1.9227
  121MOL   H18546025   5.917   7.492   1.312 -0.8892  0.1083 -1.5673
  121MOL   H18646026   5.903   7.583   1.093  0.0862 -1.6566  1.8959
  121MOL   H18746027   6.013   0.034   1.132  1.1753 -1.3270 -0.4649
  121MOL   H18846028   5.830   0.170   1.176  0.3404  0.5075  1.0688
  121MOL   H18946029   5.731   0.039   1.115  2.0593 -1.5925 -0.9933
  121MOL   H19046030   5.794   0.237   1.538 -1.5595  0.1784  1.2907
  121MOL   H19146031   5.817   0.303   1.383 -2.2153  3.4779 -2.0495
  121MOL   C19246032   5.652   0.386   1.485 -0.1757 -0.0036  0.0162
  121MOL   C19346033   5.673   0.504   1.387  0.3784  1.1426 -0.5591
  121MOL   C19446034   5.661   0.488   1.233 -0.0617 -0.2943  0.1316
  121MOL   C19546035   5.781   0.572   1.169 -0.1767  0.4065  0.1680
  121MOL   C19646036   5.827   0.667   1.279 -0.2468 -0.2293  0.2924
  121MOL   C19746037   5.808   0.579   1.404 -0.1141  0.3487  0.3712
  121MOL   C19846038   5.672   0.431   1.635 -0.2750 -1.1195 -1.0137
  121MOL   H19946039   5.546   0.373   1.464  0.1038 -0.7763 -0.9757
  121MOL   H20046040   5.597   0.576   1.418 -1.2778 -0.8080 -0.0356
  121MOL   H20146041   5.568   0.530   1.197 -1.1759 -2.0448  0.8589
  121MOL   H20246042   5.649   0.382   1.210 -2.5275 -0.6415  2.7271
  121MOL   H20346043   5.861   0.504   1.139  0.6273  1.5359 -0.2649
  121MOL   H20446044   5.764   0.628   1.077  0.3383  0.2719 -0.0149
  121MOL   H20546045   5.775   0.763   1.286  1.8194  1.1039 -1.8373
  121MOL   H20646046   5.932   0.678   1.254  0.5967 -1.2229  3.1457
  121MOL   H20746047   5.814   0.646   1.490 -3.4359  2.6747 -1.1111
  121MOL   H20846048   5.893   0.512   1.418  0.7380  0.9940 -1.4818
  121MOL   H20946049   5.646   0.344   1.695 -0.1904  1.6111  3.1751
  121MOL   H21046050   5.778   0.455   1.651 -1.1633  0.9689  2.0330
  121MOL   C21146051   5.602   0.554   1.698 -0.4900 -0.4001  0.3085
  121MOL   C21246052   5.445   0.567   1.666 -0.1030  0.0802  0.7410
  121MOL   C21346053   5.353   0.458   1.714 -0.2809  0.1615  0.4431
  121MOL   C21446054   5.228   0.528   1.772 -0.6629 -0.0479 -0.4119
  121MOL   C21546055   5.231   0.671   1.722  0.2210 -0.2479  0.5295
  121MOL   C21646056   5.380   0.699   1.712 -0.2544  0.3889 -0.9949
  121MOL   C21746057   5.628   0.557   1.856 -0.8325  0.2247 -0.1979
  121MOL   H21846058   5.650   0.644   1.660 -0.7716  0.2395  1.4425
  121MOL   H21946059   5.430   0.565   1.558 -0.0984  1.2779  0.7088
  121MOL   H22046060   5.321   0.389   1.635 -0.8833 -0.8684  1.5667
  121MOL   H22146061   5.404   0.402   1.793 -0.3706 -0.1318  0.2960
  121MOL   H22246062   5.137   0.479   1.737 -0.7144 -1.4780  1.6883
  121MOL   H22346063   5.235   0.513   1.879  2.0180  2.2579 -0.2126
  121MOL   H22446064   5.173   0.746   1.776  0.2905  0.6604 -0.6405
  121MOL   H22546065   5.184   0.674   1.624 -0.5978  2.5851  0.9823
  121MOL   H22646066   5.418   0.781   1.651  0.3759  0.0989 -1.0047
  121MOL   H22746067   5.421   0.730   1.808  2.8080 -3.7996 -0.7797
  121MOL   H22846068   5.698   0.477   1.882  1.2634  0.9510 -3.3403
  121MOL   H22946069   5.541   0.529   1.916  0.0621 -1.6928  0.2422
  121MOL   C23046070   5.685   0.688   1.908  0.3568 -0.0878 -0.2933
  121MOL   C23146071   5.834   0.701   1.858  0.8594 -0.8404 -0.2539
  121MOL   C23246072   5.884   0.847   1.864  0.6328 -0.3904 -0.7366
  121MOL   C23346073   6.030   0.835   1.925 -0.7947 -0.0102  0.3811
  121MOL   C23446074   6.065   0.696   1.893 -0.0753 -0.3305 -0.0042
  121MOL   C23546075   5.938   0.608   1.913  0.4238 -0.2346  0.5336
  121MOL   C23646076   5.664   0.708   2.065 -0.3614  0.2067  0.1656
  121MOL   H23746077   5.624   0.770   1.871 -0.3328 -0.0872  0.7990
  121MOL   H23846078   5.827   0.687   1.750  1.1315 -3.6310  0.0578
  121MOL   H23946079   5.899   0.894   1.767  1.1398  2.1405  0.5176
  121MOL   H24046080   5.828   0.904   1.937  0.2718 -0.1113 -1.2275
  121MOL   H24146081   6.104   0.905   1.884  0.6283 -0.6888  1.7307
  121MOL   H24246082   6.022   0.855   2.032  0.3985  0.5563  0.3860
  121MOL   H24346083   6.146   0.660   1.956  0.9908 -0.9566 -1.6926
  121MOL   H24446084   6.115   0.694   1.796 -0.8968  2.7471 -0.5435
  121MOL   H24546085   5.928   0.592   2.021  0.5915  0.4928  0.6606
  121MOL   H24646086   5.933   0.509   1.869 -1.1608 -0.5880  1.4697
  121MOL   H24746087   5.722   0.791   2.107  4.5807 -2.6405 -0.5946
  121MOL   H24846088   5.709   0.627   2.122 -2.8134 -1.0789  0.3191
  121MOL   C24946089   5.522   0.722   2.117 -0.1160 -0.8099 -0.2047
  121MOL   C25046090   5.468   0.872   2.126 -0.1605 -0.5015 -0.9172
  121MOL   C25146091   5.552   0.981   2.206  0.3858 -0.7971  0.6222
  121MOL   C25246092   5.456   1.082   2.246  0.4465  0.7098  0.3078
  121MOL   C25346093   5.308   1.043   2.205 -0.0636  0.3938 -0.0438
  121MOL   C25446094   5.321   0.891   2.163 -0.7588 -0.3891  0.4898
  121MOL   C25546095   5.517   0.667   2.265  0.3341  0.6399 -0.0485
  121MOL   H25646096   5.453   0.673   2.048  0.0222  0.3078 -1.1564
  121MOL   H25746097   5.486   0.899   2.022  0.7581  1.4485 -0.2741
  121MOL   H25846098   5.633   1.032   2.152  0.2989 -1.6649 -0.3488
  121MOL   H25946099   5.614   0.933   2.282  1.4718  0.4124  0.5164
  121MOL   H26046100   5.472   1.179   2.198  0.5051  0.1654 -0.7775
  121MOL   H26146101   5.448   1.093   2.354 -1.5923 -1.7055  0.4344
  121MOL   H26246102   5.276   1.104   2.121  1.5841 -1.3397 -2.0162
  121MOL   H26346103   5.244   1.068   2.289 -1.6490  2.5232 -1.8460
  121MOL   H26446104   5.243   0.874   2.089  1.1431  1.1031 -1.9344
  121MOL   H26546105   5.281   0.818   2.234 -1.7983 -1.1379 -0.8470
  121MOL   H26646106   5.606   0.702   2.316  0.9830 -1.7292  0.5279
  121MOL   H26746107   5.436   0.709   2.325  1.4372  0.5421  1.5352
  121MOL   C26846108   5.511   0.508   2.266  0.5355 -0.1499 -0.0959
  121MOL   C26946109   5.370   0.439   2.284 -0.3584  0.4351 -0.1134
  121MOL   C27046110   5.261   0.472   2.177  0.0799 -0.2603  0.3549
  121MOL   C27146111   5.130   0.425   2.239  0.6931 -0.2582 -0.1495
  121MOL   C27246112   5.156   0.452   2.382  0.0795  0.1443 -0.8715
  121MOL   C27346113   5.309   0.446   2.423  0.0009 -0.2703 -0.6693
  121MOL   C27446114   5.612   0.454   2.366 -0.6747  0.0607 -0.2183
  121MOL   H27546115   5.536   0.469   2.167 -0.8303 -1.6536  0.1275
  121MOL   H27646116   5.381   0.332   2.270 -0.5182  0.4980 -0.6956
  121MOL   H27746117   5.267   0.579   2.153 -2.6579  0.0208  0.7494
  121MOL   H27846118   5.288   0.424   2.083 -0.4734  0.3636 -0.1365
  121MOL   H27946119   5.041   0.483   2.214 -0.6142 -1.6939  1.1155
  121MOL   H28046120   5.102   0.320   2.230 -1.4228  0.2136  0.5599
  121MOL   H28146121   5.107   0.385   2.453 -2.5660  2.2158 -0.6587
  121MOL   H28246122   5.122   0.554   2.404  0.2642  0.6501 -2.8299
  121MOL   H28346123   5.328   0.347   2.464  2.4502 -0.5126 -2.2848
  121MOL   H28446124   5.329   0.528   2.491 -0.0843  0.6733 -1.7575
  121MOL   H28546125   5.565   0.469   2.463 -1.4819  3.6998 -1.1232
  121MOL   H28646126   5.692   0.528   2.364 -0.3717 -0.2924 -2.0089
  121MOL   C28746127   5.659   0.306   2.349 -0.2012 -0.1450 -0.1362
  121MOL   C28846128   5.737   0.283   2.220 -0.4998  0.9346  1.0225
  121MOL   C28946129   5.881   0.228   2.216 -0.6977  1.0059  0.8302
  121MOL   C29046130   5.915   0.225   2.064 -0.2975  0.1497  0.3619
  121MOL   C29146131   5.781   0.198   1.995 -0.8210 -0.3745  0.0717
  121MOL   C29246132   5.674   0.215   2.101 -0.2175  0.7167  0.3853
  121MOL   C29346133   5.738   0.269   2.480 -0.0588  0.3659 -0.0210
  121MOL   H29446134   5.565   0.251   2.342  0.2432 -0.9150 -0.1396
  121MOL   H29546135   5.766   0.382   2.186 -0.5919  1.3324  2.0693
  121MOL   H29646136   5.964   0.281   2.263  0.5418 -0.1570 -0.0032
  121MOL   H29746137   5.882   0.125   2.250 -0.3932  0.4274 -0.8457
  121MOL   H29846138   5.962   0.320   2.037  1.2784 -0.1964  1.7932
  121MOL   H29946139   5.981   0.142   2.037 -0.2424  0.7185 -1.3316
  121MOL   H30046140   5.781   0.093   1.963  1.2175 -0.2982 -0.2597
  121MOL   H30146141   5.757   0.256   1.906  0.7239 -0.6574 -0.5459
  121MOL   H30246142   5.635   0.118   2.131  0.6974 -0.0723 -0.8662
  121MOL   H30346143   5.593   0.271   2.055 -0.0792 -2.1180 -3.6103
  121MOL   H30446144   5.690   0.326   2.560 -0.9678  0.0486 -0.3285
  121MOL   H30546145   5.837   0.315   2.481 -0.5077  1.3303  0.5347
  121MOL   C30646146   5.734   0.117   2.512 -0.5931  0.2540 -0.3533
  121MOL   C30746147   5.867   0.079   2.590  0.3016  0.4170 -0.0326
  121MOL   C30846148   6.007   0.099   2.517  1.2847 -0.1868 -0.1641
  121MOL   C30946149   6.106   0.129   2.625 -0.3139  0.5003  0.1704
  121MOL   C31046150   6.031   0.118   2.757 -0.4707 -0.7990 -0.0541
  121MOL   C31146151   5.886   0.148   2.720  0.1736 -0.9177  0.5399
  121MOL   C31246152   5.606   0.076   2.588  0.2516  0.4349 -0.3005
  121MOL   H31346153   5.741   0.064   2.417  2.1316  2.2732 -1.3129
  121MOL   H31446154   5.853   7.662   2.608 -0.8332  0.4703 -0.5798
  121MOL   H31546155   6.008   0.185   2.450  1.3892  0.1699  0.2880
  121MOL   H31646156   6.033   0.014   2.455  1.9832  0.5995 -0.9679
  121MOL   H31746157   6.186   0.056   2.632  0.7682  1.6993  0.4587
  121MOL   H31846158   6.165   0.220   2.610 -1.5521  1.0290 -1.6476
  121MOL   H31946159   6.077   0.185   2.830 -1.1379  0.3091 -0.6454
  121MOL   H32046160   6.037   0.016   2.796  1.1435 -0.8576 -0.4087
  121MOL   H32146161   5.814   0.120   2.796  0.2425 -0.8618  0.6254
  121MOL   H32246162   5.876   0.256   2.714  2.1117 -0.6944  0.8754
  121MOL   H32346163   5.519   0.109   2.532 -0.1469  1.1289  0.7122
  121MOL   H32446164   5.604   0.126   2.685 -2.4905  0.7001 -0.4774
  121MOL   C32546165   5.583   7.609   2.614 -0.0767  0.2305 -0.5636
  121MOL   C32646166   5.591   7.523   2.487 -0.1911 -0.6447 -0.8781
  121MOL   C32746167   5.486   7.560   2.383 -0.1600  0.0819 -1.3114
  121MOL   C32846168   5.460   7.440   2.291  0.7368  0.5472  0.6232
  121MOL   C32946169   5.551   7.327   2.344 -1.0216 -0.1975 -0.4484
  121MOL   C33046170   5.580   7.365   2.490  0.0716  0.7327 -0.4028
  121MOL   C33146171   5.466   7.566   2.705 -0.7711 -0.1944 -0.3684
  121MOL   H33246172   5.667   7.575   2.675  0.0337  0.5962 -0.5072
  121MOL   H33346173   5.689   7.538   2.442 -0.9142 -2.0776 -3.0094
  121MOL   H33446174   5.502   7.650   2.325 -0.0000  0.7172 -0.2827
  121MOL   H33546175   5.394   7.577   2.441  1.0474 -3.4212  1.8978
  121MOL   H33646176   5.487   7.456   2.187 -2.6286  2.9888  0.0772
  121MOL   H33746177   5.353   7.418   2.295  0.2594  2.7682  0.5654
  121MOL   H33846178   5.653   7.335   2.305 -1.8197  3.8163 -1.9793
  121MOL   H33946179   5.507   7.228   2.331  0.7190 -1.1334  0.5848
  121MOL   H34046180   5.674   7.320   2.521 -1.6631 -1.1781  2.2872
  121MOL   H34146181   5.512   7.322   2.563 -0.3801  0.1339 -1.1633
  121MOL   H34246182   5.470   7.458   2.718  1.1842  0.1714  2.6748
  121MOL   H34346183   5.371   7.590   2.658 -1.4648 -0.4501  0.8821
  121MOL   C34446184   5.461   7.640   2.844 -0.4305 -0.3716  0.1864
  121MOL   C34546185   5.587   7.633   2.929  0.6196 -0.5394 -0.1248
  121MOL   C34646186   5.632   7.507   2.997 -0.0500  0.0543  0.4575
  121MOL   C34746187   5.737   7.545   3.105  0.1647 -0.5425 -0.1554
  121MOL   C34846188   5.705   0.003   3.139  0.0203 -0.1917  0.0684
  121MOL   C34946189   5.585   0.041   3.051 -0.2406  0.1394  0.3352
  121MOL   C35046190   5.344   7.576   2.919 -0.6385  0.5259  0.0204
  121MOL   H35146191   5.452   0.057   2.828 -0.9400  0.0531  3.0706
  121MOL   H35246192   5.668   7.663   2.862 -1.3061  0.3108 -2.1084
  121MOL   H35346193   5.672   7.440   2.922  1.0910 -0.5584  1.6000
  121MOL   H35446194   5.554   7.456   3.054  1.2295  0.3175  2.5209
  121MOL   H35546195   5.735   7.476   3.190  1.7786  0.5032  0.7573
  121MOL   H35646196   5.834   7.546   3.055  0.4670 -0.5498  0.4289
  121MOL   H35746197   5.795   0.060   3.115  0.0933 -0.4587 -0.3082
  121MOL   H35846198   5.691   0.020   3.246  3.5968 -0.3685  0.6196
  121MOL   H35946199   5.491   0.029   3.104 -0.0291 -2.7385  0.0966
  121MOL   H36046200   5.589   0.148   3.029 -1.0520  0.1069 -0.0078
  121MOL   H36146201   5.348   7.592   3.027  0.8472 -0.2326  0.0935
  121MOL   H36246202   5.355   7.468   2.925 -0.6793  0.5290  0.1767
  121MOL   C36346203   5.200   7.638   2.902 -0.1755  0.0697 -0.1063
  121MOL   C36446204   5.089   7.544   2.942 -0.1362 -0.2410  1.2314
  121MOL   C36546205   5.096   7.511   3.087  0.6199 -0.3027  0.0518
  121MOL   C36646206   5.042   7.371   3.107  0.9780 -0.1647  0.3961
  121MOL   C36746207   5.062   7.297   2.981 -0.1469 -0.0397  0.1132
  121MOL   C36846208   5.081   7.406   2.875 -0.3586  0.2582  0.8332
  121MOL   C36946209   5.170   0.083   2.964 -0.3288  0.3635 -0.3216
  121MOL   H37046210   5.180   7.642   2.795  0.1270  3.4139 -0.0884
  121MOL   H37146211   4.989   7.581   2.920  0.6328  1.3064  0.2440
  121MOL   H37246212   5.195   7.512   3.131  1.1914 -1.4672 -1.1698
  121MOL   H37346213   5.037   7.585   3.141 -0.9098 -0.5060 -1.2838
  121MOL   H37446214   5.076   7.321   3.198  0.8364 -2.0236 -0.5284
  121MOL   H37546215   4.933   7.370   3.117  0.7370 -1.6039 -1.8216
  121MOL   H37646216   5.160   7.251   2.994 -0.2543 -0.0073  1.0334
  121MOL   H37746217   4.982   7.225   2.968  0.5541 -0.8163  0.0201
  121MOL   H37846218   4.993   7.409   2.810  0.6975 -0.0728 -0.6517
  121MOL   H37946219   5.162   7.385   2.805  0.1484 -0.0311  1.5004
  121MOL   H38046220   5.117   0.145   2.893 -0.5634  0.7190  0.1591
  121MOL   H38146221   5.263   0.135   2.986  0.1716 -1.5442  2.3882
  121MOL   H38246222   5.122   0.077   3.062  0.1033  2.3801  0.0248
  122MOL     C146223   6.360   2.849   5.155 -1.0045 -0.4105  0.4731
  122MOL     C246224   6.442   2.811   5.282 -0.3219  0.1103 -0.6517
  122MOL     C346225   6.448   2.659   5.310 -0.7799  0.1294 -0.1666
  122MOL     C446226   6.438   2.641   5.466 -0.0222 -0.5988  0.3109
  122MOL     C546227   6.470   2.786   5.514 -0.6255  0.3084  0.1077
  122MOL     C646228   6.400   2.878   5.417 -0.0403 -0.0640  0.7410
  122MOL     C746229   6.343   2.993   5.142  0.0572 -0.6195  0.0633
  122MOL     H846230   6.418   2.810   5.071 -0.5455 -1.2676  1.1808
  122MOL     H946231   6.543   2.845   5.259 -0.6598  0.9103 -0.9869
  122MOL    H1046232   6.376   2.596   5.257 -0.9617  0.9723 -0.9410
  122MOL    H1146233   6.544   2.628   5.268 -0.8041  0.7076 -0.6569
  122MOL    H1246234   6.347   2.606   5.515  1.5073 -3.1588  1.4037
  122MOL    H1346235   6.514   2.570   5.500 -0.9085 -0.2315  3.1861
  122MOL    H1446236   6.434   2.817   5.612  1.4620  1.1888  0.6259
  122MOL    H1546237   6.575   2.814   5.509 -0.9236  1.4798  0.2230
  122MOL    H1646238   6.429   2.981   5.438 -2.2718  0.6506  0.4004
  122MOL    H1746239   6.294   2.866   5.437 -0.5759  2.2956 -0.5478
  122MOL    H1846240   6.308   3.030   5.238 -0.1751 -4.1474  1.4198
  122MOL    H1946241   6.440   3.040   5.128  1.3583 -3.3926 -0.5657
  122MOL    H2046242   6.259   2.807   5.156 -2.0697  1.8933 -2.4237
  122MOL    C2146243   6.245   3.040   5.021 -0.0689 -0.8052 -0.2983
  122MOL    C2246244   6.286   3.003   4.878  0.0737  0.1626 -0.3638
  122MOL    C2346245   6.240   3.094   4.766  0.5130 -0.2832 -0.6424
  122MOL    C2446246   6.222   3.001   4.644 -0.1602 -0.1734  0.1060
  122MOL    C2546247   6.221   2.860   4.690 -0.2210 -0.6875 -0.5241
  122MOL    C2646248   6.246   2.863   4.839 -0.0682  0.1748  0.5633
  122MOL    C2746249   6.092   3.034   5.052  0.0499 -0.4936 -0.3821
  122MOL    H2846250   6.278   3.143   5.007 -0.8035 -0.5687 -0.3060
  122MOL    H2946251   6.394   3.007   4.883 -0.0551  2.1647  1.7008
  122MOL    H3046252   6.296   3.188   4.761  2.8123 -1.5708  0.2402
  122MOL    H3146253   6.138   3.122   4.792  0.7004 -0.0284 -0.1546
  122MOL    H3246254   6.136   3.028   4.581 -1.4591 -0.7789  1.5978
  122MOL    H3346255   6.310   3.013   4.581  0.2889 -1.9413  0.3811
  122MOL    H3446256   6.298   2.801   4.639  1.6676  1.1176  0.1918
  122MOL    H3546257   6.124   2.811   4.677  0.2506 -1.6472 -0.4740
  122MOL    H3646258   6.318   2.783   4.856 -0.6184  0.0843  2.5786
  122MOL    H3746259   6.164   2.821   4.897 -0.2317  0.5183  0.5833
  122MOL    H3846260   6.030   3.045   4.963 -0.3020 -2.6048 -0.4159
  122MOL    H3946261   6.066   2.930   5.074 -0.0043 -0.2418  0.8146
  122MOL    C4046262   6.038   3.116   5.170  0.5165  0.8719 -0.5047
  122MOL    C4146263   5.996   3.256   5.131  0.7344  0.5823  0.0562
  122MOL    C4246264   6.113   3.346   5.086  0.1450  0.4818  0.7151
  122MOL    C4346265   6.066   3.483   5.097 -0.5704 -0.0523 -0.0699
  122MOL    C4446266   5.963   3.495   5.211 -0.3721  0.1030 -0.0687
  122MOL    C4546267   5.943   3.354   5.251  0.8291 -0.0405 -0.2867
  122MOL    C4646268   5.928   3.032   5.232  0.0521  0.0609 -0.3292
  122MOL    H4746269   6.109   3.122   5.253 -1.4246  0.7402  1.1988
  122MOL    H4846270   5.913   3.251   5.061 -3.2869  0.7351  4.5288
  122MOL    H4946271   6.159   3.334   4.988 -1.4540  0.0365 -0.0103
  122MOL    H5046272   6.197   3.316   5.149  0.2200 -1.0689 -0.0968
  122MOL    H5146273   6.019   3.509   5.002  3.6422  1.7819 -1.7986
  122MOL    H5246274   6.145   3.555   5.120 -1.5058  0.9902 -0.0763
  122MOL    H5346275   6.012   3.553   5.290  2.1465 -0.4377 -1.1771
  122MOL    H5446276   5.878   3.555   5.177  0.6115  0.7304 -1.4929
  122MOL    H5546277   6.015   3.341   5.331  0.0292  1.8108  0.7613
  122MOL    H5646278   5.844   3.338   5.294  0.8383 -0.7268 -0.5161
  122MOL    H5746279   5.853   3.098   5.273  0.1052  0.8590 -1.4845
  122MOL    H5846280   5.873   2.989   5.148 -0.1778  2.5186 -1.4908
  122MOL    C5946281   5.975   2.927   5.333 -0.2444  0.8496  0.0872
  122MOL    C6046282   5.973   2.995   5.478 -0.3050 -0.6411  0.1971
  122MOL    C6146283   6.032   2.903   5.587 -0.2576  0.5485  0.4448
  122MOL    C6246284   5.935   2.911   5.707  0.0579 -0.2178  0.7349
  122MOL    C6346285   5.861   3.041   5.673  0.2054  0.2466  0.2756
  122MOL    C6446286   5.841   3.050   5.522 -0.5816 -0.7220  0.5335
  122MOL    C6546287   5.880   2.804   5.329  0.3247  0.1644  0.4151
  122MOL    H6646288   6.080   2.901   5.326  0.2623  2.7478  0.4063
  122MOL    H6746289   6.045   3.076   5.466 -3.8448  2.9371  2.0861
  122MOL    H6846290   6.123   2.954   5.619 -0.0775  0.2973  0.3350
  122MOL    H6946291   6.046   2.798   5.560 -0.9198  0.2138  1.3754
  122MOL    H7046292   5.990   2.925   5.800  0.3043 -0.0703  0.5704
  122MOL    H7146293   5.863   2.830   5.712 -0.2999  0.2184  3.2174
  122MOL    H7246294   5.916   3.127   5.711  0.9053 -0.9560  2.0207
  122MOL    H7346295   5.765   3.046   5.725 -0.5244 -2.3340 -0.7478
  122MOL    H7446296   5.762   2.978   5.499  0.6317 -1.7036 -0.6714
  122MOL    H7546297   5.801   3.146   5.491 -3.7898 -2.0452  0.3618
  122MOL    H7646298   5.780   2.842   5.308 -0.9007 -3.0045  0.2573
  122MOL    H7746299   5.880   2.757   5.427 -2.7417  1.2598  1.0104
  122MOL    C7846300   5.918   2.690   5.227 -0.3634 -0.0274 -0.0444
  122MOL    C7946301   6.030   2.596   5.282  0.2254 -0.1767  0.1896
  122MOL    C8046302   6.102   2.503   5.178  0.4617  1.1707 -0.5650
  122MOL    C8146303   6.150   2.383   5.260  0.2253 -1.0645  0.2444
  122MOL    C8246304   6.062   2.373   5.386 -0.6308 -0.1653 -0.0313
  122MOL    C8346305   5.981   2.508   5.406  0.1604  0.0484 -0.3370
  122MOL    C8446306   5.788   2.611   5.183  0.6112 -0.1955 -0.4551
  122MOL    H8546307   5.959   2.733   5.136 -1.4032 -1.8507 -1.4016
  122MOL    H8646308   6.112   2.653   5.327  1.2633 -0.2194 -1.6059
  122MOL    H8746309   6.182   2.553   5.124  1.5452  1.0546  0.9171
  122MOL    H8846310   6.037   2.458   5.102  1.9044 -0.2609 -1.0001
  122MOL    H8946311   6.249   2.399   5.301  0.7397 -4.9649  0.6931
  122MOL    H9046312   6.148   2.297   5.194  0.0890 -0.2552 -0.8298
  122MOL    H9146313   5.991   2.291   5.376 -0.5701 -0.1923 -0.2512
  122MOL    H9246314   6.124   2.362   5.475 -0.7175 -2.1156 -0.1950
  122MOL    H9346315   5.875   2.484   5.406  0.1810 -0.0465  1.5137
  122MOL    H9446316   5.989   2.566   5.498 -3.1449  2.1357 -1.2796
  122MOL    H9546317   5.722   2.601   5.269  1.6531 -2.3199  0.1154
  122MOL    H9646318   5.817   2.507   5.173  2.4789 -0.1424  3.5610
  122MOL    C9746319   5.709   2.659   5.058 -0.0772  0.2538  0.1544
  122MOL    C9846320   5.566   2.585   5.042  0.2907 -0.3605  0.1336
  122MOL    C9946321   5.570   2.429   5.036  0.4611  0.2037 -0.8437
  122MOL   C10046322   5.474   2.380   5.144 -0.7023  0.5693 -0.1892
  122MOL   C10146323   5.376   2.499   5.166 -0.5705  0.1658 -0.1080
  122MOL   C10246324   5.462   2.626   5.150 -0.1984  0.3741 -0.4170
  122MOL   C10346325   5.803   2.641   4.932 -0.6483 -0.1489  0.4009
  122MOL   H10446326   5.689   2.765   5.073  1.9511  0.2128  3.8069
  122MOL   H10546327   5.525   2.635   4.955  0.1704 -0.3772  0.1808
  122MOL   H10646328   5.522   2.400   4.942 -0.0216 -0.7953 -0.3085
  122MOL   H10746329   5.670   2.387   5.048  0.3377  0.2153  0.2589
  122MOL   H10846330   5.530   2.350   5.233 -0.3236  0.8684 -0.3290
  122MOL   H10946331   5.426   2.291   5.103  0.0637  0.3656 -0.6600
  122MOL   H11046332   5.340   2.482   5.268  0.8941 -2.3389  0.0479
  122MOL   H11146333   5.291   2.480   5.101 -3.3307 -1.5551  3.8301
  122MOL   H11246334   5.407   2.716   5.122 -0.9453 -0.7432 -2.6632
  122MOL   H11346335   5.517   2.639   5.243 -2.6520  2.3166  0.8155
  122MOL   H11446336   5.882   2.711   4.955 -0.6869 -0.5389  1.7744
  122MOL   H11546337   5.849   2.542   4.928  0.6110  0.3899  1.5591
  122MOL   C11646338   5.745   2.654   4.790 -0.0656 -0.3893 -0.1189
  122MOL   C11746339   5.672   2.791   4.771 -0.5516 -0.1827  0.4305
  122MOL   C11846340   5.761   2.913   4.806  0.2345  0.4416  0.0884
  122MOL   C11946341   5.699   3.025   4.719 -0.4171 -0.3144 -0.2898
  122MOL   C12046342   5.657   2.954   4.589  0.0591  0.0285  0.5106
  122MOL   C12146343   5.614   2.816   4.631 -0.2837 -0.6489 -0.2114
  122MOL   C12246344   5.849   2.619   4.680  0.6455  0.6032 -0.6630
  122MOL   H12346345   5.660   2.586   4.786 -1.6187  1.4212  0.8920
  122MOL   H12446346   5.589   2.800   4.841  1.5525  0.8704  2.8512
  122MOL   H12546347   5.769   2.934   4.913 -0.1626 -1.0968  0.4287
  122MOL   H12646348   5.865   2.896   4.780  0.3080 -0.5124  0.9937
  122MOL   H12746349   5.765   3.112   4.716  1.2582 -1.5991 -1.2882
  122MOL   H12846350   5.615   3.072   4.769 -0.2048  0.2619 -0.4749
  122MOL   H12946351   5.736   2.955   4.514  0.6515 -0.8604  1.1101
  122MOL   H13046352   5.575   3.006   4.540 -0.0534 -1.3767 -0.8167
  122MOL   H13146353   5.506   2.814   4.619 -0.3781 -0.8076  0.6597
  122MOL   H13246354   5.642   2.744   4.554  0.3542 -1.9487  1.2065
  122MOL   H13346355   5.936   2.656   4.733  1.7338 -1.4352 -0.9627
  122MOL   H13446356   5.830   2.693   4.602  0.5389  1.0873 -0.1760
  122MOL   C13546357   5.855   2.466   4.628  0.4751 -0.2053  0.0795
  122MOL   C13646358   5.987   2.457   4.554 -0.0575  0.4138  0.3557
  122MOL   C13746359   6.018   2.317   4.487 -0.0184  0.1482 -0.6296
  122MOL   C13846360   6.173   2.316   4.468 -0.2482  0.8795 -0.2308
  122MOL   C13946361   6.214   2.374   4.602 -0.2495 -0.2126 -0.3229
  122MOL   C14046362   6.106   2.476   4.653  0.2975 -0.3994 -0.0933
  122MOL   C14146363   5.736   2.430   4.538  0.7844  0.9414 -0.0605
  122MOL   H14246364   5.857   2.395   4.711  0.5468 -0.4743 -0.1511
  122MOL   H14346365   5.986   2.541   4.484 -0.5579  1.2263  1.3208
  122MOL   H14446366   5.989   2.237   4.556 -0.8122  0.8287 -0.1761
  122MOL   H14546367   5.967   2.303   4.392  1.7893  0.0207 -1.6065
  122MOL   H14646368   6.205   2.380   4.386  2.0204 -0.9970 -0.8612
  122MOL   H14746369   6.215   2.220   4.439 -1.0626  0.8527 -1.3509
  122MOL   H14846370   6.309   2.422   4.582 -0.3307 -0.8148 -2.2930
  122MOL   H14946371   6.224   2.282   4.661  2.1168 -1.4228 -2.4784
  122MOL   H15046372   6.083   2.432   4.750 -0.4258 -2.6894 -1.2565
  122MOL   H15146373   6.140   2.580   4.657 -1.0997  0.0475  0.2696
  122MOL   H15246374   5.755   2.455   4.433 -1.3247  0.3913 -0.5938
  122MOL   H15346375   5.655   2.496   4.569  0.1794  0.5160 -0.7267
  122MOL   C15446376   5.676   2.286   4.540 -0.3790 -0.1424  0.0319
  122MOL   C15546377   5.585   2.272   4.668 -0.4772 -0.3120 -1.1673
  122MOL   C15646378   5.558   2.120   4.708  0.5124  0.0405  0.3642
  122MOL   C15746379   5.432   2.131   4.793 -0.1751  0.2440  0.1069
  122MOL   C15846380   5.345   2.244   4.733  0.2036  0.0596  0.1758
  122MOL   C15946381   5.447   2.348   4.667 -0.6848  0.2977 -0.1470
  122MOL   C16046382   5.601   2.259   4.408 -0.5840 -0.1411 -0.3821
  122MOL   H16146383   5.758   2.214   4.536 -0.4443 -0.0804 -3.1002
  122MOL   H16246384   5.643   2.316   4.749 -1.1971  1.1255 -1.4160
  122MOL   H16346385   5.555   2.048   4.626 -0.6008  2.3823 -1.7223
  122MOL   H16446386   5.650   2.092   4.760  0.9931  3.6316  1.6126
  122MOL   H16546387   5.383   2.034   4.797 -0.0535  0.2336  2.0488
  122MOL   H16646388   5.448   2.153   4.899 -1.3087  0.3838  0.2512
  122MOL   H16746389   5.280   2.290   4.808  2.4796  0.5397  1.9135
  122MOL   H16846390   5.285   2.203   4.653 -0.8193 -0.2433  1.0887
  122MOL   H16946391   5.456   2.439   4.727  0.3788  0.8612 -1.1613
  122MOL   H17046392   5.418   2.371   4.565 -5.6279 -0.5135  0.9346
  122MOL   H17146393   5.555   2.353   4.379 -0.8294 -0.5336 -1.3085
  122MOL   H17246394   5.511   2.199   4.418 -1.6048  1.2063 -1.3662
  122MOL   C17346395   5.684   2.208   4.291  0.2111 -0.6043 -0.0205
  122MOL   C17446396   5.612   2.233   4.156  0.2074  0.1182 -0.1580
  122MOL   C17546397   5.580   2.373   4.108 -0.2465 -0.2671  0.1469
  122MOL   C17646398   5.487   2.359   3.992 -0.4874 -0.2927 -0.3084
  122MOL   C17746399   5.400   2.228   4.021 -0.2900 -0.4537 -0.1676
  122MOL   C17846400   5.466   2.167   4.145  0.3168 -0.3328  0.1402
  122MOL   C17946401   5.706   2.053   4.307 -0.1462 -0.3519  0.0587
  122MOL   H18046402   5.784   2.251   4.288  0.3211 -0.7385  1.3466
  122MOL   H18146403   5.670   2.186   4.077  2.6418  1.7630  0.5887
  122MOL   H18246404   5.669   2.432   4.087  1.5139 -2.8969 -0.0366
  122MOL   H18346405   5.526   2.439   4.175  0.7233  0.1768  0.4948
  122MOL   H18446406   5.419   2.444   3.983  0.1987  0.1842 -1.0142
  122MOL   H18546407   5.547   2.348   3.902 -0.7395 -1.7825 -0.3152
  122MOL   H18646408   5.403   2.156   3.939 -0.6783 -3.0955  2.0582
  122MOL   H18746409   5.293   2.249   4.026 -0.6850 -2.1056 -1.2350
  122MOL   H18846410   5.403   2.181   4.233 -0.2230  2.3788 -0.6351
  122MOL   H18946411   5.474   2.059   4.129 -2.7137 -0.8903  1.8828
  122MOL   H19046412   5.651   2.011   4.390 -0.5152  0.5152  0.2545
  122MOL   H19146413   5.674   2.000   4.217 -2.5878 -0.9116  1.2412
  122MOL   C19246414   5.852   2.013   4.328 -0.3824  0.4603  0.2285
  122MOL   C19346415   5.940   2.026   4.201  0.1384 -0.0538  0.5455
  122MOL   C19446416   5.905   1.931   4.084 -0.0679 -0.2520 -0.1863
  122MOL   C19546417   6.039   1.877   4.032 -0.4126 -0.1779  0.1093
  122MOL   C19646418   6.152   1.962   4.093 -0.1686 -0.0451  0.3510
  122MOL   C19746419   6.092   2.003   4.224  0.3897 -0.5245  0.2695
  122MOL   C19846420   5.870   1.868   4.387 -0.6253  0.0910 -0.2192
  122MOL   H19946421   5.891   2.080   4.404  0.6171  0.9003 -0.6603
  122MOL   H20046422   5.946   2.132   4.175 -0.1465  0.3644  2.1539
  122MOL   H20146423   5.854   1.975   3.998 -1.3713  2.9280  2.1097
  122MOL   H20246424   5.846   1.847   4.121 -0.2110 -0.0620  0.0188
  122MOL   H20346425   6.044   1.772   4.062  0.8385 -0.2458 -0.3015
  122MOL   H20446426   6.045   1.882   3.923  2.7747  1.7824  0.3061
  122MOL   H20546427   6.180   2.051   4.037  0.4248  1.1645  2.5384
  122MOL   H20646428   6.236   1.896   4.113 -1.3947 -1.4238  1.1135
  122MOL   H20746429   6.145   2.084   4.276  0.9354 -0.0033 -1.0876
  122MOL   H20846430   6.115   1.924   4.296 -0.1483 -1.5100 -0.6432
  122MOL   H20946431   5.807   1.806   4.323 -1.3778  3.3823 -2.8390
  122MOL   H21046432   5.964   1.815   4.371  0.8548  2.7155 -0.5417
  122MOL   C21146433   5.826   1.843   4.535 -0.1604 -0.2137 -0.3637
  122MOL   C21246434   5.739   1.717   4.556 -0.3384  0.2686  0.0759
  122MOL   C21346435   5.605   1.723   4.480  0.0940 -0.0888  0.4681
  122MOL   C21446436   5.586   1.573   4.436  0.3705 -0.0006  0.5564
  122MOL   C21546437   5.727   1.523   4.408  0.4323  0.1487 -0.0109
  122MOL   C21646438   5.807   1.577   4.524 -0.1055  0.3896 -0.2359
  122MOL   C21746439   5.950   1.841   4.626  0.3414  0.4709  0.3372
  122MOL   H21846440   5.761   1.926   4.565 -0.1373 -0.2322 -0.2609
  122MOL   H21946441   5.719   1.703   4.663  0.6921 -1.5708  0.0612
  122MOL   H22046442   5.528   1.754   4.550  1.1598 -2.7903  2.9584
  122MOL   H22146443   5.595   1.788   4.393  3.5342  0.0188  0.0875
  122MOL   H22246444   5.524   1.530   4.515 -0.6728  3.0481  1.4760
  122MOL   H22346445   5.525   1.572   4.345  1.1320 -1.9103  0.0545
  122MOL   H22446446   5.767   1.563   4.315  0.0619 -1.4420 -0.8694
  122MOL   H22546447   5.727   1.415   4.394 -2.3929 -0.1298  1.7196
  122MOL   H22646448   5.807   1.501   4.601  0.3143 -2.4416 -2.9423
  122MOL   H22746449   5.915   1.577   4.505  0.3406  1.2707  2.0353
  122MOL   H22846450   6.026   1.905   4.580  1.0673 -0.7387 -0.1653
  122MOL   H22946451   5.998   1.745   4.606  0.6892  0.9124 -1.0217
  122MOL   C23046452   5.934   1.861   4.782  1.1951  0.0978 -0.9187
  122MOL   C23146453   5.922   2.009   4.822  0.3942  0.7934  0.9062
  122MOL   C23246454   5.848   2.038   4.953  0.3617 -0.5952  0.0767
  122MOL   C23346455   5.921   2.163   5.005  0.2343 -0.0673  0.4051
  122MOL   C23446456   6.015   2.213   4.895  0.2487 -0.8330 -0.0261
  122MOL   C23546457   6.056   2.086   4.824 -0.4401  0.0637 -0.4998
  122MOL   C23646458   6.041   1.788   4.863  0.0953  0.0128 -0.1706
  122MOL   H23746459   5.840   1.811   4.805 -0.3178  2.1168 -2.6554
  122MOL   H23846460   5.880   2.070   4.742 -0.5015 -0.2043  0.6173
  122MOL   H23946461   5.741   2.058   4.952  0.7189  1.8869  3.0708
  122MOL   H24046462   5.860   1.956   5.024  0.0932  0.1296  0.9698
  122MOL   H24146463   5.863   2.245   5.047  0.6204  1.4002 -1.8345
  122MOL   H24246464   5.990   2.146   5.087  0.8329 -0.0123 -0.0861
  122MOL   H24346465   6.096   2.273   4.936 -0.9172 -0.3818  1.6667
  122MOL   H24446466   5.961   2.283   4.831  1.1580  1.5244  1.7393
  122MOL   H24546467   6.136   2.033   4.875 -1.3421 -0.2878  0.5802
  122MOL   H24646468   6.081   2.103   4.719  0.0705  0.6737 -0.2820
  122MOL   H24746469   6.026   1.807   4.969  1.0417 -2.0811  0.3616
  122MOL   H24846470   6.137   1.834   4.836 -0.2390  1.9095  1.7295
  122MOL   C24946471   6.039   1.632   4.863  0.2100  0.4570 -0.0855
  122MOL   C25046472   5.977   1.573   4.999  0.3220  0.0446 -0.0610
  122MOL   C25146473   5.956   1.425   5.005  0.3886 -0.4717  0.1681
  122MOL   C25246474   5.866   1.394   5.130  0.5178  0.6388 -0.1365
  122MOL   C25346475   5.790   1.525   5.150  0.9997 -0.2838 -0.2255
  122MOL   C25446476   5.844   1.629   5.052 -0.3786  0.2118 -0.2638
  122MOL   C25546477   6.185   1.592   4.844 -0.0883 -0.2039 -0.5512
  122MOL   H25646478   5.973   1.599   4.783  0.6192  0.2548 -0.3395
  122MOL   H25746479   6.045   1.595   5.082 -0.6873 -0.2901  0.8586
  122MOL   H25846480   6.051   1.373   5.014  0.5618 -0.3567 -0.9390
  122MOL   H25946481   5.914   1.388   4.912  0.3333  0.2102 -0.0846
  122MOL   H26046482   5.920   1.367   5.221 -0.4963 -0.2413  0.2250
  122MOL   H26146483   5.793   1.314   5.117  0.5164  0.9286 -1.9198
  122MOL   H26246484   5.789   1.555   5.255 -3.2700  0.9274 -0.4827
  122MOL   H26346485   5.683   1.519   5.130  0.7382 -0.8659  1.2352
  122MOL   H26446486   5.854   1.723   5.107  1.6573 -0.0646 -0.1466
  122MOL   H26546487   5.790   1.658   4.962  0.4994  1.4427 -0.4059
  122MOL   H26646488   6.246   1.670   4.890  0.6968 -1.5776  0.7760
  122MOL   H26746489   6.201   1.499   4.898 -0.9471  0.8120  1.5083
  122MOL   C26846490   6.229   1.589   4.697  0.2258 -0.2683  0.7316
  122MOL   C26946491   6.171   1.466   4.623 -0.1138  0.2950 -0.5003
  122MOL   C27046492   6.236   1.326   4.660  0.1810  0.3293 -0.3344
  122MOL   C27146493   6.213   1.242   4.537 -0.3056 -0.2407 -0.4608
  122MOL   C27246494   6.238   1.341   4.422 -0.9455 -0.3851 -0.0913
  122MOL   C27346495   6.179   1.472   4.471 -0.9147 -0.1549 -0.1983
  122MOL   C27446496   6.383   1.603   4.668 -0.0565  0.4258 -0.1597
  122MOL   H27546497   6.184   1.679   4.654 -0.6248 -0.5753  0.9751
  122MOL   H27646498   6.067   1.462   4.655  0.0912 -1.5718  0.0131
  122MOL   H27746499   6.341   1.326   4.686  0.5866 -0.5907 -1.8676
  122MOL   H27846500   6.185   1.272   4.739 -0.4722  1.0234 -0.2739
  122MOL   H27946501   6.276   1.153   4.536 -0.6998 -0.5391  0.4793
  122MOL   H28046502   6.114   1.197   4.542 -0.0816 -0.9305 -1.9439
  122MOL   H28146503   6.208   1.302   4.324  1.5275  1.2691 -1.5691
  122MOL   H28246504   6.346   1.338   4.408 -0.9056  0.6428  0.0308
  122MOL   H28346505   6.074   1.472   4.439 -0.4379  0.0540 -1.7971
  122MOL   H28446506   6.236   1.556   4.433 -1.4414  0.8757  1.2371
  122MOL   H28546507   6.430   1.514   4.627 -3.6344 -0.7199 -1.9867
  122MOL   H28646508   6.433   1.631   4.760 -0.9504  1.4574  0.0285
  122MOL   C28746509   6.414   1.719   4.571  0.1686 -0.4128  0.0022
  122MOL   C28846510   6.393   1.857   4.643  0.0195  0.4078 -0.5260
  122MOL   C28946511   6.509   1.905   4.736 -0.3161 -0.2685  0.0196
  122MOL   C29046512   6.504   2.058   4.733  0.0578  0.4535  0.2874
  122MOL   C29146513   6.472   2.089   4.587 -0.2470  0.4148  0.8966
  122MOL   C29246514   6.382   1.971   4.539  0.1257  0.3660 -0.2869
  122MOL   C29346515   6.540   1.694   4.482  0.1295  0.1453  0.0126
  122MOL   H29446516   6.341   1.726   4.490 -0.4301 -2.5831  0.3112
  122MOL   H29546517   6.301   1.861   4.701 -0.1039  0.0549 -0.6949
  122MOL   H29646518   6.499   1.874   4.840 -1.7641  1.7408  0.5109
  122MOL   H29746519   6.609   1.873   4.706 -0.9017 -3.6313  1.3507
  122MOL   H29846520   6.428   2.095   4.801  1.0250 -0.2885  1.7833
  122MOL   H29946521   6.597   2.099   4.772 -0.8737  1.9059  1.0027
  122MOL   H30046522   6.569   2.088   4.536 -1.1483 -1.6014 -0.8801
  122MOL   H30146523   6.422   2.185   4.581 -1.0019 -0.0656 -0.7141
  122MOL   H30246524   6.432   1.944   4.446  0.1058 -1.3183  0.1809
  122MOL   H30346525   6.281   2.010   4.531  0.7253  2.0882  0.1881
  122MOL   H30446526   6.608   1.658   4.559  0.3820 -0.5191 -0.5158
  122MOL   H30546527   6.588   1.783   4.442 -1.1413  0.3429 -1.1104
  122MOL   C30646528   6.542   1.588   4.372 -0.0331 -0.2979 -0.2436
  122MOL   C30746529   6.476   1.637   4.243  0.1078  0.2986  0.5762
  122MOL   C30846530   6.556   1.735   4.156  0.2234 -0.0719 -0.4326
  122MOL   C30946531   6.575   1.674   4.019 -0.7727  0.0177  0.1420
  122MOL   C31046532   6.449   1.577   4.012 -0.7433 -0.6143  0.9335
  122MOL   C31146533   6.441   1.524   4.150  0.3677 -0.4876  0.5718
  122MOL   C31246534   6.689   1.530   4.341  0.1762 -0.0663  0.5480
  122MOL   H31346535   6.483   1.500   4.397 -0.0164 -0.3259 -0.3021
  122MOL   H31446536   6.385   1.695   4.262 -0.5598 -1.0366  1.5363
  122MOL   H31546537   6.655   1.760   4.193  0.3293 -0.4481 -0.4529
  122MOL   H31646538   6.484   1.817   4.152  1.2696  0.9987  2.1308
  122MOL   H31746539   6.577   1.760   3.952  0.7233 -0.2648 -0.1921
  122MOL   H31846540   6.672   1.625   4.010 -0.5499  0.6518 -1.0389
  122MOL   H31946541   6.465   1.490   3.949  3.4851  0.3463  0.4929
  122MOL   H32046542   6.363   1.640   3.988  0.2791 -0.4140 -2.5131
  122MOL   H32146543   6.337   1.502   4.174 -1.1472  1.2942 -3.8677
  122MOL   H32246544   6.512   1.442   4.150  1.1850  0.2121  0.0062
  122MOL   H32346545   6.763   1.609   4.327  0.1754 -0.3178 -0.9621
  122MOL   H32446546   6.678   1.477   4.246 -0.3386  2.5755 -0.9229
  122MOL   C32546547   6.757   1.434   4.435 -0.4764 -0.0061 -0.2992
  122MOL   C32646548   6.910   1.436   4.433 -0.0768  0.4206 -0.3599
  122MOL   C32746549   6.985   1.557   4.497 -0.7218 -0.1929  0.6709
  122MOL   C32846550   7.098   1.590   4.406  0.1402 -0.4045  0.1101
  122MOL   C32946551   7.041   1.551   4.269 -0.1745 -0.4202  0.8299
  122MOL   C33046552   6.967   1.420   4.288  0.1260 -0.0651  0.3364
  122MOL   C33146553   6.705   1.292   4.437 -0.1117 -0.4610 -0.7478
  122MOL   H33246554   6.742   1.473   4.536  2.9648 -1.5944  0.9184
  122MOL   H33346555   6.950   1.352   4.490 -3.0687 -1.2035 -0.5440
  122MOL   H33446556   7.020   1.532   4.598  0.5665  1.5527  0.6751
  122MOL   H33546557   6.922   1.646   4.500 -1.2050 -0.5437  1.0091
  122MOL   H33646558   7.183   1.531   4.439  0.6725 -0.1096 -0.6905
  122MOL   H33746559   7.123   1.696   4.414 -1.7674 -0.0841  2.2105
  122MOL   H33846560   7.114   1.554   4.187 -1.5545 -2.1662 -0.4988
  122MOL   H33946561   6.973   1.627   4.231  0.3768 -1.2207 -1.8773
  122MOL   H34046562   7.038   1.337   4.297 -0.5852 -0.7429 -0.1532
  122MOL   H34146563   6.897   1.408   4.206 -1.0165  0.8203  1.1608
  122MOL   H34246564   6.720   1.238   4.343 -0.3082 -0.5216 -0.7449
  122MOL   H34346565   6.597   1.304   4.427 -0.5163 -2.1480  1.2945
  122MOL   C34446566   6.706   1.195   4.555  0.1123 -0.5475  0.2223
  122MOL   C34546567   6.660   1.256   4.693 -0.1270  0.2439  0.9766
  122MOL   C34646568   6.766   1.330   4.777  0.1506  0.3126 -0.0419
  122MOL   C34746569   6.804   1.232   4.896 -0.6754  0.0948 -0.0577
  122MOL   C34846570   6.701   1.117   4.881  0.5697  0.6890 -0.0885
  122MOL   C34946571   6.597   1.149   4.781 -0.0444 -0.4440 -0.6185
  122MOL   C35046572   6.826   1.100   4.574 -0.3230  0.2916  0.2721
  122MOL   H35146573   6.627   1.131   4.517 -0.3962  0.0786  0.2089
  122MOL   H35246574   6.575   1.321   4.673 -0.0059 -0.0046 -0.3618
  122MOL   H35346575   6.726   1.426   4.808  0.5522  0.6711 -0.6207
  122MOL   H35446576   6.846   1.356   4.708  0.2422 -0.7285 -0.3384
  122MOL   H35546577   6.901   1.182   4.888 -0.0238  1.3764 -0.4065
  122MOL   H35646578   6.811   1.292   4.986  1.8837  0.7223 -0.6228
  122MOL   H35746579   6.653   1.113   4.979 -0.8565  0.5134 -0.7829
  122MOL   H35846580   6.748   1.019   4.884 -0.4995  0.1941  2.2871
  122MOL   H35946581   6.560   1.057   4.736  1.7087 -1.3410 -0.2818
  122MOL   H36046582   6.511   1.197   4.828 -0.5758 -1.0405 -0.9783
  122MOL   H36146583   6.802   1.032   4.656  0.5461  0.3837  0.5982
  122MOL   H36246584   6.900   1.163   4.624 -0.7321 -2.3791  4.5359
  122MOL   C36346585   6.887   1.029   4.444  0.4894  0.2131 -0.6951
  122MOL   C36446586   7.017   0.946   4.487 -0.1384 -0.0685 -0.1539
  122MOL   C36546587   7.121   1.018   4.570  0.5500 -0.1699 -0.5385
  122MOL   C36646588   7.263   0.966   4.540 -0.0778  0.1914  0.1418
  122MOL   C36746589   7.244   0.886   4.410  0.0539  0.2249  0.1481
  122MOL   C36846590   7.098   0.881   4.372 -0.6513  0.1917  0.2700
  122MOL   C36946591   6.780   0.943   4.380  0.5935 -0.5513 -0.1566
  122MOL   H37046592   6.927   1.100   4.372  2.0927  0.2349  0.2001
  122MOL   H37146593   6.984   0.860   4.544  0.8916 -0.5040 -0.1992
  122MOL   H37246594   7.137   1.124   4.554 -1.5657  0.1841 -0.4421
  122MOL   H37346595   7.100   0.998   4.675  1.8302 -0.8029 -0.3843
  122MOL   H37446596   7.342   1.037   4.513  0.9356 -1.3292 -0.9651
  122MOL   H37546597   7.289   0.897   4.620 -1.9724 -0.4759  0.1954
  122MOL   H37646598   7.309   0.929   4.334  2.0843 -1.3805  0.9182
  122MOL   H37746599   7.285   0.787   4.432  0.7745 -0.0500 -2.2487
  122MOL   H37846600   7.066   0.779   4.353 -0.3438  0.0586  0.4691
  122MOL   H37946601   7.095   0.950   4.288 -1.1056  1.5207  1.3588
  122MOL   H38046602   6.710   1.005   4.324  1.6895 -0.1760 -1.1267
  122MOL   H38146603   6.721   0.912   4.467  1.7423 -0.3506  0.7002
  122MOL   H38246604   6.812   0.848   4.338 -1.2569 -0.6569 -1.4053
  123MOL     C146605   5.278   6.148   1.266 -0.8660  0.6163 -0.1052
  123MOL     C246606   5.171   6.253   1.285 -1.0585  0.2571  0.7306
  123MOL     C346607   5.037   6.212   1.225  0.2461 -0.8181 -0.4750
  123MOL     C446608   5.020   6.313   1.116 -0.0402  0.0014  0.0231
  123MOL     C546609   5.086   6.438   1.160 -0.2433  0.0478  0.4538
  123MOL     C646610   5.210   6.387   1.234 -0.4360  0.2977  0.5351
  123MOL     C746611   5.281   6.043   1.378 -0.4867  0.3674 -0.0124
  123MOL     H846612   5.266   6.090   1.174  0.2887 -1.8332  1.2549
  123MOL     H946613   5.164   6.267   1.392  0.1164  0.7944  0.7497
  123MOL    H1046614   5.034   6.111   1.185  3.2569 -0.2251 -2.4343
  123MOL    H1146615   4.963   6.226   1.303  0.1677 -1.5313 -0.4192
  123MOL    H1246616   5.074   6.284   1.026 -0.6871  2.5377 -1.2587
  123MOL    H1346617   4.915   6.330   1.090  0.1250  3.2825  1.2816
  123MOL    H1446618   5.119   6.505   1.080  2.1626 -1.1092  0.4318
  123MOL    H1546619   5.034   6.501   1.232 -0.3224 -0.8969  1.2304
  123MOL    H1646620   5.245   6.450   1.315 -1.0855 -0.9405  1.7939
  123MOL    H1746621   5.300   6.388   1.172 -0.6115  1.8610  0.3045
  123MOL    H1846622   5.271   6.088   1.477 -1.3481  1.0747 -0.4062
  123MOL    H1946623   5.196   5.977   1.359 -1.0253  1.2250 -0.6347
  123MOL    H2046624   5.377   6.195   1.264  0.9096 -2.9710 -1.8961
  123MOL    C2146625   5.397   5.942   1.364 -0.5305  0.2721 -1.1083
  123MOL    C2246626   5.534   6.007   1.385 -0.4104 -0.7838  0.4617
  123MOL    C2346627   5.548   6.142   1.473  0.3301  0.8527 -0.3023
  123MOL    C2446628   5.682   6.199   1.439 -0.8436  0.2110  0.0131
  123MOL    C2546629   5.721   6.148   1.302  0.9489 -0.7663 -0.3095
  123MOL    C2646630   5.622   6.040   1.263  0.2498 -0.0616  0.6366
  123MOL    C2746631   5.363   5.819   1.454  0.1985 -0.1484  0.2026
  123MOL    H2846632   5.398   5.906   1.262 -1.4673  1.6534 -1.6239
  123MOL    H2946633   5.599   5.940   1.443  1.8518  0.0195 -1.0732
  123MOL    H3046634   5.540   6.118   1.579 -0.9488 -1.3082 -0.8504
  123MOL    H3146635   5.472   6.218   1.457  0.0674  0.4625 -0.9658
  123MOL    H3246636   5.702   6.306   1.432 -0.7470  0.3832  2.6172
  123MOL    H3346637   5.759   6.168   1.510  0.4455  0.9778 -1.0146
  123MOL    H3446638   5.825   6.115   1.295  2.3089  2.3727  3.1019
  123MOL    H3546639   5.717   6.215   1.215 -1.3990  1.3719  1.3707
  123MOL    H3646640   5.672   5.950   1.225  1.4786  1.4513 -1.4783
  123MOL    H3746641   5.560   6.063   1.177  2.6376 -0.8463 -1.3584
  123MOL    H3846642   5.354   5.867   1.551 -1.1476  1.0677 -0.5036
  123MOL    H3946643   5.265   5.776   1.437  0.9585 -1.2011 -1.6599
  123MOL    C4046644   5.460   5.700   1.459 -0.7059 -0.0027  0.4539
  123MOL    C4146645   5.485   5.647   1.603 -0.5252 -0.4488  0.3153
  123MOL    C4246646   5.544   5.746   1.706  0.0964  0.3646 -0.3894
  123MOL    C4346647   5.599   5.657   1.822 -0.6015  0.1675  0.3808
  123MOL    C4446648   5.642   5.523   1.762  0.2873 -0.2298  0.0314
  123MOL    C4546649   5.589   5.535   1.621 -0.4252  0.5252  0.4787
  123MOL    C4646650   5.413   5.580   1.371  0.9115  0.8343  0.7878
  123MOL    H4746651   5.559   5.732   1.427  0.0871 -1.1393  1.6869
  123MOL    H4846652   5.394   5.609   1.648 -0.3991 -0.6283  0.4225
  123MOL    H4946653   5.466   5.817   1.734 -0.9313 -1.3704  1.2180
  123MOL    H5046654   5.621   5.807   1.659  0.7019  0.2159  0.3990
  123MOL    H5146655   5.519   5.636   1.893  0.1085  0.2117  1.2007
  123MOL    H5246656   5.682   5.696   1.881 -0.5629 -0.7778  0.9456
  123MOL    H5346657   5.748   5.499   1.767  0.6009  1.3512  1.0228
  123MOL    H5446658   5.602   5.441   1.823 -0.8091  0.0170 -0.3550
  123MOL    H5546659   5.681   5.566   1.571 -0.3730 -1.2408 -0.5746
  123MOL    H5646660   5.564   5.437   1.580  1.9253  0.0246  0.1179
  123MOL    H5746661   5.435   5.479   1.406 -0.6057  0.9559  2.1694
  123MOL    H5846662   5.304   5.585   1.368  0.9467  0.6748 -1.3754
  123MOL    C5946663   5.456   5.575   1.230 -0.4759 -0.7734  0.1596
  123MOL    C6046664   5.608   5.555   1.223 -0.6026  0.6764 -0.0782
  123MOL    C6146665   5.670   5.561   1.076 -0.3037  0.3785  0.2475
  123MOL    C6246666   5.782   5.456   1.083  0.5751  0.5422 -0.2482
  123MOL    C6346667   5.800   5.402   1.222  0.1606 -0.0125 -0.2696
  123MOL    C6446668   5.658   5.419   1.278 -0.6627 -0.7050  0.2451
  123MOL    C6546669   5.377   5.467   1.142 -0.1349  0.5883  0.0984
  123MOL    H6646670   5.446   5.668   1.174  2.5897 -2.4520 -3.4047
  123MOL    H6746671   5.667   5.622   1.285  0.4914  0.4309 -0.8352
  123MOL    H6846672   5.724   5.652   1.051  1.3244 -0.3361  1.1599
  123MOL    H6946673   5.599   5.534   0.997 -1.0665 -0.7829  1.3128
  123MOL    H7046674   5.872   5.493   1.033  2.1071 -2.2798  0.3444
  123MOL    H7146675   5.752   5.376   1.015  0.2040  0.8001 -0.3922
  123MOL    H7246676   5.864   5.465   1.285 -1.6957  0.5176  1.1371
  123MOL    H7346677   5.824   5.296   1.224  1.0834  0.1719 -1.1958
  123MOL    H7446678   5.602   5.331   1.245 -0.3421 -0.5066 -0.8391
  123MOL    H7546679   5.660   5.422   1.387 -1.4954  0.4302  0.2314
  123MOL    H7646680   5.376   5.372   1.195  1.8737 -0.3361 -1.4329
  123MOL    H7746681   5.420   5.442   1.045  1.0384  1.2435  0.4496
  123MOL    C7846682   5.223   5.508   1.115  0.6029 -0.5695 -0.2513
  123MOL    C7946683   5.198   5.617   1.005 -0.1835 -0.9075 -0.4013
  123MOL    C8046684   5.292   5.611   0.883  0.3377 -0.9016  0.2121
  123MOL    C8146685   5.277   5.752   0.828  0.5935  0.6174 -0.8093
  123MOL    C8246686   5.262   5.844   0.949 -0.6523  0.1553 -0.2115
  123MOL    C8346687   5.193   5.759   1.054  0.2824 -0.1296 -0.2868
  123MOL    C8446688   5.134   5.384   1.093  0.3034  0.7788  0.1788
  123MOL    H8546689   5.186   5.559   1.204 -1.6997 -0.7654 -1.0585
  123MOL    H8646690   5.100   5.601   0.959  0.1465 -0.1232 -1.4211
  123MOL    H8746691   5.275   5.530   0.812 -0.1365  0.2130 -0.9604
  123MOL    H8846692   5.397   5.596   0.911 -0.6199 -3.2685  2.7860
  123MOL    H8946693   5.195   5.743   0.757 -0.8499 -3.4955  1.1963
  123MOL    H9046694   5.365   5.776   0.768  0.8599  0.6704 -0.4009
  123MOL    H9146695   5.353   5.889   0.987 -2.1502  2.4299  0.8118
  123MOL    H9246696   5.211   5.937   0.926 -2.1509 -0.8570 -1.0816
  123MOL    H9346697   5.240   5.759   1.152  0.8512  0.3786 -0.5540
  123MOL    H9446698   5.091   5.795   1.067 -0.0539 -1.0691 -0.2514
  123MOL    H9546699   5.198   5.299   1.071  0.0961  0.9718 -1.1883
  123MOL    H9646700   5.059   5.395   1.015  0.4952 -1.3562 -0.3409
  123MOL    C9746701   5.054   5.357   1.223  0.6734  0.4659 -0.2545
  123MOL    C9846702   5.133   5.302   1.343 -0.7273  0.5204  0.0964
  123MOL    C9946703   5.060   5.310   1.480 -0.6798  0.1446  0.2818
  123MOL   C10046704   5.152   5.223   1.568 -0.2957  0.8352 -0.5830
  123MOL   C10146705   5.203   5.108   1.480  0.5120  0.1027 -0.6895
  123MOL   C10246706   5.189   5.165   1.335  0.2026  0.4055  0.5195
  123MOL   C10346707   4.935   5.261   1.190 -0.2156 -0.2466 -0.3437
  123MOL   H10446708   5.022   5.454   1.260 -1.5133  0.2450 -1.4854
  123MOL   H10546709   5.219   5.369   1.348  0.0635 -0.0776 -3.5804
  123MOL   H10646710   5.057   5.412   1.517 -2.4559 -0.1641  1.0374
  123MOL   H10746711   4.960   5.269   1.468 -0.8541  1.3520 -2.9100
  123MOL   H10846712   5.096   5.200   1.659  1.4670  3.0118  1.1214
  123MOL   H10946713   5.241   5.277   1.598  0.1723 -0.4788  0.4032
  123MOL   H11046714   5.131   5.027   1.491  2.9109 -1.9650  0.2244
  123MOL   H11146715   5.306   5.080   1.500  0.1862 -0.8529 -0.3094
  123MOL   H11246716   5.282   5.171   1.277 -0.4594 -1.5588 -0.7892
  123MOL   H11346717   5.117   5.101   1.285  0.7041 -0.4356  0.8504
  123MOL   H11446718   4.977   5.195   1.114  1.7955  2.6174 -1.8597
  123MOL   H11546719   4.913   5.201   1.278  1.2700 -0.2746  0.0232
  123MOL   C11646720   4.808   5.331   1.145 -0.5089  0.7684  0.3995
  123MOL   C11746721   4.719   5.223   1.065 -0.1575  0.1815 -0.9641
  123MOL   C11846722   4.779   5.188   0.927  0.2737 -0.1926  0.4929
  123MOL   C11946723   4.768   5.031   0.919 -0.3946 -0.0208 -0.1932
  123MOL   C12046724   4.778   4.974   1.064  0.1226  0.4795  0.1039
  123MOL   C12146725   4.699   5.086   1.145  0.0462  0.1673  0.3911
  123MOL   C12246726   4.733   5.403   1.259  0.0542  0.4775  0.5796
  123MOL   H12346727   4.829   5.405   1.067 -0.0790 -0.4805 -0.6925
  123MOL   H12446728   4.622   5.267   1.042 -0.2801  0.1271 -0.5606
  123MOL   H12546729   4.729   5.228   0.839  1.3100 -1.2189 -0.5860
  123MOL   H12646730   4.885   5.212   0.918  0.6495 -2.0653 -0.5350
  123MOL   H12746731   4.844   4.981   0.859 -1.4693  0.1209 -1.6914
  123MOL   H12846732   4.679   5.003   0.863 -0.5648  1.7876 -0.8544
  123MOL   H12946733   4.880   4.985   1.101  0.4072  0.4312 -0.6765
  123MOL   H13046734   4.744   4.872   1.081 -0.7861  1.1915  2.9947
  123MOL   H13146735   4.595   5.053   1.140 -0.1538  0.4482  2.3074
  123MOL   H13246736   4.727   5.076   1.250  1.0567 -1.7376 -0.0587
  123MOL   H13346737   4.780   5.378   1.354  1.7576 -0.7812 -0.5660
  123MOL   H13446738   4.630   5.368   1.267  0.7122 -1.4359  0.8810
  123MOL   C13546739   4.731   5.556   1.242  0.3925  0.2216 -0.2157
  123MOL   C13646740   4.704   5.625   1.381 -0.4176 -0.2602 -0.3251
  123MOL   C13746741   4.825   5.615   1.479  0.6119  0.2456 -0.2242
  123MOL   C13846742   4.770   5.626   1.617  0.0448 -0.0387  0.3166
  123MOL   C13946743   4.621   5.627   1.600  0.6786 -0.6918 -0.3058
  123MOL   C14046744   4.591   5.569   1.463 -0.2389 -0.2121  0.4864
  123MOL   C14146745   4.624   5.597   1.142  0.1975 -0.9370  0.0820
  123MOL   H14246746   4.828   5.587   1.203 -0.7948  2.1461 -1.7385
  123MOL   H14346747   4.695   5.733   1.374  1.1749 -0.1351 -0.6021
  123MOL   H14446748   4.875   5.519   1.471 -1.3994 -0.7011 -1.6837
  123MOL   H14546749   4.882   5.705   1.457 -1.0514  0.8092 -2.3709
  123MOL   H14646750   4.811   5.713   1.668 -2.5688  0.3315  1.8355
  123MOL   H14746751   4.805   5.534   1.663  0.1030  0.7176  1.8246
  123MOL   H14846752   4.599   5.733   1.588 -0.8587 -0.8388  1.0318
  123MOL   H14946753   4.574   5.582   1.687 -1.0955  1.7078  0.0475
  123MOL   H15046754   4.598   5.460   1.464 -1.9226 -0.3298  1.0383
  123MOL   H15146755   4.494   5.609   1.433 -0.3394 -1.1926 -0.5427
  123MOL   H15246756   4.529   5.574   1.191 -0.1608  0.1388 -0.1040
  123MOL   H15346757   4.613   5.523   1.063 -2.3771  0.9599 -1.3792
  123MOL   C15446758   4.618   5.742   1.088 -0.0825 -0.2581 -0.2856
  123MOL   C15546759   4.743   5.770   1.001  0.2103 -0.0446 -0.2059
  123MOL   C15646760   4.759   5.920   0.956 -0.3979 -0.5733  0.1167
  123MOL   C15746761   4.875   5.915   0.860  0.0955  0.0237  0.0928
  123MOL   C15846762   4.837   5.784   0.785 -0.1917 -0.2654  0.1296
  123MOL   C15946763   4.763   5.685   0.880 -0.9884  0.0417 -0.1744
  123MOL   C16046764   4.484   5.777   1.025 -0.2836  0.1147  0.8932
  123MOL   H16146765   4.623   5.810   1.173 -0.1760  0.3517 -0.7654
  123MOL   H16246766   4.825   5.756   1.071 -0.0928  2.1388  0.6434
  123MOL   H16346767   4.667   5.963   0.917 -0.3124  1.6630  2.2555
  123MOL   H16446768   4.786   5.983   1.041  1.9708 -1.9892  0.4597
  123MOL   H16546769   4.890   6.007   0.805  1.9112 -0.7138 -0.6658
  123MOL   H16646770   4.971   5.886   0.902 -0.9747 -0.8089  2.0794
  123MOL   H16746771   4.930   5.742   0.746  0.6378  1.1442  0.5638
  123MOL   H16846772   4.763   5.804   0.707 -0.0889 -1.3893 -0.2735
  123MOL   H16946773   4.810   5.589   0.902 -2.7515 -1.5015 -2.8062
  123MOL   H17046774   4.677   5.652   0.822 -1.2447  1.1240 -0.4170
  123MOL   H17146775   4.454   5.699   0.956 -0.7781  0.7975  0.3315
  123MOL   H17246776   4.496   5.872   0.973  0.7367 -0.8836 -0.7369
  123MOL   C17346777   4.372   5.796   1.127 -0.0663  0.8576 -0.2035
  123MOL   C17446778   4.234   5.735   1.084  0.1559 -0.4975  0.2212
  123MOL   C17546779   4.133   5.726   1.203 -0.3957  0.7455 -0.2648
  123MOL   C17646780   4.027   5.622   1.164 -0.0296 -0.4551 -0.0080
  123MOL   C17746781   4.102   5.536   1.061 -0.1406  0.0474  0.1806
  123MOL   C17846782   4.232   5.604   1.016 -0.8130  0.5064  0.4988
  123MOL   C17946783   4.339   5.945   1.146  0.5123  0.2451 -0.0098
  123MOL   H18046784   4.408   5.754   1.221  1.6592  1.4197 -0.5938
  123MOL   H18146785   4.194   5.801   1.006  0.0175 -0.2866  0.4705
  123MOL   H18246786   4.079   5.819   1.220 -1.3174  0.1781 -0.0618
  123MOL   H18346787   4.187   5.708   1.296  0.1842  2.4824 -0.2459
  123MOL   H18446788   3.990   5.572   1.254 -1.7111 -2.1766 -1.5861
  123MOL   H18546789   3.939   5.668   1.119  0.7428  2.6508  1.5276
  123MOL   H18646790   4.030   5.503   0.986 -0.2478  1.6279 -0.4448
  123MOL   H18746791   4.127   5.452   1.125  1.2604  1.5979  1.7070
  123MOL   H18846792   4.313   5.548   1.061 -1.0361 -1.8841 -1.9723
  123MOL   H18946793   4.255   5.604   0.909  0.9718  3.0734  0.8492
  123MOL   H19046794   4.331   5.987   1.046 -3.0470  1.1296  0.5502
  123MOL   H19146795   4.243   5.967   1.193 -0.7836 -1.6505 -1.7323
  123MOL   C19246796   4.445   6.038   1.214  0.0940 -0.1775 -0.5102
  123MOL   C19346797   4.470   5.992   1.366 -0.1528  0.0800  0.3883
  123MOL   C19446798   4.363   6.020   1.463 -0.2829  0.4777 -0.6283
  123MOL   C19546799   4.410   6.147   1.538  0.8845 -0.7445  0.2110
  123MOL   C19646800   4.558   6.112   1.567  0.1225 -0.4801 -0.3225
  123MOL   C19746801   4.604   6.061   1.428 -0.1942 -0.2497 -0.2098
  123MOL   C19846802   4.409   6.191   1.197  0.3437 -0.0471 -0.0152
  123MOL   H19946803   4.540   6.016   1.165 -0.0254  0.8100 -1.2052
  123MOL   H20046804   4.485   5.884   1.369  1.8745  0.3708  1.9674
  123MOL   H20146805   4.360   5.946   1.543  1.2637  1.3842  0.3176
  123MOL   H20246806   4.264   6.027   1.420 -0.0192 -0.6078 -1.4293
  123MOL   H20346807   4.425   6.236   1.477  1.7816 -1.4174 -0.5602
  123MOL   H20446808   4.345   6.170   1.623 -0.2239 -0.1405 -0.7966
  123MOL   H20546809   4.562   6.037   1.646  0.5085 -1.0976 -0.9179
  123MOL   H20646810   4.617   6.199   1.596 -0.8356 -0.7558  2.6843
  123MOL   H20746811   4.675   5.979   1.443 -0.5673 -1.0072 -2.3912
  123MOL   H20846812   4.646   6.141   1.367 -0.1395  0.8132  1.1880
  123MOL   H20946813   4.336   6.227   1.270 -0.3317  2.0125 -1.6377
  123MOL   H21046814   4.496   6.238   1.243  2.0159  0.0304 -3.1192
  123MOL   C21146815   4.391   6.261   1.054  0.1752 -0.2569 -0.5075
  123MOL   C21246816   4.505   6.226   0.966 -0.0672 -0.2293 -0.0050
  123MOL   C21346817   4.501   6.300   0.830 -1.0826  0.1142 -0.0754
  123MOL   C21446818   4.639   6.295   0.775 -0.6285  0.3756 -0.6393
  123MOL   C21546819   4.728   6.316   0.899  0.4084  0.0722  0.0295
  123MOL   C21646820   4.649   6.266   1.020  0.2153 -0.4262 -0.1254
  123MOL   C21746821   4.245   6.248   0.998  0.2525 -0.4088  0.0736
  123MOL   H21846822   4.404   6.368   1.072  1.2423 -0.0391 -2.4247
  123MOL   H21946823   4.510   6.120   0.938 -2.0724  0.1299 -1.8915
  123MOL   H22046824   4.427   6.267   0.756  0.1545 -2.9405 -0.0138
  123MOL   H22146825   4.465   6.401   0.848  0.4147  0.3767  1.4930
  123MOL   H22246826   4.673   6.206   0.723 -1.8038  0.3628 -1.4187
  123MOL   H22346827   4.654   6.371   0.698  1.5662 -0.3525 -0.9681
  123MOL   H22446828   4.744   6.423   0.907  3.0335 -0.3661  1.2393
  123MOL   H22546829   4.819   6.260   0.880 -0.5626 -1.0445 -1.5051
  123MOL   H22646830   4.702   6.197   1.085 -0.0702  0.5288  1.1372
  123MOL   H22746831   4.633   6.348   1.090 -0.3254 -0.3775 -0.3026
  123MOL   H22846832   4.223   6.145   0.971 -1.3351 -0.0665  0.0079
  123MOL   H22946833   4.246   6.295   0.900  0.4173 -2.4131 -0.9003
  123MOL   C23046834   4.127   6.318   1.087 -0.0504 -0.0392 -0.4893
  123MOL   C23146835   3.992   6.247   1.064 -0.1153 -1.0547 -0.7360
  123MOL   C23246836   3.997   6.098   1.079  0.0488  0.1494 -0.1579
  123MOL   C23346837   3.861   6.047   1.111  0.9431 -0.1552  0.4142
  123MOL   C23446838   3.783   6.168   1.170  0.0136  0.7510  0.4520
  123MOL   C23546839   3.883   6.283   1.169 -0.0616  0.1369 -0.5195
  123MOL   C23646840   4.120   6.469   1.061  0.2058  0.2971 -0.5082
  123MOL   H23746841   4.150   6.302   1.193 -2.4562  0.1445  0.0891
  123MOL   H23846842   3.963   6.282   0.964 -0.2720  2.1888  0.3943
  123MOL   H23946843   4.042   6.056   0.989  0.3012 -0.0112  0.0427
  123MOL   H24046844   4.053   6.075   1.170  0.3204  1.2586 -0.0374
  123MOL   H24146845   3.819   6.024   1.012  0.7810  0.8906  0.2319
  123MOL   H24246846   3.880   5.956   1.169 -1.6171 -0.7142  0.4540
  123MOL   H24346847   3.752   6.162   1.274 -1.9723  1.3503 -0.0737
  123MOL   H24446848   3.697   6.202   1.112 -0.1034 -0.0581  0.1437
  123MOL   H24546849   3.936   6.301   1.262  1.6115 -1.6424 -1.1045
  123MOL   H24646850   3.822   6.369   1.140  0.3019  0.8880  0.8969
  123MOL   H24746851   4.021   6.505   1.089  0.5268  1.2765 -0.6175
  123MOL   H24846852   4.108   6.478   0.953 -0.7124  2.3003 -0.2528
  123MOL   C24946853   4.216   6.568   1.129  1.3711 -0.0898 -0.1832
  123MOL   C25046854   4.146   6.667   1.228  0.0355 -0.2771 -0.0236
  123MOL   C25146855   4.053   6.609   1.335  0.3460 -0.0177 -0.3565
  123MOL   C25246856   3.919   6.688   1.322 -0.0526 -0.4766 -0.2453
  123MOL   C25346857   3.970   6.819   1.268 -0.3541  0.2236  0.6013
  123MOL   C25446858   4.060   6.771   1.161 -0.6142  0.2431  0.5489
  123MOL   C25546859   4.298   6.640   1.019 -0.2521  1.0135 -0.3831
  123MOL   H25646860   4.282   6.503   1.186 -0.4213 -0.4983  1.4874
  123MOL   H25746861   4.218   6.729   1.281  1.6855 -1.4835 -0.8086
  123MOL   H25846862   4.086   6.631   1.437  0.4232  1.2310 -0.6403
  123MOL   H25946863   4.024   6.504   1.329  1.1785 -0.3103  0.5025
  123MOL   H26046864   3.877   6.706   1.421 -0.5416  0.0899 -0.5512
  123MOL   H26146865   3.852   6.634   1.255  0.4204 -0.2178 -0.9367
  123MOL   H26246866   4.034   6.876   1.336  2.4568  0.7446 -2.3320
  123MOL   H26346867   3.887   6.880   1.231 -0.0833 -0.2669 -0.8590
  123MOL   H26446868   4.126   6.848   1.123 -0.8067  1.0492  1.8041
  123MOL   H26546869   4.013   6.731   1.071 -1.1928 -0.9278  1.3557
  123MOL   H26646870   4.332   6.565   0.948  0.1474 -0.1523  1.0145
  123MOL   H26746871   4.231   6.696   0.953 -1.1360 -0.6105 -0.8940
  123MOL   C26846872   4.410   6.736   1.054  0.2508 -0.0631  0.0767
  123MOL   C26946873   4.453   6.828   0.930  0.0972  0.3672  0.4054
  123MOL   C27046874   4.354   6.927   0.886  0.0459 -0.4963  0.9049
  123MOL   C27146875   4.401   6.959   0.736  0.4656  0.6311 -0.0331
  123MOL   C27246876   4.505   6.854   0.691 -0.1184 -0.5491  0.1837
  123MOL   C27346877   4.493   6.748   0.802 -0.5552 -0.1361  0.8227
  123MOL   C27446878   4.535   6.668   1.121  0.0459 -0.2521 -0.4246
  123MOL   H27546879   4.363   6.802   1.127 -1.6863 -0.4728 -0.7762
  123MOL   H27646880   4.534   6.896   0.954  0.0713  0.6500 -0.3238
  123MOL   H27746881   4.250   6.893   0.887 -0.3940  0.8385  2.5629
  123MOL   H27846882   4.366   7.014   0.951 -0.1241  1.1553 -1.2231
  123MOL   H27946883   4.322   6.952   0.662 -0.1452  1.9115  0.4775
  123MOL   H28046884   4.445   7.058   0.727  2.4670 -0.1363  1.0198
  123MOL   H28146885   4.595   6.909   0.662 -0.7825  0.1147 -0.6347
  123MOL   H28246886   4.476   6.819   0.593  0.4862 -2.4317  0.6571
  123MOL   H28346887   4.577   6.679   0.805  0.3171  0.9147  0.7367
  123MOL   H28446888   4.407   6.689   0.771 -0.2756 -0.6348  1.0069
  123MOL   H28546889   4.576   6.610   1.038  0.9083 -0.2655  0.0123
  123MOL   H28646890   4.504   6.587   1.187 -1.1818  1.7006  1.4704
  123MOL   C28746891   4.644   6.760   1.190  0.0053  0.4042 -0.6353
  123MOL   C28846892   4.683   6.710   1.334  0.4642  0.4426  0.0114
  123MOL   C28946893   4.565   6.697   1.439 -0.2250  0.5662  0.2096
  123MOL   C29046894   4.550   6.548   1.470 -0.0282  0.0293  0.3956
  123MOL   C29146895   4.693   6.500   1.458  0.3546 -0.7414  0.0098
  123MOL   C29246896   4.738   6.565   1.334 -0.0155  0.5709  0.4589
  123MOL   C29346897   4.775   6.767   1.099 -0.4101  0.7821  0.2527
  123MOL   H29446898   4.606   6.861   1.211 -2.4703 -0.0316 -2.7496
  123MOL   H29546899   4.766   6.770   1.370  1.4268 -0.7106 -0.2781
  123MOL   H29646900   4.584   6.763   1.523 -1.0399  1.3560 -0.2232
  123MOL   H29746901   4.474   6.734   1.393 -0.0986 -0.0283 -0.5355
  123MOL   H29846902   4.498   6.526   1.563 -0.0447  0.3007  0.4513
  123MOL   H29946903   4.495   6.493   1.393 -0.7675  0.0602  0.8920
  123MOL   H30046904   4.691   6.391   1.450  0.2055 -0.7755  0.4692
  123MOL   H30146905   4.751   6.527   1.546 -1.3902  1.5233  0.5118
  123MOL   H30246906   4.704   6.508   1.247  1.0626 -0.4099  0.6720
  123MOL   H30346907   4.845   6.571   1.314 -0.6331  1.2908 -2.9520
  123MOL   H30446908   4.746   6.762   0.995 -1.0839 -0.4466  0.4956
  123MOL   H30546909   4.825   6.675   1.130  1.6927  1.3971 -1.2145
  123MOL   C30646910   4.866   6.897   1.121  0.4577 -0.5303 -0.1952
  123MOL   C30746911   5.017   6.860   1.104 -0.3418  0.4348 -0.0140
  123MOL   C30846912   5.076   6.844   0.965  0.8736  0.0306  0.1245
  123MOL   C30946913   5.226   6.856   0.981 -0.3113  0.3071 -0.1287
  123MOL   C31046914   5.240   6.978   1.074 -0.1444  0.2015  0.0261
  123MOL   C31146915   5.118   6.967   1.172  0.5254 -0.2722  0.6802
  123MOL   C31246916   4.828   7.018   1.036 -0.0981  0.5156  0.0871
  123MOL   H31346917   4.857   6.926   1.226  0.3605 -1.2625  0.0028
  123MOL   H31446918   5.037   6.765   1.153  1.8604  1.0001  0.2678
  123MOL   H31546919   5.037   6.920   0.897  0.7993 -0.6445 -0.5900
  123MOL   H31646920   5.043   6.748   0.926  0.3644  0.5340 -0.7060
  123MOL   H31746921   5.267   6.764   1.024  0.4326 -0.1224 -1.6879
  123MOL   H31846922   5.285   6.875   0.891 -0.1954  2.6795  0.4233
  123MOL   H31946923   5.225   7.067   1.012 -3.1181 -1.3500 -1.6049
  123MOL   H32046924   5.330   7.000   1.131 -0.1415  0.0768  0.0676
  123MOL   H32146925   5.143   6.935   1.273  1.0710 -0.6260  0.4361
  123MOL   H32246926   5.081   7.069   1.181  1.0263 -0.1202  1.0159
  123MOL   H32346927   4.783   6.976   0.946  3.5836  0.5971 -1.9192
  123MOL   H32446928   4.920   7.074   1.017  0.1393 -0.4374 -1.6464
  123MOL   C32546929   4.729   7.121   1.091 -0.2250 -0.3294 -0.3412
  123MOL   C32646930   4.716   7.237   0.979  0.9551  0.6589  0.2683
  123MOL   C32746931   4.597   7.325   1.009  0.2972  0.0863  1.3082
  123MOL   C32846932   4.553   7.370   0.864 -0.4689 -0.3652 -0.0463
  123MOL   C32946933   4.642   7.300   0.758 -0.4054 -0.1319 -0.8919
  123MOL   C33046934   4.697   7.185   0.842  0.7951 -0.2264 -0.0331
  123MOL   C33146935   4.789   7.199   1.220 -0.3644 -0.2283 -0.5949
  123MOL   H33246936   4.631   7.074   1.105 -0.6745  0.0439 -2.0829
  123MOL   H33346937   4.799   7.308   0.983  0.0438  1.8078 -0.8048
  123MOL   H33446938   4.635   7.408   1.068  1.3078 -2.1405  3.8865
  123MOL   H33546939   4.506   7.272   1.037  0.8306 -2.2887 -1.2247
  123MOL   H33646940   4.569   7.478   0.855  0.0031 -0.1608  2.6238
  123MOL   H33746941   4.447   7.345   0.855 -0.3471 -0.8709 -0.0671
  123MOL   H33846942   4.723   7.364   0.723  0.2186 -0.7519 -0.5878
  123MOL   H33946943   4.592   7.263   0.668  1.2756  0.7198 -2.2038
  123MOL   H34046944   4.782   7.135   0.795  0.4278 -1.9976  1.1571
  123MOL   H34146945   4.615   7.114   0.837  0.2667  0.2883  1.3560
  123MOL   H34246946   4.781   7.307   1.209  0.4159 -0.3610 -2.8652
  123MOL   H34346947   4.898   7.189   1.216 -0.4560 -0.9629 -1.6368
  123MOL   C34446948   4.744   7.125   1.355  1.0725  0.1760  0.7813
  123MOL   C34546949   4.631   7.190   1.428 -0.2858 -0.9215  0.6603
  123MOL   C34646950   4.576   7.139   1.566  0.6849  0.2323 -0.5532
  123MOL   C34746951   4.419   7.145   1.570  0.6719  0.1276 -0.7319
  123MOL   C34846952   4.385   7.228   1.445  0.3289 -0.3919 -0.0797
  123MOL   C34946953   4.499   7.207   1.345  0.2844 -0.2368 -0.6021
  123MOL   C35046954   4.861   7.088   1.451  0.4388 -0.8465  0.0605
  123MOL   H35146955   4.698   7.029   1.335 -0.1266  0.4700  2.0637
  123MOL   H35246956   4.663   7.292   1.449  0.8427 -0.8357 -1.3302
  123MOL   H35346957   4.619   7.181   1.657 -0.7948  1.9705 -0.6331
  123MOL   H35446958   4.596   7.032   1.568  1.3679  0.3785  2.6040
  123MOL   H35546959   4.389   7.041   1.557  2.0288 -0.1747 -1.4836
  123MOL   H35646960   4.382   7.178   1.667  0.3822 -1.7685 -0.1775
  123MOL   H35746961   4.368   7.332   1.473  1.2804  0.4102 -2.3731
  123MOL   H35846962   4.294   7.188   1.402 -1.2538  0.2317  2.5635
  123MOL   H35946963   4.479   7.116   1.289 -1.5606 -0.0876 -0.2238
  123MOL   H36046964   4.515   7.292   1.279  0.3080  1.4484  1.4859
  123MOL   H36146965   4.935   7.042   1.385 -1.2889 -0.2931 -2.3336
  123MOL   H36246966   4.828   7.006   1.515  2.1173  1.4979  4.0705
  123MOL   C36346967   4.933   7.184   1.550 -0.1385 -0.2525  0.3250
  123MOL   C36446968   5.013   7.123   1.671 -0.9483  0.1062  0.6426
  123MOL   C36546969   4.919   7.049   1.766 -0.0487 -0.7234 -0.0658
  123MOL   C36646970   5.004   7.009   1.881 -0.1151 -0.0820 -0.2356
  123MOL   C36746971   5.104   7.132   1.888 -0.8480 -0.0301 -0.2542
  123MOL   C36846972   5.083   7.219   1.768  0.3405  0.1830 -0.8334
  123MOL   C36946973   5.023   7.281   1.466  0.0883 -0.4647 -0.3359
  123MOL   H37046974   4.851   7.241   1.594 -1.0246 -0.4808 -0.9897
  123MOL   H37146975   5.090   7.055   1.635 -1.1260  0.7376 -0.9906
  123MOL   H37246976   4.843   7.114   1.809  0.0901  0.4837 -1.5742
  123MOL   H37346977   4.871   6.963   1.719  0.2535 -1.5400  1.1090
  123MOL   H37446978   4.952   6.992   1.975 -0.8485  2.2539 -0.1876
  123MOL   H37546979   5.052   6.913   1.864 -0.4885 -0.3483  0.2195
  123MOL   H37646980   5.091   7.186   1.981  0.9294 -1.5161  0.8847
  123MOL   H37746981   5.202   7.084   1.887 -0.3702  0.9497 -0.6363
  123MOL   H37846982   5.179   7.258   1.732 -0.9455  1.0910 -3.4299
  123MOL   H37946983   5.021   7.306   1.787 -0.2881 -0.3967 -0.2344
  123MOL   H38046984   5.102   7.226   1.415  0.8000 -0.2006  0.4533
  123MOL   H38146985   5.080   7.354   1.524  2.3592 -1.1571 -1.6490
  123MOL   H38246986   4.959   7.340   1.401 -0.1386  0.1496  0.4423
  124MOL     C146987   1.562   3.597   4.233  0.7510  0.9372  0.5621
  124MOL     C246988   1.556   3.472   4.327 -0.3283 -0.4662  0.2111
  124MOL     C346989   1.432   3.381   4.317 -0.7516 -0.1852 -0.1593
  124MOL     C446990   1.435   3.304   4.445  0.6121  0.0101  0.3561
  124MOL     C546991   1.493   3.397   4.550  0.1541  0.4033  0.0712
  124MOL     C646992   1.575   3.504   4.477  0.5513  0.1733 -0.4811
  124MOL     C746993   1.561   3.563   4.080 -0.2103  0.4645 -0.7425
  124MOL     H846994   1.469   3.653   4.248 -0.8463 -0.7513 -2.5908
  124MOL     H946995   1.639   3.407   4.297  1.0259  1.3652 -0.0758
  124MOL    H1046996   1.337   3.434   4.307 -1.2130 -1.1078 -0.7908
  124MOL    H1146997   1.445   3.318   4.228  4.3166  0.0845  0.2807
  124MOL    H1246998   1.340   3.267   4.485 -1.1049  2.3371 -1.4097
  124MOL    H1346999   1.487   3.209   4.434 -0.7653 -0.8764  1.3314
  124MOL    H1447000   1.416   3.457   4.596  0.0996 -0.3630  0.9938
  124MOL    H1547001   1.550   3.340   4.623 -0.6775 -1.7376 -0.8986
  124MOL    H1647002   1.683   3.502   4.488  0.2493 -0.6332  2.9146
  124MOL    H1747003   1.541   3.605   4.497 -0.0692  0.0050 -0.6724
  124MOL    H1847004   1.645   3.496   4.061 -0.2843  0.3140 -0.5411
  124MOL    H1947005   1.465   3.513   4.069 -0.2604  0.4767 -0.3602
  124MOL    H2047006   1.647   3.657   4.267  0.8767 -0.4353  2.7506
  124MOL    C2147007   1.555   3.683   3.984 -0.2779 -0.1599  0.6285
  124MOL    C2247008   1.429   3.777   4.019  0.2140  0.1907  0.7369
  124MOL    C2347009   1.288   3.712   4.049  0.2418 -0.4889 -0.4696
  124MOL    C2447010   1.183   3.820   4.022 -0.4752 -0.3029 -0.6317
  124MOL    C2547011   1.256   3.927   3.936  0.0651 -0.1479  0.1812
  124MOL    C2647012   1.394   3.868   3.898  0.3482 -0.0511 -0.0207
  124MOL    C2747013   1.688   3.757   3.967  0.3815  0.0237  0.0921
  124MOL    H2847014   1.527   3.652   3.884 -0.8336 -2.7208  1.5398
  124MOL    H2947015   1.445   3.840   4.106 -0.8440  0.8389  0.4705
  124MOL    H3047016   1.283   3.669   4.149  0.6050  0.3780 -0.0714
  124MOL    H3147017   1.278   3.641   3.967  3.5417  0.8710 -2.1448
  124MOL    H3247018   1.087   3.784   3.985 -0.1065 -1.2770 -0.6522
  124MOL    H3347019   1.162   3.860   4.121 -1.7528 -0.8206 -0.6813
  124MOL    H3447020   1.263   4.028   3.975 -2.4387  0.8501 -1.8617
  124MOL    H3547021   1.190   3.942   3.851  0.6383  0.5250 -0.1517
  124MOL    H3647022   1.467   3.947   3.878 -2.3795  2.4668 -0.4726
  124MOL    H3747023   1.384   3.810   3.807 -1.7493  0.2401  0.0005
  124MOL    H3847024   1.664   3.831   3.890  0.7151  0.0979  0.0601
  124MOL    H3947025   1.719   3.798   4.064  2.6482 -2.2049  0.3395
  124MOL    C4047026   1.823   3.690   3.911  0.2414 -0.0783  0.7018
  124MOL    C4147027   1.808   3.622   3.767  0.2248  0.6838 -0.1821
  124MOL    C4247028   1.915   3.519   3.740 -0.6744 -0.5936 -0.0523
  124MOL    C4347029   1.991   3.559   3.610  0.1296 -0.2427 -0.7455
  124MOL    C4447030   1.897   3.659   3.540  0.4218 -0.1604  0.4798
  124MOL    C4547031   1.829   3.725   3.659  0.4333  0.0229  0.0484
  124MOL    C4647032   1.951   3.774   3.928  0.3010 -0.2443  0.0534
  124MOL    H4747033   1.851   3.614   3.984  1.9792  0.6781  0.8360
  124MOL    H4847034   1.708   3.580   3.766  0.3744  0.2624  1.5060
  124MOL    H4947035   1.862   3.427   3.715  2.2973 -1.8137 -2.0873
  124MOL    H5047036   1.982   3.501   3.824 -0.1958 -0.6356 -0.4413
  124MOL    H5147037   2.038   3.472   3.565 -2.4938 -1.6958 -0.8134
  124MOL    H5247038   2.071   3.623   3.644 -0.8103  1.5028 -1.7244
  124MOL    H5347039   1.952   3.730   3.477 -0.4773  1.5413  1.5803
  124MOL    H5447040   1.823   3.603   3.483 -0.7525  0.6835  1.1762
  124MOL    H5547041   1.887   3.811   3.690  2.4274 -1.4193  0.4459
  124MOL    H5647042   1.732   3.762   3.627 -0.8105 -2.1230  1.2014
  124MOL    H5747043   2.021   3.725   3.860 -0.2872 -1.0172 -0.0032
  124MOL    H5847044   1.940   3.876   3.893  2.2446 -0.0198  0.0440
  124MOL    C5947045   2.018   3.775   4.069 -0.7254 -0.5220 -0.1919
  124MOL    C6047046   2.096   3.645   4.088  0.6419  0.4722 -0.0579
  124MOL    C6147047   2.129   3.599   4.231  0.2869 -0.1531 -0.4559
  124MOL    C6247048   2.242   3.493   4.220 -0.6522  0.2547 -0.7451
  124MOL    C6347049   2.314   3.525   4.084 -0.1988  0.3475 -0.4269
  124MOL    C6447050   2.233   3.640   4.014 -0.5592  0.4576  0.8977
  124MOL    C6547051   2.105   3.904   4.085  0.3081  0.2160  0.4897
  124MOL    H6647052   1.938   3.766   4.143 -1.1035  0.1062 -0.5252
  124MOL    H6747053   2.049   3.561   4.037  0.4765  0.8423 -0.5200
  124MOL    H6847054   2.043   3.551   4.277 -0.2317  1.2916  0.1082
  124MOL    H6947055   2.174   3.684   4.282  0.8603 -0.9933  0.4530
  124MOL    H7047056   2.204   3.392   4.205 -0.0622  0.0696 -1.0121
  124MOL    H7147057   2.300   3.508   4.310 -1.4022  2.1676 -0.5560
  124MOL    H7247058   2.333   3.437   4.023  2.1685  1.1386 -0.8755
  124MOL    H7347059   2.420   3.546   4.102 -1.0251  2.9453  1.7335
  124MOL    H7447060   2.293   3.730   4.022 -0.4402  0.3229  1.5709
  124MOL    H7547061   2.226   3.630   3.906 -1.6194 -1.6726  1.1264
  124MOL    H7647062   2.153   3.919   3.988  0.1038 -0.4968  0.2768
  124MOL    H7747063   2.188   3.893   4.155 -1.5271  0.7002  2.8192
  124MOL    C7847064   2.027   4.027   4.126 -0.3657  0.0718 -0.0241
  124MOL    C7947065   2.066   4.082   4.262 -0.1005 -0.9695 -1.0412
  124MOL    C8047066   2.210   4.127   4.277 -0.1896 -0.1686 -0.5464
  124MOL    C8147067   2.241   4.097   4.420 -0.0258  0.5522  0.5011
  124MOL    C8247068   2.168   3.969   4.451  0.3482  0.3271  0.1897
  124MOL    C8347069   2.036   3.988   4.382  1.1760 -0.4938 -0.2167
  124MOL    C8447070   2.033   4.128   4.009  0.3945 -0.5181  0.3935
  124MOL    H8547071   1.923   3.998   4.142 -0.6511 -0.1967 -2.3006
  124MOL    H8647072   2.018   4.178   4.276  2.2587 -0.0649  1.2337
  124MOL    H8747073   2.225   4.235   4.266  0.1711 -0.0766  0.7576
  124MOL    H8847074   2.280   4.081   4.207  3.0298  3.1379  0.3336
  124MOL    H8947075   2.210   4.165   4.500  1.0284 -0.4117  1.7534
  124MOL    H9047076   2.348   4.079   4.429 -0.3414 -1.5574  0.3117
  124MOL    H9147077   2.221   3.883   4.410 -2.1070 -1.9277  1.5748
  124MOL    H9247078   2.162   3.938   4.555 -2.2217 -0.0681 -0.0565
  124MOL    H9347079   1.986   3.901   4.341  0.7987 -0.1644 -0.4585
  124MOL    H9447080   1.953   4.021   4.444  1.7567 -0.8434  0.7615
  124MOL    H9547081   2.022   4.075   3.914  0.1890  1.4080 -0.6726
  124MOL    H9647082   2.131   4.175   4.000  0.9028 -1.8452 -1.3036
  124MOL    C9747083   1.923   4.242   4.007  0.0432  0.8985  0.2590
  124MOL    C9847084   1.834   4.257   3.877 -1.4908 -0.6941  0.1004
  124MOL    C9947085   1.911   4.260   3.746 -0.2433  0.6069  0.4144
  124MOL   C10047086   1.798   4.229   3.642  0.7372  0.1831 -0.2113
  124MOL   C10147087   1.730   4.115   3.717 -0.1031  0.0576 -0.3929
  124MOL   C10247088   1.728   4.147   3.863  0.6019  0.3288  0.9338
  124MOL   C10347089   1.984   4.381   4.051 -0.7778  0.1695  0.0305
  124MOL   H10447090   1.859   4.221   4.092 -1.9546 -1.2392 -1.7108
  124MOL   H10547091   1.786   4.355   3.885 -2.4542 -1.1337 -0.2502
  124MOL   H10647092   1.961   4.354   3.726 -0.3497  0.3809 -0.9549
  124MOL   H10747093   1.977   4.173   3.742  0.3262  1.1080 -2.4791
  124MOL   H10847094   1.834   4.192   3.547  1.7424 -0.0768  0.2640
  124MOL   H10947095   1.712   4.296   3.645 -0.4615 -1.3718  2.2014
  124MOL   H11047096   1.792   4.026   3.707  2.0866  1.5619 -0.8714
  124MOL   H11147097   1.626   4.097   3.692  0.0691  0.0986 -1.1555
  124MOL   H11247098   1.627   4.172   3.894 -0.6574 -3.0758 -0.2180
  124MOL   H11347099   1.756   4.050   3.906 -0.4626 -0.6221 -0.4871
  124MOL   H11447100   2.053   4.356   4.132  1.2674  1.2395 -1.3370
  124MOL   H11547101   2.051   4.410   3.970 -0.6569 -1.5685 -0.5222
  124MOL   C11647102   1.890   4.492   4.095 -0.1345  0.7850  1.0913
  124MOL   C11747103   1.915   4.552   4.230  0.1504  0.1622 -0.3408
  124MOL   C11847104   1.913   4.455   4.341 -0.0168 -0.2322  0.1102
  124MOL   C11947105   2.037   4.468   4.431 -0.4844  0.4227  0.0518
  124MOL   C12047106   2.129   4.544   4.335 -0.5239 -0.2471  0.3422
  124MOL   C12147107   2.047   4.630   4.238  0.1385 -0.6430  0.2579
  124MOL   C12247108   1.885   4.601   3.984  0.3769  0.0166 -0.3249
  124MOL   H12347109   1.789   4.452   4.098 -0.5529  1.8149  0.8936
  124MOL   H12447110   1.843   4.631   4.250  0.0081 -0.5638  2.2212
  124MOL   H12547111   1.820   4.447   4.397  0.3066  1.0066  0.8460
  124MOL   H12647112   1.913   4.354   4.301  1.1684 -0.1696 -0.0682
  124MOL   H12747113   2.075   4.371   4.461  0.3105  0.3513 -1.1497
  124MOL   H12847114   2.015   4.525   4.521  0.0663  2.6433 -1.1651
  124MOL   H12947115   2.197   4.472   4.291  0.6529 -0.3962  2.3389
  124MOL   H13047116   2.192   4.608   4.396  0.7111 -1.6799  0.5824
  124MOL   H13147117   2.040   4.737   4.253  0.0782  0.0179 -3.9813
  124MOL   H13247118   2.101   4.629   4.143  0.8362  1.7377  0.6143
  124MOL   H13347119   1.865   4.567   3.883  0.4657  0.4663 -0.4926
  124MOL   H13447120   1.979   4.655   3.973  0.7682 -0.8093 -1.0703
  124MOL   C13547121   1.784   4.719   4.007 -0.1301  0.1322  0.3198
  124MOL   C13647122   1.639   4.666   4.022  0.4067 -0.1836 -0.3933
  124MOL   C13747123   1.590   4.556   3.921 -0.2265  0.5400 -0.0853
  124MOL   C13847124   1.452   4.606   3.867  0.1430  0.6638 -0.0629
  124MOL   C13947125   1.457   4.749   3.872 -0.0026  0.1221 -0.7152
  124MOL   C14047126   1.533   4.778   4.007  0.1546  0.4131  0.5073
  124MOL   C14147127   1.802   4.817   3.887 -0.4470  0.4275 -1.1131
  124MOL   H14247128   1.803   4.778   4.096  4.3789 -2.0985  0.9812
  124MOL   H14347129   1.633   4.630   4.125  0.2524  0.5436 -0.1410
  124MOL   H14447130   1.646   4.542   3.829  0.8189 -2.0041  0.9164
  124MOL   H14547131   1.587   4.454   3.958 -1.8932 -0.1236 -1.9224
  124MOL   H14647132   1.374   4.559   3.927  0.5873 -1.1596 -0.8789
  124MOL   H14747133   1.424   4.561   3.771 -1.4745  0.1979  0.6155
  124MOL   H14847134   1.358   4.795   3.875  0.1478  0.3956  0.3253
  124MOL   H14947135   1.514   4.787   3.787 -0.8714  0.9185 -0.9467
  124MOL   H15047136   1.570   4.880   3.997 -0.3962  0.7241  1.5229
  124MOL   H15147137   1.456   4.781   4.084 -1.0703 -1.1366 -0.6098
  124MOL   H15247138   1.732   4.900   3.892  1.6119  2.2737 -2.1720
  124MOL   H15347139   1.772   4.765   3.796  0.6643 -1.5280 -0.4064
  124MOL   C15447140   1.936   4.885   3.868 -0.4321 -0.3470  0.1668
  124MOL   C15547141   2.002   4.935   3.999  0.1976 -0.7260  0.2299
  124MOL   C15647142   1.912   5.028   4.087 -0.3075 -0.0970 -0.1602
  124MOL   C15747143   1.957   5.173   4.077 -0.3280 -0.5267 -0.3917
  124MOL   C15847144   2.065   5.173   3.969  0.0019  0.0241  0.0696
  124MOL   C15947145   2.119   5.025   3.971 -0.1603  0.2701 -0.1660
  124MOL   C16047146   2.029   4.819   3.769 -0.0441 -0.0824  0.3587
  124MOL   H16147147   1.899   4.980   3.829 -0.0872  0.2236  1.2233
  124MOL   H16247148   2.034   4.848   4.057  1.6697 -0.3868 -0.0479
  124MOL   H16347149   1.805   5.024   4.064 -0.2577 -0.5517 -0.3072
  124MOL   H16447150   1.917   4.998   4.191 -3.1845  1.5261  0.4924
  124MOL   H16547151   1.875   5.241   4.056 -0.1194 -0.2885 -0.4333
  124MOL   H16647152   2.001   5.199   4.174 -0.3500  2.4538 -1.1477
  124MOL   H16747153   2.143   5.244   3.996 -0.6388  0.0046  2.0689
  124MOL   H16847154   2.015   5.202   3.877 -2.6016 -0.2467  1.3520
  124MOL   H16947155   2.185   5.014   4.057 -0.4607  1.2133  0.1948
  124MOL   H17047156   2.176   5.004   3.881  1.0919 -0.8830  0.8879
  124MOL   H17147157   1.986   4.719   3.758 -0.3506  0.0209  0.6154
  124MOL   H17247158   2.130   4.804   3.807 -0.2969 -0.7471  0.7694
  124MOL   C17347159   2.028   4.871   3.625  0.0036 -0.4024  0.4390
  124MOL   C17447160   2.072   4.771   3.520 -0.4913  0.0966 -0.5294
  124MOL   C17547161   1.978   4.665   3.489 -0.3840  0.4908 -0.3552
  124MOL   C17647162   2.062   4.560   3.409 -0.7205  0.3683  0.3138
  124MOL   C17747163   2.199   4.574   3.477 -0.9458 -0.5546 -0.6235
  124MOL   C17847164   2.208   4.714   3.538 -0.2482  0.1483 -1.0899
  124MOL   C17947165   2.100   5.011   3.617 -0.2573 -0.1663 -0.6664
  124MOL   H18047166   1.925   4.891   3.596  0.9508  0.1683 -2.8293
  124MOL   H18147167   2.077   4.827   3.427  1.3819  1.5125  0.3648
  124MOL   H18247168   1.899   4.707   3.427  0.6783  1.8820 -0.7973
  124MOL   H18347169   1.930   4.610   3.570 -0.4353  1.8313  0.5394
  124MOL   H18447170   2.028   4.457   3.404 -1.7996  0.6746  0.9937
  124MOL   H18547171   2.080   4.599   3.309 -1.3584  0.2092  0.1371
  124MOL   H18647172   2.280   4.563   3.404  1.9659  1.4138  2.1983
  124MOL   H18747173   2.208   4.491   3.547 -0.1789 -0.7664 -0.9710
  124MOL   H18847174   2.230   4.684   3.641  0.3562 -1.4962 -1.6715
  124MOL   H18947175   2.291   4.777   3.506 -0.5821  0.1553 -1.9489
  124MOL   H19047176   2.068   5.080   3.695 -2.4000  0.2425 -1.8611
  124MOL   H19147177   2.204   5.002   3.649 -0.4927  1.3428  0.5904
  124MOL   C19247178   2.081   5.100   3.494  0.3100  0.7484  0.3273
  124MOL   C19347179   2.184   5.217   3.487 -0.4742 -0.0801  0.6047
  124MOL   C19447180   2.332   5.176   3.456  0.1057 -0.5335  0.3185
  124MOL   C19547181   2.430   5.245   3.554  0.1266  0.1031 -0.6742
  124MOL   C19647182   2.332   5.294   3.667 -0.6369 -0.6331  0.2638
  124MOL   C19747183   2.190   5.304   3.611 -0.0828 -0.5221 -1.3640
  124MOL   C19847184   1.930   5.149   3.465 -0.0122 -0.1926  0.2749
  124MOL   H19947185   2.110   5.035   3.411 -0.4711  1.8033 -0.8008
  124MOL   H20047186   2.167   5.289   3.406 -0.8148 -0.2995  0.4809
  124MOL   H20147187   2.343   5.178   3.347  1.9719  1.5927  0.5141
  124MOL   H20247188   2.342   5.069   3.473  2.3923 -0.3985 -0.0171
  124MOL   H20347189   2.517   5.190   3.591 -1.5327 -0.1680  3.1034
  124MOL   H20447190   2.463   5.327   3.490  0.7067  0.4764  0.0863
  124MOL   H20547191   2.367   5.384   3.717  1.0276  0.0799 -2.0900
  124MOL   H20647192   2.307   5.218   3.741  0.0162  0.1888  1.3349
  124MOL   H20747193   2.172   5.405   3.574 -0.3641 -0.0835 -0.0639
  124MOL   H20847194   2.111   5.284   3.683  0.3119  1.1656 -0.4223
  124MOL   H20947195   1.864   5.118   3.545  1.1836 -2.4748  0.4351
  124MOL   H21047196   1.933   5.256   3.485 -1.7508  0.1660 -1.2261
  124MOL   C21147197   1.872   5.109   3.330  0.1867  0.4580  0.9488
  124MOL   C21247198   1.720   5.144   3.322  0.7270  0.1032  0.1927
  124MOL   C21347199   1.621   5.052   3.397  0.1547  0.0328  0.6493
  124MOL   C21447200   1.495   5.140   3.424 -0.3686 -0.2531  1.0210
  124MOL   C21547201   1.527   5.274   3.356  0.8555 -0.3940  0.4251
  124MOL   C21647202   1.677   5.283   3.355 -0.4257  0.0574 -0.1920
  124MOL   C21747203   1.950   5.172   3.211  0.6108 -0.0613  0.4602
  124MOL   H21847204   1.887   5.001   3.322 -4.7941 -0.3887  1.8022
  124MOL   H21947205   1.691   5.134   3.217 -1.2176 -0.7194  0.7771
  124MOL   H22047206   1.598   4.963   3.338 -1.1747  0.6126  0.2840
  124MOL   H22147207   1.654   5.010   3.492 -3.9851 -2.2421  1.2421
  124MOL   H22247208   1.405   5.105   3.373 -0.4022  0.4058  0.6228
  124MOL   H22347209   1.474   5.139   3.531 -2.2574 -2.4030  0.6653
  124MOL   H22447210   1.474   5.353   3.411  1.6388 -0.5015  1.3515
  124MOL   H22547211   1.482   5.268   3.257  1.6030 -0.8773  0.1096
  124MOL   H22647212   1.723   5.358   3.291 -0.3138 -0.1413 -0.3487
  124MOL   H22747213   1.712   5.296   3.458 -1.7776  0.3293  0.2389
  124MOL   H22847214   2.054   5.167   3.242  0.1491 -1.4537  1.8392
  124MOL   H22947215   1.911   5.272   3.195 -0.6211 -0.8662 -1.8955
  124MOL   C23047216   1.934   5.098   3.079 -0.5471  0.6562 -0.1008
  124MOL   C23147217   2.071   5.043   3.021  0.2955 -0.3953 -0.0424
  124MOL   C23247218   2.185   5.147   3.009  0.4706 -0.0308 -0.4287
  124MOL   C23347219   2.309   5.062   2.992  0.0994 -1.1100 -0.0022
  124MOL   C23447220   2.282   4.926   3.059 -0.2139  0.1498  0.0833
  124MOL   C23547221   2.133   4.929   3.102 -0.1009  0.7964  0.6795
  124MOL   C23647222   1.851   5.176   2.978  0.3428 -0.0003  0.1003
  124MOL   H23747223   1.885   5.005   3.106  1.4329 -1.5357 -3.6353
  124MOL   H23847224   2.057   5.004   2.920 -1.9518  2.3238 -0.8177
  124MOL   H23947225   2.165   5.221   2.933 -3.1232  0.1822  0.6240
  124MOL   H24047226   2.200   5.203   3.102 -0.8870 -0.7614  0.2441
  124MOL   H24147227   2.308   5.043   2.885  0.5476 -0.9810 -0.0288
  124MOL   H24247228   2.404   5.107   3.020 -0.4090  1.2224 -1.8906
  124MOL   H24347229   2.352   4.897   3.137  0.8718 -0.9399 -1.2861
  124MOL   H24447230   2.289   4.843   2.989  2.1823 -0.3021  0.8128
  124MOL   H24547231   2.119   4.952   3.208  2.0986  3.5000  0.4464
  124MOL   H24647232   2.080   4.836   3.085  0.2336  0.6019  0.6834
  124MOL   H24747233   1.920   5.251   2.939  1.0628  0.2843  1.8769
  124MOL   H24847234   1.772   5.238   3.018  1.7570  1.5673  0.5057
  124MOL   C24947235   1.792   5.079   2.868  0.7812  0.2344 -0.3362
  124MOL   C25047236   1.759   5.131   2.733 -0.6487 -0.2167 -0.3478
  124MOL   C25147237   1.885   5.167   2.657 -0.1297 -0.3906 -0.0521
  124MOL   C25247238   1.857   5.269   2.540 -0.8503  0.1523 -0.8329
  124MOL   C25347239   1.721   5.331   2.588 -0.0578 -0.6028  0.0198
  124MOL   C25447240   1.688   5.268   2.723  0.2879 -0.5611  0.1055
  124MOL   C25547241   1.660   5.024   2.930  0.2459  0.4117  0.0804
  124MOL   H25647242   1.857   4.994   2.846 -0.4080 -0.3526 -1.6216
  124MOL   H25747243   1.702   5.059   2.674 -0.0388 -0.0201 -1.1887
  124MOL   H25847244   1.928   5.077   2.614  4.2029  1.3748  0.3922
  124MOL   H25947245   1.957   5.212   2.724 -1.8956  0.1890  1.5080
  124MOL   H26047246   1.848   5.224   2.441  0.8055  2.7216 -2.2269
  124MOL   H26147247   1.932   5.346   2.519  1.1992 -0.7608  2.6624
  124MOL   H26247248   1.643   5.301   2.517 -0.1294  0.6718 -0.4577
  124MOL   H26347249   1.714   5.439   2.579 -1.6123 -0.3798  3.1247
  124MOL   H26447250   1.582   5.253   2.747  0.7984 -0.7527  2.3804
  124MOL   H26547251   1.714   5.337   2.803 -0.3528 -0.7150  0.4493
  124MOL   H26647252   1.671   5.020   3.038  0.4379  2.4766  0.1657
  124MOL   H26747253   1.585   5.102   2.922  0.1032  0.2911  0.2618
  124MOL   C26847254   1.610   4.885   2.878  0.0885  0.0550  0.4223
  124MOL   C26947255   1.460   4.857   2.905  0.0016  0.2182  0.1382
  124MOL   C27047256   1.361   4.952   2.847 -0.3755  0.4240 -0.4615
  124MOL   C27147257   1.231   4.947   2.930  0.2363  0.5118  0.2310
  124MOL   C27247258   1.274   4.883   3.063 -0.2206  0.8929 -0.9813
  124MOL   C27347259   1.420   4.844   3.055 -0.7387  0.2099  0.2421
  124MOL   C27447260   1.707   4.765   2.918  0.3564  0.0857  0.0118
  124MOL   H27547261   1.603   4.902   2.771  0.8748  0.1059  0.3757
  124MOL   H27647262   1.434   4.766   2.850 -2.3854 -0.5954  2.5298
  124MOL   H27747263   1.386   5.056   2.864  1.8875 -0.4017  1.5359
  124MOL   H27847264   1.343   4.937   2.741  1.3605 -1.6678 -0.4992
  124MOL   H27947265   1.192   5.048   2.941  1.5823  1.2164 -1.2232
  124MOL   H28047266   1.148   4.886   2.895  0.2263 -0.3398  1.6943
  124MOL   H28147267   1.223   4.788   3.084  0.7410  0.8813  1.4948
  124MOL   H28247268   1.259   4.949   3.148 -0.7394 -1.7533  1.0720
  124MOL   H28347269   1.442   4.747   3.101  1.1162 -0.0515 -1.1158
  124MOL   H28447270   1.481   4.909   3.118 -1.1838  1.0011 -0.1376
  124MOL   H28547271   1.656   4.730   3.008  0.0042 -2.9926 -1.3303
  124MOL   H28647272   1.808   4.795   2.945  0.0918  1.1484 -0.1487
  124MOL   C28747273   1.704   4.654   2.816 -0.2866 -0.2807 -0.2554
  124MOL   C28847274   1.782   4.692   2.686 -0.2543 -0.2614 -0.0657
  124MOL   C28947275   1.931   4.701   2.693 -0.0590 -0.4525  1.1464
  124MOL   C29047276   1.991   4.633   2.570 -0.2138 -0.1502 -0.1507
  124MOL   C29147277   1.882   4.530   2.534 -0.6478  0.2554 -0.1701
  124MOL   C29247278   1.758   4.606   2.566  0.3929 -0.3621  0.0884
  124MOL   C29347279   1.759   4.523   2.880  0.1715 -0.1087 -0.4666
  124MOL   H29447280   1.602   4.623   2.795 -0.0697 -0.5339 -0.9539
  124MOL   H29547281   1.758   4.794   2.654 -0.6859 -0.2273  0.3619
  124MOL   H29647282   1.959   4.806   2.696  1.0813 -0.7387  0.9902
  124MOL   H29747283   1.974   4.642   2.774  2.0180  1.2537  1.3368
  124MOL   H29847284   2.014   4.699   2.487  0.3875  0.7522  0.7113
  124MOL   H29947285   2.086   4.581   2.580 -0.9177 -1.3435  0.4167
  124MOL   H30047286   1.874   4.444   2.602  0.8486 -1.1836 -1.7682
  124MOL   H30147287   1.878   4.490   2.433  0.4197 -3.2052  1.0577
  124MOL   H30247288   1.675   4.538   2.586  1.6638 -1.8921  0.2992
  124MOL   H30347289   1.723   4.666   2.483 -1.6336 -1.6204  0.0002
  124MOL   H30447290   1.858   4.530   2.925  0.6566  0.8361 -1.6459
  124MOL   H30547291   1.780   4.447   2.804  0.8229 -1.5929  1.1681
  124MOL   C30647292   1.654   4.450   2.961 -0.0679  0.1217  0.9174
  124MOL   C30747293   1.566   4.353   2.878 -0.3663 -0.0146  0.1332
  124MOL   C30847294   1.622   4.210   2.843  0.1786  0.5717  0.2509
  124MOL   C30947295   1.488   4.148   2.800 -0.7545  0.1378  0.5713
  124MOL   C31047296   1.377   4.203   2.887 -0.0054  0.2166 -0.0358
  124MOL   C31147297   1.416   4.340   2.917  0.2791 -0.0865  0.1892
  124MOL   C31247298   1.712   4.376   3.082 -0.1957 -0.3322 -0.0396
  124MOL   H31347299   1.583   4.523   2.999  1.1964  1.1799  1.3056
  124MOL   H31447300   1.549   4.397   2.780 -0.8844 -0.8854 -0.1736
  124MOL   H31547301   1.657   4.154   2.930 -0.9476 -1.6183 -0.6630
  124MOL   H31647302   1.696   4.215   2.762 -1.1110  0.3552 -0.9692
  124MOL   H31747303   1.469   4.173   2.696  3.3962 -1.9671 -0.8004
  124MOL   H31847304   1.482   4.040   2.803  1.6747 -0.0232  0.3158
  124MOL   H31947305   1.382   4.155   2.985  1.1873  1.1389  0.3739
  124MOL   H32047306   1.280   4.177   2.846 -0.8815  1.6860  1.0386
  124MOL   H32147307   1.362   4.421   2.868 -1.4441 -1.0358  0.4847
  124MOL   H32247308   1.401   4.362   3.023 -0.3583  1.0575 -0.1299
  124MOL   H32347309   1.790   4.439   3.126  0.4317 -0.5458 -0.8162
  124MOL   H32447310   1.766   4.288   3.046  0.8397  0.8124 -1.3689
  124MOL   C32547311   1.624   4.336   3.199  0.5086  0.1067 -0.1767
  124MOL   C32647312   1.557   4.459   3.263  0.3981 -0.1299  0.2213
  124MOL   C32747313   1.656   4.554   3.335 -0.0143 -0.1618  0.2705
  124MOL   C32847314   1.566   4.634   3.437  0.1966 -0.1197  0.3056
  124MOL   C32947315   1.485   4.522   3.497 -0.6838 -0.1424  0.1424
  124MOL   C33047316   1.443   4.437   3.366  0.8933  0.2083 -0.7398
  124MOL   C33147317   1.703   4.240   3.290  0.7757 -0.1460  0.5864
  124MOL   H33247318   1.547   4.273   3.152  0.4577  0.4133 -0.5109
  124MOL   H33347319   1.501   4.510   3.184  1.7871  0.7144 -0.2416
  124MOL   H33447320   1.709   4.614   3.262 -2.4249  0.3067 -1.1532
  124MOL   H33547321   1.730   4.487   3.379  0.1806 -0.8484 -1.0763
  124MOL   H33647322   1.501   4.709   3.392 -0.6498 -0.6511  0.6443
  124MOL   H33747323   1.624   4.689   3.511 -1.0431  1.1041  0.3812
  124MOL   H33847324   1.397   4.561   3.549 -1.2176  0.0853 -0.9180
  124MOL   H33947325   1.548   4.456   3.558 -0.8466 -2.8718 -2.5126
  124MOL   H34047326   1.345   4.462   3.325  1.1509  0.8771 -0.9414
  124MOL   H34147327   1.430   4.337   3.408 -1.5003 -0.2552 -2.4912
  124MOL   H34247328   1.678   4.252   3.396  2.3395  0.8319  0.8492
  124MOL   H34347329   1.797   4.292   3.308  0.5050  0.4413  0.3102
  124MOL   C34447330   1.715   4.093   3.239 -0.1732 -0.2314  0.1479
  124MOL   C34547331   1.600   4.000   3.276 -0.0059 -0.6928 -0.4538
  124MOL   C34647332   1.594   3.977   3.426 -0.4435 -0.5092  0.5190
  124MOL   C34747333   1.494   3.855   3.445  0.0780 -0.2218  0.1507
  124MOL   C34847334   1.550   3.770   3.336  0.1304  0.4614 -0.5864
  124MOL   C34947335   1.587   3.863   3.217 -0.5959  0.4111  0.1022
  124MOL   C35047336   1.854   4.036   3.268  0.2253 -0.5791 -0.6091
  124MOL   H35147337   1.716   4.090   3.130  0.2092  2.5225  0.0570
  124MOL   H35247338   1.517   4.062   3.243 -0.4838 -0.3605  1.3019
  124MOL   H35347339   1.569   4.062   3.490  2.4332 -0.3976  1.5651
  124MOL   H35447340   1.687   3.933   3.460  0.2391  0.7741  0.3113
  124MOL   H35547341   1.507   3.812   3.544  1.6812 -2.6246 -1.0697
  124MOL   H35647342   1.390   3.886   3.433  0.0548 -0.3383  0.0552
  124MOL   H35747343   1.490   3.684   3.305  1.8855 -0.4159 -1.6513
  124MOL   H35847344   1.640   3.727   3.381 -0.6269  0.4082  0.8979
  124MOL   H35947345   1.679   3.826   3.172  0.4917  1.0768  1.7103
  124MOL   H36047346   1.510   3.855   3.141 -0.6701  3.2195 -0.1459
  124MOL   H36147347   1.829   3.929   3.266  1.0416 -0.7769 -0.3791
  124MOL   H36247348   1.875   4.056   3.373  0.5607 -3.8985  0.0175
  124MOL   C36347349   1.974   4.088   3.184 -0.4535  0.3690 -0.4933
  124MOL   C36447350   2.109   4.046   3.249  0.5666 -0.1450  0.1257
  124MOL   C36547351   2.126   4.090   3.395  0.1530 -0.2384  0.5877
  124MOL   C36647352   2.277   4.078   3.426 -0.5468  0.3390  0.3163
  124MOL   C36747353   2.338   4.126   3.296 -0.0510  0.3011  0.1707
  124MOL   C36847354   2.234   4.111   3.183 -0.2737 -0.2190  0.1077
  124MOL   C36947355   1.972   4.027   3.044 -0.2401 -0.2359  0.8293
  124MOL   H37047356   1.969   4.197   3.179  1.2261  0.4464 -0.6302
  124MOL   H37147357   2.106   3.937   3.245  0.4717 -0.0930 -1.4818
  124MOL   H37247358   2.100   4.195   3.405 -1.1163 -0.6187  1.4521
  124MOL   H37347359   2.060   4.041   3.468 -1.7295  2.7134  0.9428
  124MOL   H37447360   2.314   4.130   3.514  1.7812  0.0600 -0.4423
  124MOL   H37547361   2.305   3.974   3.441 -2.1776 -0.1537 -0.0095
  124MOL   H37647362   2.333   4.235   3.303 -0.8367  0.3119 -0.4292
  124MOL   H37747363   2.444   4.103   3.283 -0.3695 -0.6517 -0.8065
  124MOL   H37847364   2.269   4.050   3.099  0.8344 -1.2789  1.3167
  124MOL   H37947365   2.204   4.203   3.133 -3.1425  0.7431  3.3981
  124MOL   H38047366   1.986   3.919   3.047 -0.8071 -0.3107  0.7622
  124MOL   H38147367   2.049   4.074   2.983 -1.3755  0.7110  0.1111
  124MOL   H38247368   1.880   4.043   2.987 -0.5404 -1.3894  0.9786
  125MOL     C147369   4.302   6.506   2.786 -0.4664 -0.7775  0.3952
  125MOL     C247370   4.185   6.567   2.861  0.4190  0.2829 -0.0103
  125MOL     C347371   4.105   6.669   2.776 -0.4803  0.4485  0.3130
  125MOL     C447372   4.038   6.750   2.889  0.2190  0.1079  0.1237
  125MOL     C547373   4.132   6.750   3.012  0.0683 -0.3887 -0.0893
  125MOL     C647374   4.240   6.643   2.987  0.0578 -0.3511 -0.0161
  125MOL     C747375   4.368   6.384   2.864  0.2097  0.2161 -0.4564
  125MOL     H847376   4.268   6.470   2.689  0.1663  0.0257 -0.1274
  125MOL     H947377   4.120   6.482   2.882  0.5787  0.0618 -0.3968
  125MOL    H1047378   4.170   6.726   2.708  1.2124 -3.2414 -1.2979
  125MOL    H1147379   4.022   6.624   2.721 -0.3086 -0.2331  0.6141
  125MOL    H1247380   4.014   6.849   2.849  1.2958  1.2609  2.1755
  125MOL    H1347381   3.955   6.688   2.922  2.1421 -1.7678  1.5657
  125MOL    H1447382   4.183   6.846   3.015 -0.1079 -0.3354  1.5282
  125MOL    H1547383   4.100   6.737   3.115 -1.4776 -0.2854 -0.5457
  125MOL    H1647384   4.261   6.582   3.075  0.4699  2.0188  1.5497
  125MOL    H1747385   4.340   6.684   2.977  1.4675 -3.6543 -0.0876
  125MOL    H1847386   4.414   6.423   2.955 -0.7626 -0.1902  0.2144
  125MOL    H1947387   4.290   6.315   2.897  0.0339  0.1996 -0.8947
  125MOL    H2047388   4.375   6.583   2.760  0.2951 -2.2942 -2.2962
  125MOL    C2147389   4.474   6.306   2.786 -0.5019  0.1173 -0.0386
  125MOL    C2247390   4.411   6.193   2.692  0.1080  0.5263 -0.4880
  125MOL    C2347391   4.302   6.104   2.760 -0.2551 -0.5571  0.1450
  125MOL    C2447392   4.304   5.964   2.692  0.3340 -0.1761  0.4454
  125MOL    C2547393   4.412   5.982   2.581 -0.1199 -1.1959  0.3362
  125MOL    C2647394   4.503   6.093   2.629 -0.0435 -0.2286  0.2040
  125MOL    C2747395   4.575   6.392   2.712 -0.9466  0.0954  0.0325
  125MOL    H2847396   4.523   6.251   2.867  0.2421 -1.7312 -1.6849
  125MOL    H2947397   4.367   6.250   2.610 -1.1395 -1.5939 -1.3428
  125MOL    H3047398   4.204   6.151   2.744 -0.5669 -1.3536 -0.2917
  125MOL    H3147399   4.336   6.085   2.862  0.5041 -0.5149 -0.0987
  125MOL    H3247400   4.339   5.875   2.745  1.7108  0.0122 -0.1340
  125MOL    H3347401   4.208   5.939   2.648 -0.7132 -1.3814  3.2697
  125MOL    H3447402   4.372   6.005   2.482  1.1900  0.0118  0.0744
  125MOL    H3547403   4.464   5.888   2.565  2.5844  0.5567 -1.4367
  125MOL    H3647404   4.549   6.137   2.541  0.3536  0.1291  0.5831
  125MOL    H3747405   4.570   6.054   2.706 -0.8268 -2.0465 -0.0277
  125MOL    H3847406   4.631   6.333   2.640 -0.9722  1.5688 -1.2241
  125MOL    H3947407   4.517   6.459   2.648 -0.5550  1.4513  1.0688
  125MOL    C4047408   4.673   6.472   2.794  0.0624 -0.7809  0.0956
  125MOL    C4147409   4.772   6.387   2.877 -1.0149 -0.0554  0.1471
  125MOL    C4247410   4.843   6.460   2.977 -0.6249 -0.7750 -0.0153
  125MOL    C4347411   4.959   6.369   3.015 -0.1639 -0.4562 -0.0555
  125MOL    C4447412   4.995   6.295   2.890 -0.7076 -0.0960 -0.3254
  125MOL    C4547413   4.889   6.329   2.794 -0.2363  0.3385  0.3664
  125MOL    C4647414   4.744   6.589   2.721 -0.0667  0.0631  0.5732
  125MOL    H4747415   4.616   6.518   2.874  0.9873  0.2231  0.1916
  125MOL    H4847416   4.715   6.308   2.926 -0.8658 -0.5006 -0.3867
  125MOL    H4947417   4.784   6.487   3.064 -0.4003 -0.8593  0.1636
  125MOL    H5047418   4.896   6.546   2.935  0.3023 -1.1932  0.2698
  125MOL    H5147419   4.922   6.292   3.083  1.6406 -0.7109  0.6498
  125MOL    H5247420   5.040   6.422   3.066  0.6608 -1.5436 -0.2307
  125MOL    H5347421   5.088   6.331   2.845 -1.1611  1.5654  0.0443
  125MOL    H5447422   4.991   6.186   2.893  0.3060 -0.1225  0.4830
  125MOL    H5547423   4.921   6.404   2.722 -1.0408  1.2385  0.9385
  125MOL    H5647424   4.859   6.235   2.748  0.9379 -0.7374  1.7664
  125MOL    H5747425   4.847   6.605   2.752 -0.4621 -0.9821  2.5181
  125MOL    H5847426   4.753   6.553   2.619  0.1755 -0.9494  0.9396
  125MOL    C5947427   4.677   6.727   2.737  0.5487 -0.1541  0.6823
  125MOL    C6047428   4.686   6.794   2.880  0.7583 -0.8029 -0.5653
  125MOL    C6147429   4.593   6.911   2.912 -0.2669 -0.7640 -0.0142
  125MOL    C6247430   4.681   7.040   2.906  0.4172  0.2101  0.3871
  125MOL    C6347431   4.827   6.991   2.919  0.1931 -0.1419 -0.1232
  125MOL    C6447432   4.829   6.837   2.923 -0.0711 -0.5272  0.2104
  125MOL    C6547433   4.727   6.819   2.629  0.3345  0.3115 -0.6039
  125MOL    H6647434   4.572   6.704   2.719  0.2163  1.4446  0.4864
  125MOL    H6747435   4.658   6.711   2.946  0.8378  0.0955  0.6069
  125MOL    H6847436   4.538   6.903   3.005 -0.4241 -1.6782 -0.1760
  125MOL    H6947437   4.525   6.916   2.827  1.1685  0.4637 -1.1196
  125MOL    H7047438   4.662   7.102   2.994 -2.4288  0.7308 -0.5341
  125MOL    H7147439   4.655   7.099   2.818 -0.5298  0.3569  0.7609
  125MOL    H7247440   4.887   7.020   3.006 -0.4931 -0.7048  0.5493
  125MOL    H7347441   4.883   7.027   2.833  0.0685  0.6838  0.1371
  125MOL    H7447442   4.910   6.794   2.865  0.3179 -0.0495  0.3947
  125MOL    H7547443   4.862   6.807   3.023  1.3349 -1.9592 -0.6828
  125MOL    H7647444   4.835   6.829   2.636  0.3289  0.3650 -0.5966
  125MOL    H7747445   4.690   6.917   2.657 -0.5117 -0.7076  1.9996
  125MOL    C7847446   4.685   6.800   2.479 -0.3375 -0.2878  0.1018
  125MOL    C7947447   4.536   6.777   2.457 -0.1659 -0.2464 -0.4631
  125MOL    C8047448   4.482   6.756   2.316  0.2707 -0.1961  0.7963
  125MOL    C8147449   4.329   6.763   2.327 -0.0541  0.4037 -0.1846
  125MOL    C8247450   4.307   6.854   2.450  0.5755 -0.2954 -0.2448
  125MOL    C8347451   4.442   6.880   2.513 -0.5846 -0.2332 -1.0310
  125MOL    C8447452   4.744   6.910   2.399  0.0280 -0.9788 -0.0622
  125MOL    H8547453   4.738   6.715   2.437 -0.9702 -1.6264  1.9754
  125MOL    H8647454   4.519   6.684   2.511  0.4714  0.0833  0.3232
  125MOL    H8747455   4.513   6.658   2.280 -1.2715  0.3048 -2.0209
  125MOL    H8847456   4.516   6.832   2.245  1.4190 -1.3589  0.0700
  125MOL    H8947457   4.289   6.662   2.327 -0.3482  0.5061  1.2354
  125MOL    H9047458   4.284   6.811   2.240 -0.4330 -0.5382 -0.5058
  125MOL    H9147459   4.262   6.951   2.432  0.4547 -0.1158  0.9695
  125MOL    H9247460   4.243   6.791   2.512 -2.3424  0.6923 -2.1945
  125MOL    H9347461   4.475   6.981   2.488  1.2517 -0.4492  0.4199
  125MOL    H9447462   4.426   6.859   2.619  0.4083 -0.6658 -0.9687
  125MOL    H9547463   4.739   6.996   2.467  1.6859 -1.2165  0.3735
  125MOL    H9647464   4.682   6.941   2.314  0.2023  1.8140  0.7878
  125MOL    C9747465   4.892   6.886   2.348  0.0002 -0.1008  0.3842
  125MOL    C9847466   4.986   7.015   2.367  0.3660  0.1444 -0.1055
  125MOL    C9947467   4.940   7.145   2.289 -0.4991 -0.1460 -0.1792
  125MOL   C10047468   5.007   7.263   2.365 -0.3286 -0.0369 -0.1365
  125MOL   C10147469   5.056   7.205   2.500  0.2482  0.7362 -1.0297
  125MOL   C10247470   5.004   7.057   2.513 -0.1480  0.0166 -0.7395
  125MOL   C10347471   4.897   6.835   2.199  0.6086 -0.1499 -0.3919
  125MOL   H10447472   4.946   6.818   2.413  0.0217  1.6081  2.1915
  125MOL   H10547473   5.082   6.979   2.330  1.0616  2.2168 -0.3720
  125MOL   H10647474   4.976   7.136   2.187 -0.0979  1.5627 -0.2063
  125MOL   H10747475   4.833   7.156   2.301 -0.4361 -0.4241  0.7202
  125MOL   H10847476   4.942   7.349   2.379 -1.1637 -0.5088 -1.0070
  125MOL   H10947477   5.089   7.307   2.308 -0.8394  1.0837 -0.0094
  125MOL   H11047478   5.031   7.260   2.591  1.2027 -0.7335  0.1259
  125MOL   H11147479   5.165   7.210   2.496  0.2386  2.3780  0.0094
  125MOL   H11247480   5.069   6.996   2.576  0.6489  1.2386 -0.3618
  125MOL   H11347481   4.906   7.063   2.562 -0.1612 -0.9300 -0.6355
  125MOL   H11447482   4.845   6.908   2.135  2.4089  0.3065 -1.3697
  125MOL   H11547483   4.999   6.825   2.162  0.9127 -1.5278  0.8084
  125MOL   C11647484   4.823   6.700   2.171  0.9248 -0.2813  0.7635
  125MOL   C11747485   4.769   6.677   2.020  0.0220 -1.2373 -0.2683
  125MOL   C11847486   4.683   6.553   2.008 -0.4839  0.8368 -0.1619
  125MOL   C11947487   4.591   6.585   1.895 -0.1378  0.0720 -0.0535
  125MOL   C12047488   4.600   6.732   1.857 -0.4951  0.5486 -0.4178
  125MOL   C12147489   4.673   6.788   1.972 -0.8067  0.0962  0.0763
  125MOL   C12247490   4.887   6.573   2.227 -0.4494 -0.4882 -0.5788
  125MOL   H12347491   4.731   6.713   2.229  1.3265  1.2091  1.0866
  125MOL   H12447492   4.853   6.670   1.951  0.3721 -3.5376  0.3752
  125MOL   H12547493   4.735   6.458   1.992 -1.2984  0.1759  1.0533
  125MOL   H12647494   4.634   6.522   2.100 -0.4390 -0.5092 -0.5843
  125MOL   H12747495   4.490   6.547   1.913 -0.2452 -0.1787 -1.1518
  125MOL   H12847496   4.624   6.521   1.813  1.9398  1.0619 -0.0083
  125MOL   H12947497   4.508   6.788   1.838 -1.7949 -1.7988 -1.1474
  125MOL   H13047498   4.663   6.744   1.769 -1.5111 -0.1638 -1.2490
  125MOL   H13147499   4.735   6.872   1.943 -1.1700  0.4019  0.1762
  125MOL   H13247500   4.593   6.811   2.042 -1.4826 -0.8576 -0.3624
  125MOL   H13347501   4.796   6.515   2.242 -2.0138  1.9863 -0.1217
  125MOL   H13447502   4.927   6.594   2.326 -2.9202  2.0364 -0.0380
  125MOL   C13547503   4.995   6.491   2.141  0.7067  0.3298 -0.3226
  125MOL   C13647504   5.033   6.349   2.203  0.7122  0.2421  0.1962
  125MOL   C13747505   4.914   6.248   2.199  0.2139 -0.2822  0.3953
  125MOL   C13847506   4.853   6.238   2.338  0.7524  0.0670 -0.4574
  125MOL   C13947507   4.945   6.314   2.437 -0.2343 -0.1882  0.8586
  125MOL   C14047508   5.075   6.344   2.354 -0.1285  0.0624  0.3585
  125MOL   C14147509   5.116   6.584   2.121  0.1699  0.2799  0.0310
  125MOL   H14247510   4.969   6.467   2.038  0.1182 -1.4876  0.2433
  125MOL   H14347511   5.111   6.296   2.148  0.7815  0.0865  0.4444
  125MOL   H14447512   4.852   6.262   2.110  1.0653 -1.3446 -0.3879
  125MOL   H14547513   4.962   6.152   2.177  0.9039 -0.5560  2.9493
  125MOL   H14647514   4.838   6.136   2.371  1.0355 -0.2388 -1.2476
  125MOL   H14747515   4.752   6.277   2.323  0.2715 -0.7198  0.7104
  125MOL   H14847516   4.968   6.254   2.525  0.2932 -0.8535  0.2684
  125MOL   H14947517   4.904   6.407   2.478  0.0908  0.6416 -0.6623
  125MOL   H15047518   5.128   6.431   2.394  0.2793  0.2431 -0.5591
  125MOL   H15147519   5.142   6.259   2.360 -1.2379 -0.8021  0.6385
  125MOL   H15247520   5.142   6.634   2.214 -0.4655  0.6165  0.0340
  125MOL   H15347521   5.087   6.667   2.056  1.4603 -0.1727 -1.1452
  125MOL   C15447522   5.245   6.531   2.054 -0.1379  0.3999  0.5647
  125MOL   C15547523   5.212   6.484   1.905 -0.5664 -1.0420 -0.6954
  125MOL   C15647524   5.333   6.435   1.817  0.7619 -0.0142 -0.2743
  125MOL   C15747525   5.288   6.437   1.672 -0.2999 -0.6169 -0.2626
  125MOL   C15847526   5.155   6.523   1.668  0.8980 -0.6254 -0.0221
  125MOL   C15947527   5.140   6.584   1.810 -0.1554  0.7741  0.3348
  125MOL   C16047528   5.362   6.629   2.058 -0.3622 -1.1801 -0.0241
  125MOL   H16147529   5.270   6.436   2.099 -2.4191 -0.8001 -0.5796
  125MOL   H16247530   5.153   6.395   1.927  0.5238 -0.8844  3.2456
  125MOL   H16347531   5.420   6.500   1.828  1.1168 -0.6892  1.0955
  125MOL   H16447532   5.368   6.334   1.837  0.4807 -0.1219 -0.3200
  125MOL   H16547533   5.363   6.490   1.612 -1.4068 -0.1795 -1.2863
  125MOL   H16647534   5.286   6.338   1.627  0.0629 -1.1522  0.8954
  125MOL   H16747535   5.077   6.448   1.659  0.2996 -0.0378  0.2935
  125MOL   H16847536   5.151   6.586   1.580  0.0601 -0.0413  0.4324
  125MOL   H16947537   5.034   6.601   1.830 -0.0989 -0.4686  1.7337
  125MOL   H17047538   5.192   6.680   1.817  0.5439  0.3538  0.8937
  125MOL   H17147539   5.313   6.719   2.020  1.1360 -1.4191 -2.5636
  125MOL   H17247540   5.447   6.602   1.996  1.1737  4.1694 -0.4716
  125MOL   C17347541   5.436   6.651   2.196 -0.2007  0.2875 -0.2214
  125MOL   C17447542   5.519   6.787   2.195 -0.0278 -0.0782  0.6873
  125MOL   C17547543   5.442   6.921   2.180  0.9690 -0.1514 -0.0469
  125MOL   C17647544   5.557   7.020   2.165 -0.0548 -0.0242  1.0957
  125MOL   C17747545   5.652   6.941   2.080  0.2983  0.1591  0.2898
  125MOL   C17847546   5.624   6.797   2.084 -0.0322  0.2968  0.7310
  125MOL   C17947547   5.526   6.524   2.221  0.1556 -0.0331  0.4147
  125MOL   H18047548   5.364   6.662   2.277 -0.1389 -2.5527  0.2566
  125MOL   H18147549   5.572   6.800   2.289  0.0093  2.1129  0.3973
  125MOL   H18247550   5.372   6.931   2.263 -1.5504  2.5738 -2.3608
  125MOL   H18347551   5.384   6.912   2.087 -1.6022  0.7880  1.4053
  125MOL   H18447552   5.519   7.109   2.113 -2.8715 -1.7450  0.1026
  125MOL   H18547553   5.595   7.045   2.264  1.6146 -0.4587  0.5652
  125MOL   H18647554   5.752   6.972   2.111 -0.4590  0.9873  2.0054
  125MOL   H18747555   5.635   6.983   1.981 -0.3241  0.4775  0.5308
  125MOL   H18847556   5.593   6.758   1.987 -0.3281  1.8771  0.1702
  125MOL   H18947557   5.717   6.748   2.111 -0.8133 -1.3748  0.4977
  125MOL   H19047558   5.485   6.434   2.175 -1.2750  0.7266  0.1928
  125MOL   H19147559   5.619   6.536   2.165 -0.4673 -0.1155 -0.6301
  125MOL   C19247560   5.558   6.506   2.378  0.2544 -1.0221  0.2132
  125MOL   C19347561   5.692   6.443   2.402  0.6201  0.1912 -0.1912
  125MOL   C19447562   5.718   6.419   2.552  0.1156 -0.2665  0.3739
  125MOL   C19547563   5.873   6.403   2.559 -0.5253 -0.0258  0.6097
  125MOL   C19647564   5.919   6.502   2.458 -0.3454  0.6575  0.0369
  125MOL   C19747565   5.810   6.520   2.353 -0.4104 -0.4571 -0.4248
  125MOL   C19847566   5.442   6.439   2.445  0.3971 -0.6272 -0.5031
  125MOL   H19947567   5.572   6.609   2.411  0.1613 -0.3360 -1.7630
  125MOL   H20047568   5.701   6.340   2.368 -1.0244  0.1168 -0.4282
  125MOL   H20147569   5.670   6.333   2.599  0.5472 -1.0288 -0.5700
  125MOL   H20247570   5.700   6.512   2.607 -2.4734 -2.6424  3.7620
  125MOL   H20347571   5.903   6.420   2.662 -0.6660  0.5646  0.5581
  125MOL   H20447572   5.912   6.305   2.531 -1.4472 -0.0206 -0.7769
  125MOL   H20547573   6.015   6.474   2.414 -0.5806 -1.0643  0.6067
  125MOL   H20647574   5.929   6.600   2.505  0.8401  0.3382  0.4765
  125MOL   H20747575   5.843   6.471   2.261  0.3653  0.9203 -0.8928
  125MOL   H20847576   5.771   6.620   2.335  0.6755  0.2607  1.1808
  125MOL   H20947577   5.348   6.452   2.391 -0.7342  0.6990  1.7361
  125MOL   H21047578   5.454   6.332   2.430  1.4618 -0.6300  0.3359
  125MOL   C21147579   5.404   6.470   2.601 -0.2701  0.5903 -0.1022
  125MOL   C21247580   5.349   6.619   2.617  0.3669  0.2623 -0.4349
  125MOL   C21347581   5.315   6.657   2.765 -0.5453 -0.2177  0.3631
  125MOL   C21447582   5.322   6.811   2.768 -0.2179 -0.1260 -0.6228
  125MOL   C21547583   5.401   6.858   2.653 -0.2490 -0.7071 -0.2844
  125MOL   C21647584   5.440   6.734   2.575  0.3456 -0.4705  0.3109
  125MOL   C21747585   5.310   6.360   2.647 -0.5003 -0.1659 -0.6190
  125MOL   H21847586   5.488   6.469   2.671 -0.5624  2.5904  0.3196
  125MOL   H21947587   5.256   6.618   2.561  0.7357 -1.6508 -1.0190
  125MOL   H22047588   5.220   6.627   2.808 -1.5306  0.4156 -1.3318
  125MOL   H22147589   5.402   6.633   2.826 -0.9744 -1.7204  0.4009
  125MOL   H22247590   5.219   6.847   2.767 -0.7233 -1.5502 -3.2727
  125MOL   H22347591   5.360   6.857   2.859 -0.3102 -0.3926 -0.4474
  125MOL   H22447592   5.496   6.908   2.671 -0.3609 -0.2297 -0.9888
  125MOL   H22547593   5.325   6.919   2.604  0.5432  1.2574  0.8767
  125MOL   H22647594   5.428   6.749   2.468  1.1050 -1.5072  0.0765
  125MOL   H22747595   5.545   6.710   2.591  0.6374 -0.3121 -1.2546
  125MOL   H22847596   5.268   6.303   2.564  0.8903  0.1969 -1.5953
  125MOL   H22947597   5.224   6.400   2.700 -1.8399  0.9373 -3.5078
  125MOL   C23047598   5.382   6.251   2.732  0.3285  0.2660 -0.1548
  125MOL   C23147599   5.343   6.107   2.684  0.7632 -0.2756  0.0612
  125MOL   C23247600   5.192   6.072   2.680 -0.1192  0.1744 -0.0060
  125MOL   C23347601   5.174   5.954   2.583  0.0748  0.0657 -0.1562
  125MOL   C23447602   5.315   5.936   2.525  0.1534  0.1220  0.3371
  125MOL   C23547603   5.398   6.058   2.547  0.2950  0.2082 -1.1986
  125MOL   C23647604   5.350   6.255   2.884 -0.1733  0.2205 -0.2158
  125MOL   H23747605   5.491   6.260   2.730  1.0029 -5.6408 -1.8791
  125MOL   H23847606   5.398   6.044   2.754 -0.5650 -3.2890 -1.4866
  125MOL   H23947607   5.158   6.061   2.783  1.0353  2.5889  0.6891
  125MOL   H24047608   5.127   6.149   2.637  0.1287  0.8475  0.8051
  125MOL   H24147609   5.149   5.859   2.631 -1.5291  1.4375  1.7587
  125MOL   H24247610   5.093   5.982   2.516  0.0712 -0.0206 -0.1889
  125MOL   H24347611   5.306   5.902   2.422  1.7971 -0.9366  0.5117
  125MOL   H24447612   5.370   5.860   2.581  1.5160  0.8538  0.0319
  125MOL   H24547613   5.380   6.130   2.467 -4.5454  1.2177  0.6311
  125MOL   H24647614   5.504   6.038   2.561 -0.0387 -1.2118 -0.6128
  125MOL   H24747615   5.271   6.187   2.914  1.0000 -1.7414 -1.4711
  125MOL   H24847616   5.309   6.351   2.914 -0.6663  0.4122 -1.4586
  125MOL   C24947617   5.471   6.239   2.978 -0.3250  0.1924 -0.3510
  125MOL   C25047618   5.433   6.151   3.105  0.1413 -0.4741  0.1740
  125MOL   C25147619   5.405   5.995   3.087 -0.2233  0.2586 -0.4528
  125MOL   C25247620   5.323   5.950   3.210 -0.0800 -0.1878  0.5719
  125MOL   C25347621   5.292   6.082   3.285  0.6498 -0.5350  0.6075
  125MOL   C25447622   5.319   6.198   3.191  0.0703  0.6834 -0.5608
  125MOL   C25547623   5.538   6.368   3.032 -0.4263  0.6094  0.2043
  125MOL   H25647624   5.548   6.178   2.932 -0.0516  0.1176  0.1903
  125MOL   H25747625   5.522   6.153   3.168  1.6393 -1.1684 -1.8364
  125MOL   H25847626   5.498   5.939   3.076 -0.3917 -0.3711  1.1244
  125MOL   H25947627   5.354   5.966   2.995 -0.4386  0.5401 -0.4233
  125MOL   H26047628   5.389   5.892   3.274  0.7507 -1.0844 -1.0603
  125MOL   H26147629   5.235   5.895   3.178 -1.1744  1.8285 -0.0061
  125MOL   H26247630   5.367   6.084   3.365  0.5295 -1.7783  0.7683
  125MOL   H26347631   5.189   6.079   3.320 -0.1003 -0.1121 -1.5087
  125MOL   H26447632   5.340   6.289   3.247  0.4279  1.2129 -1.5466
  125MOL   H26547633   5.234   6.219   3.125 -1.1845 -1.7648  0.2088
  125MOL   H26647634   5.533   6.440   2.950 -1.0990  0.6700  0.2909
  125MOL   H26747635   5.481   6.404   3.118 -0.0398 -1.3971  1.3329
  125MOL   C26847636   5.679   6.355   3.094  0.9332  0.3382 -0.5155
  125MOL   C26947637   5.716   6.492   3.143 -0.1185  0.1344 -0.3680
  125MOL   C27047638   5.723   6.613   3.047  0.3393  0.3743  0.4225
  125MOL   C27147639   5.833   6.703   3.084 -0.8300 -0.4729  0.3538
  125MOL   C27247640   5.875   6.651   3.222 -0.1507 -0.7263 -0.9844
  125MOL   C27347641   5.852   6.501   3.210  0.2827  0.2542  0.2616
  125MOL   C27447642   5.777   6.290   2.997 -0.5863 -0.5312  0.1222
  125MOL   H27547643   5.679   6.288   3.180 -2.3129  0.4408 -0.3495
  125MOL   H27647644   5.635   6.527   3.206 -0.7450 -2.9560  0.6423
  125MOL   H27747645   5.740   6.568   2.950  0.1466 -0.7682  0.9135
  125MOL   H27847646   5.626   6.661   3.060 -0.3963 -0.5659 -1.4078
  125MOL   H27947647   5.915   6.704   3.012 -0.6763 -2.4749  0.4786
  125MOL   H28047648   5.800   6.807   3.086  0.0725 -0.1635 -0.6076
  125MOL   H28147649   5.810   6.685   3.302  2.8333  0.2963  1.0918
  125MOL   H28247650   5.980   6.677   3.240 -0.5117  0.0298  0.1083
  125MOL   H28347651   5.857   6.450   3.306 -1.3964 -3.2377 -1.4062
  125MOL   H28447652   5.939   6.463   3.157  0.6658  1.5647 -0.0740
  125MOL   H28547653   5.867   6.351   2.991 -0.7480 -0.3125 -0.0765
  125MOL   H28647654   5.740   6.287   2.894  2.6190 -0.5636 -1.0781
  125MOL   C28747655   5.828   6.146   3.043  0.3820  0.8183 -0.0698
  125MOL   C28847656   5.875   6.057   2.922  0.0743 -0.6518  0.6054
  125MOL   C28947657   5.756   6.021   2.834 -0.8701  0.0631  0.1446
  125MOL   C29047658   5.827   5.943   2.729 -0.0546  0.3594 -0.1891
  125MOL   C29147659   5.971   6.005   2.719 -0.4093  0.0767 -0.7705
  125MOL   C29247660   5.980   6.112   2.837  0.0624  0.2659  0.7716
  125MOL   C29347661   5.949   6.149   3.146  0.2890  0.5858  0.3479
  125MOL   H29447662   5.747   6.090   3.090  1.4927 -0.4660  0.3771
  125MOL   H29547663   5.912   5.966   2.969  0.0051 -0.6930  0.5786
  125MOL   H29647664   5.672   5.978   2.887 -2.4379  0.2180 -2.1502
  125MOL   H29747665   5.711   6.110   2.791  0.0074  0.4393 -0.0202
  125MOL   H29847666   5.846   5.847   2.777  0.5141  0.1984 -0.7233
  125MOL   H29947667   5.772   5.930   2.636  0.8229 -1.8354 -0.4157
  125MOL   H30047668   6.001   6.031   2.618 -0.8377  0.2810 -0.8479
  125MOL   H30147669   6.036   5.919   2.734 -1.3753 -0.3609  1.1344
  125MOL   H30247670   5.961   6.211   2.797  1.2470 -0.3121 -1.2869
  125MOL   H30347671   6.074   6.110   2.892  1.3204 -2.1925 -1.3177
  125MOL   H30447672   5.932   6.236   3.210 -1.3816  0.4259  0.1453
  125MOL   H30547673   6.039   6.174   3.090  1.5817 -0.9448  1.6985
  125MOL   C30647674   5.968   6.021   3.231  0.1932  0.1533  0.1239
  125MOL   C30747675   6.114   5.985   3.246  0.0728 -0.0337  0.4343
  125MOL   C30847676   6.204   5.953   3.124  0.0767 -0.7408 -0.2926
  125MOL   C30947677   6.338   6.025   3.157 -0.3842  0.7881 -0.7132
  125MOL   C31047678   6.339   6.058   3.306 -0.2448  0.3043  0.5518
  125MOL   C31147679   6.190   6.087   3.331 -0.2726 -0.4931  0.4314
  125MOL   C31247680   5.892   6.037   3.367  0.4693 -0.1662  0.0380
  125MOL   H31347681   5.927   5.935   3.177 -0.0684 -0.0276  0.6113
  125MOL   H31447682   6.110   5.893   3.305 -3.0038 -1.0135 -1.2012
  125MOL   H31547683   6.156   5.980   3.030  0.3344  1.9743  0.3020
  125MOL   H31647684   6.217   5.846   3.109  1.5178 -0.8431  1.5172
  125MOL   H31747685   6.424   5.969   3.121 -1.0677 -1.0094  0.3458
  125MOL   H31847686   6.338   6.122   3.107  1.1562 -0.0073 -2.2925
  125MOL   H31947687   6.402   6.142   3.334  0.4111  0.0623 -0.1767
  125MOL   H32047688   6.365   5.972   3.367  0.4864 -0.6217 -1.0144
  125MOL   H32147689   6.158   6.087   3.435  0.8799 -1.7691  0.7923
  125MOL   H32247690   6.179   6.190   3.295 -1.2461 -1.0015 -0.7500
  125MOL   H32347691   5.791   6.071   3.340  1.6544  1.8947 -2.0249
  125MOL   H32447692   5.936   6.124   3.415 -1.4984 -0.1478  1.8923
  125MOL   C32547693   5.877   5.922   3.465 -0.8400  0.8880 -0.5866
  125MOL   C32647694   5.797   5.803   3.401 -0.4523 -0.3822  0.1794
  125MOL   C32747695   5.642   5.812   3.400  0.4843  0.0749 -0.6974
  125MOL   C32847696   5.594   5.670   3.375 -0.3417  0.2150 -0.0938
  125MOL   C32947697   5.684   5.603   3.483  0.3511  0.5759  0.5395
  125MOL   C33047698   5.821   5.676   3.478 -0.4180 -0.3727  0.0828
  125MOL   C33147699   5.824   5.978   3.600 -0.3286 -0.4869  0.2075
  125MOL   H33247700   5.974   5.879   3.487 -1.6240  0.4784  2.1946
  125MOL   H33347701   5.827   5.775   3.300  1.6561 -2.8492  1.4298
  125MOL   H33447702   5.609   5.873   3.316 -0.9805 -1.0053 -0.9301
  125MOL   H33547703   5.599   5.844   3.495  1.6249  1.2107 -0.5528
  125MOL   H33647704   5.592   5.629   3.274 -0.3164 -1.7309  0.6693
  125MOL   H33747705   5.488   5.669   3.402  0.1705 -0.3468  1.9199
  125MOL   H33847706   5.694   5.496   3.467  1.9334  1.0277 -1.6499
  125MOL   H33947707   5.633   5.613   3.579 -0.5903  0.1407  0.0997
  125MOL   H34047708   5.888   5.603   3.432 -0.5095  0.2056 -0.9719
  125MOL   H34147709   5.855   5.696   3.580  0.1412  2.5548 -0.6371
  125MOL   H34247710   5.804   5.891   3.663  0.2026 -1.0188 -0.3497
  125MOL   H34347711   5.726   6.022   3.579  0.1423  0.3566 -0.2434
  125MOL   C34447712   5.916   6.078   3.677 -0.1794 -0.1082  0.1206
  125MOL   C34547713   6.044   6.016   3.737  0.1235  0.2202 -0.5326
  125MOL   C34647714   6.024   5.923   3.858  0.4533 -0.2923 -0.5833
  125MOL   C34747715   6.152   5.921   3.943  0.6005 -0.6827 -0.2078
  125MOL   C34847716   6.244   6.022   3.881 -0.1555  0.8346 -0.1427
  125MOL   C34947717   6.158   6.109   3.781 -1.1568  0.5240  0.0862
  125MOL   C35047718   5.827   6.149   3.782 -0.1432 -0.2834 -0.6587
  125MOL   H35147719   5.951   6.160   3.616  0.5690 -0.6623 -0.1983
  125MOL   H35247720   6.093   5.952   3.664 -0.8728 -0.1792 -0.8594
  125MOL   H35347721   5.995   5.822   3.830 -2.8154  0.5326 -0.4014
  125MOL   H35447722   5.940   5.962   3.916  0.7588  0.8957 -0.9177
  125MOL   H35547723   6.116   5.946   4.043 -1.9134 -2.0261 -0.7361
  125MOL   H35647724   6.196   5.821   3.941  0.1911 -0.8525 -1.1851
  125MOL   H35747725   6.329   5.978   3.828  1.0698  0.9800  1.6496
  125MOL   H35847726   6.291   6.084   3.957  0.8621 -1.5752  1.2725
  125MOL   H35947727   6.107   6.186   3.839  0.6917 -0.0601  2.5818
  125MOL   H36047728   6.217   6.160   3.705 -0.1014 -1.9281 -0.7656
  125MOL   H36147729   5.888   6.163   3.872 -1.0182  0.4183 -0.1566
  125MOL   H36247730   5.751   6.081   3.820 -0.9878  1.7447  1.4210
  125MOL   C36347731   5.762   6.291   3.757 -0.3282  0.0630 -0.2864
  125MOL   C36447732   5.644   6.284   3.653 -0.0864 -0.6076 -0.3160
  125MOL   C36547733   5.611   6.413   3.584 -0.7570 -0.2047 -0.1590
  125MOL   C36647734   5.491   6.383   3.502  0.4860 -0.3243 -0.4037
  125MOL   C36747735   5.407   6.287   3.584  0.0151  0.5795 -0.0819
  125MOL   C36847736   5.512   6.220   3.680  0.0207 -0.7363  0.7848
  125MOL   C36947737   5.720   6.362   3.895 -0.5960 -0.1682 -0.1576
  125MOL   H37047738   5.843   6.350   3.715  1.9561 -2.6591  0.0731
  125MOL   H37147739   5.687   6.218   3.578 -1.0258 -1.6727  0.0645
  125MOL   H37247740   5.579   6.494   3.649 -2.5193  0.1412 -1.4213
  125MOL   H37347741   5.692   6.454   3.524 -1.1441  0.2906 -0.3441
  125MOL   H37447742   5.437   6.475   3.482  0.3464 -0.3383 -0.0935
  125MOL   H37547743   5.523   6.332   3.411 -0.0529 -1.6185  0.1254
  125MOL   H37647744   5.344   6.349   3.648  0.4226 -0.1816  1.0963
  125MOL   H37747745   5.334   6.224   3.533  0.8428 -0.5382  0.0907
  125MOL   H37847746   5.520   6.112   3.671 -0.0454 -0.7600  1.0229
  125MOL   H37947747   5.487   6.238   3.784 -0.9624 -1.8842  0.7528
  125MOL   H38047748   5.806   6.399   3.950  0.1857 -1.5064 -0.4588
  125MOL   H38147749   5.661   6.290   3.953  0.8944 -0.7128  0.7133
  125MOL   H38247750   5.661   6.449   3.869  0.3206  0.2328 -0.9255
  126MOL     C147751   0.635   2.720   3.269 -0.5197 -0.1499 -0.1953
  126MOL     C247752   0.594   2.782   3.409 -0.5833 -0.2878 -0.2945
  126MOL     C347753   0.523   2.913   3.396 -0.5489 -0.5914  0.2378
  126MOL     C447754   0.534   2.961   3.538  0.5474  0.5308  0.0057
  126MOL     C547755   0.653   2.897   3.608  1.0479  0.4881  0.4815
  126MOL     C647756   0.714   2.800   3.505  0.1447  0.3639  0.6214
  126MOL     C747757   0.630   2.568   3.265 -0.8714  0.0353 -0.5204
  126MOL     H847758   0.565   2.756   3.194 -0.0403 -0.2550 -0.7033
  126MOL     H947759   0.519   2.727   3.466  0.7560 -0.2047  1.6109
  126MOL    H1047760   0.576   2.983   3.331 -2.1646 -0.1242 -0.5887
  126MOL    H1147761   0.421   2.911   3.358 -0.8234  2.0433  0.7730
  126MOL    H1247762   0.544   3.069   3.548 -0.3849  0.6539 -0.3460
  126MOL    H1347763   0.444   2.933   3.593  0.5620  0.2459 -0.1118
  126MOL    H1447764   0.725   2.973   3.637  0.5903 -0.0691  3.2044
  126MOL    H1547765   0.622   2.853   3.702 -0.4654  1.9164  0.6815
  126MOL    H1647766   0.742   2.707   3.556 -0.8064  0.1382  0.7307
  126MOL    H1747767   0.809   2.836   3.465  2.4981 -3.6019  2.3310
  126MOL    H1847768   0.693   2.525   3.343  0.0987  1.0339 -0.7308
  126MOL    H1947769   0.528   2.534   3.276 -0.9040  0.9197  2.5939
  126MOL    H2047770   0.735   2.755   3.243 -0.1629  0.8132  2.2740
  126MOL    C2147771   0.684   2.514   3.127  0.0017 -0.4726 -0.4121
  126MOL    C2247772   0.592   2.572   3.013  0.1709  0.0220 -0.9583
  126MOL    C2347773   0.439   2.561   3.033  1.0453  0.3024 -0.7039
  126MOL    C2447774   0.379   2.594   2.897 -0.3867  0.0618  0.3493
  126MOL    C2547775   0.475   2.532   2.802  0.1361 -0.4618  0.0425
  126MOL    C2647776   0.608   2.512   2.872 -0.0717 -0.1159  0.3729
  126MOL    C2747777   0.840   2.548   3.124 -0.6271 -0.1820 -0.2384
  126MOL    H2847778   0.661   2.407   3.134  0.2270 -0.6079 -1.7890
  126MOL    H2947779   0.624   2.675   2.995  0.9578 -0.1416 -0.5345
  126MOL    H3047780   0.403   2.615   3.121  1.9345 -2.1157  1.2049
  126MOL    H3147781   0.425   2.456   3.057  1.9683 -0.3335 -2.7901
  126MOL    H3247782   0.283   2.542   2.893  0.4135 -1.3432 -0.9510
  126MOL    H3347783   0.366   2.699   2.872  0.3587 -0.4084 -2.1261
  126MOL    H3447784   0.501   2.580   2.708 -2.1283 -2.1736 -1.5012
  126MOL    H3547785   0.426   2.438   2.777  0.5239 -0.7468  0.3443
  126MOL    H3647786   0.693   2.549   2.814 -0.2681  0.8643  0.7035
  126MOL    H3747787   0.628   2.405   2.877 -0.6507 -0.2511 -0.1242
  126MOL    H3847788   0.840   2.655   3.101 -1.8998 -0.0778  0.2103
  126MOL    H3947789   0.882   2.545   3.224 -0.6151 -2.1420 -0.2714
  126MOL    C4047790   0.937   2.478   3.030  0.7012 -0.7082  0.1367
  126MOL    C4147791   1.052   2.565   2.986 -0.1427  0.2605  0.0493
  126MOL    C4247792   1.127   2.649   3.086  0.1570  0.0572  0.2255
  126MOL    C4347793   1.110   2.798   3.039 -0.3166 -0.6580 -0.4043
  126MOL    C4447794   1.105   2.792   2.894  0.2969  0.7048  0.6977
  126MOL    C4547795   1.010   2.671   2.875  0.7674  0.2156 -0.1916
  126MOL    C4647796   0.990   2.355   3.101 -0.3371 -0.2316 -0.8561
  126MOL    H4747797   0.891   2.439   2.939 -0.4389 -1.2692  0.9312
  126MOL    H4847798   1.131   2.504   2.943 -0.7536  0.5972 -1.5668
  126MOL    H4947799   1.233   2.624   3.081  0.3061  0.0668  2.6245
  126MOL    H5047800   1.088   2.640   3.187  0.5957 -0.2976  0.3675
  126MOL    H5147801   1.190   2.859   3.080 -0.4410 -1.6313  1.3485
  126MOL    H5247802   1.018   2.827   3.089 -0.5053 -1.2546 -0.4049
  126MOL    H5347803   1.074   2.888   2.852  3.6363  1.5812  0.0098
  126MOL    H5447804   1.203   2.783   2.847 -1.4833 -3.5031 -2.4707
  126MOL    H5547805   0.913   2.719   2.875  0.7910  0.2643 -0.3263
  126MOL    H5647806   1.010   2.633   2.773  0.1388 -1.6971  0.4992
  126MOL    H5747807   1.065   2.377   3.177  0.5321  3.2856 -2.5950
  126MOL    H5847808   0.906   2.304   3.148 -1.8127  3.1826  0.3859
  126MOL    C5947809   1.041   2.251   3.000 -0.7406  0.4683 -0.2077
  126MOL    C6047810   1.190   2.227   3.023  0.1402 -0.0244 -0.6655
  126MOL    C6147811   1.252   2.122   2.928 -0.2833 -0.2465  0.6609
  126MOL    C6247812   1.381   2.076   2.995 -0.1004  0.2638  0.1402
  126MOL    C6347813   1.375   2.115   3.143  0.4667 -0.0134 -0.2437
  126MOL    C6447814   1.235   2.172   3.162 -0.2009  0.2035  0.0083
  126MOL    C6547815   0.953   2.120   2.997  0.3594 -0.5287  0.0076
  126MOL    H6647816   1.043   2.298   2.902 -2.9364  2.3816  0.6084
  126MOL    H6747817   1.255   2.312   3.003  0.9760 -1.1118 -2.7986
  126MOL    H6847818   1.270   2.158   2.827 -2.3603 -0.2500  0.2607
  126MOL    H6947819   1.183   2.039   2.909 -0.7421  0.4391 -0.7781
  126MOL    H7047820   1.458   2.140   2.951 -1.5060  0.4727 -2.1162
  126MOL    H7147821   1.406   1.973   2.969 -0.8150 -0.4365  2.1637
  126MOL    H7247822   1.461   2.177   3.165  0.6695 -0.1793 -0.5642
  126MOL    H7347823   1.393   2.023   3.200 -0.0487  0.0069 -0.0435
  126MOL    H7447824   1.154   2.102   3.184  0.4111 -0.6052 -0.3084
  126MOL    H7547825   1.239   2.254   3.234  1.4245 -1.2002  1.5646
  126MOL    H7647826   0.949   2.085   3.101  2.2025 -0.1323  0.2295
  126MOL    H7747827   0.996   2.042   2.934  1.5872  0.9542 -1.0356
  126MOL    C7847828   0.813   2.134   2.927  0.5751  0.2228  0.0668
  126MOL    C7947829   0.815   2.141   2.767  0.3484  0.1054  0.5511
  126MOL    C8047830   0.894   2.032   2.693 -0.4451  0.3846  0.7285
  126MOL    C8147831   0.997   2.101   2.611 -0.3092  0.2706 -0.6611
  126MOL    C8247832   0.930   2.235   2.575 -0.8287 -0.0910  0.3812
  126MOL    C8347833   0.851   2.274   2.701  0.2025  0.4619  0.1682
  126MOL    C8447834   0.726   2.012   2.970 -0.0054  0.1121  0.8505
  126MOL    H8547835   0.768   2.222   2.971 -2.4941 -2.0187  1.6001
  126MOL    H8647836   0.713   2.123   2.733 -0.0354 -0.3599  1.9031
  126MOL    H8747837   0.825   1.979   2.627 -0.0261 -1.8616  2.0363
  126MOL    H8847838   0.939   1.955   2.756  1.5381  0.1295 -0.9599
  126MOL    H8947839   1.025   2.038   2.526 -0.9769  0.6187 -1.1487
  126MOL    H9047840   1.087   2.107   2.672 -1.5055  1.5576  0.9951
  126MOL    H9147841   1.005   2.314   2.561 -1.8206  1.0470  1.4408
  126MOL    H9247842   0.857   2.230   2.495  0.4066  2.4909 -0.9741
  126MOL    H9347843   0.921   2.341   2.752  1.1549  3.2478 -4.4900
  126MOL    H9447844   0.759   2.329   2.680  0.7398  0.8707 -1.1632
  126MOL    H9547845   0.786   1.980   3.055  1.0113 -0.6632 -0.1492
  126MOL    H9647846   0.738   1.936   2.892  0.7294  2.1896 -1.0939
  126MOL    C9747847   0.575   2.027   3.011 -0.8657 -0.3097  0.1912
  126MOL    C9847848   0.569   2.065   3.160  0.2781  0.7425 -0.6419
  126MOL    C9947849   0.419   2.071   3.211 -0.1963  0.4516 -0.0448
  126MOL   C10047850   0.415   1.972   3.335  0.5061 -0.6398  0.6020
  126MOL   C10147851   0.556   1.978   3.382 -0.1724  0.5972  0.7301
  126MOL   C10247852   0.652   1.993   3.262 -0.0615 -0.3752 -0.1722
  126MOL   C10347853   0.511   1.890   2.980  0.3292  0.3174 -0.3582
  126MOL   H10447854   0.528   2.103   2.949 -0.2415 -1.9289 -2.3112
  126MOL   H10547855   0.606   2.168   3.163  2.5963 -0.0345 -1.5743
  126MOL   H10647856   0.391   2.167   3.253  0.0021  1.4674 -2.1549
  126MOL   H10747857   0.350   2.038   3.133 -0.2865 -0.6260  0.4772
  126MOL   H10847858   0.403   1.869   3.304  3.1775 -0.8299  0.0814
  126MOL   H10947859   0.345   1.991   3.417 -0.3618  0.3918 -0.3571
  126MOL   H11047860   0.602   1.897   3.439 -1.2130 -1.7841 -1.6889
  126MOL   H11147861   0.562   2.072   3.436 -1.5684  1.1141  0.0062
  126MOL   H11247862   0.743   2.040   3.299 -1.6152  1.5208  1.3159
  126MOL   H11347863   0.667   1.890   3.231 -2.0845 -1.0870  1.1671
  126MOL   H11447864   0.576   1.806   3.005  1.2669  0.2717 -2.8179
  126MOL   H11547865   0.426   1.865   3.044  2.7852 -0.6081  2.6529
  126MOL   C11647866   0.465   1.876   2.833  0.1035 -0.2969 -0.4162
  126MOL   C11747867   0.449   1.728   2.805  0.5114  0.8255  0.2138
  126MOL   C11847868   0.580   1.647   2.780 -0.2939  0.3546  1.1334
  126MOL   C11947869   0.586   1.524   2.862  0.2214  0.1394  0.4788
  126MOL   C12047870   0.437   1.498   2.887  0.9385  0.2287  0.0238
  126MOL   C12147871   0.378   1.637   2.909  0.3129 -0.5021  0.4100
  126MOL   C12247872   0.344   1.978   2.807  0.1711  0.7210  0.6571
  126MOL   H12347873   0.543   1.910   2.765  0.5710 -0.9867 -0.2258
  126MOL   H12447874   0.390   1.721   2.714 -0.4211 -1.0368  0.9255
  126MOL   H12547875   0.596   1.625   2.675 -1.4469 -0.7426  1.1904
  126MOL   H12647876   0.673   1.699   2.803 -0.8495  1.9315 -0.1183
  126MOL   H12747877   0.640   1.541   2.956  1.3359 -2.0604  0.2473
  126MOL   H12847878   0.627   1.444   2.801 -0.2240  2.2835 -2.7336
  126MOL   H12947879   0.421   1.422   2.964 -2.0447  0.4292 -0.3267
  126MOL   H13047880   0.390   1.449   2.801 -3.4852 -0.1743  2.5060
  126MOL   H13147881   0.270   1.624   2.915  0.2703 -0.2538  0.2001
  126MOL   H13247882   0.413   1.655   3.011  1.6959 -3.9464  0.5983
  126MOL   H13347883   0.352   2.071   2.863  3.2665  1.4063 -0.8062
  126MOL   H13447884   0.265   1.918   2.853 -1.6903 -0.1491 -3.4430
  126MOL   C13547885   0.299   2.005   2.661  0.2243 -0.3096  0.0974
  126MOL   C13647886   0.409   2.069   2.569 -0.0791  0.4679  0.0392
  126MOL   C13747887   0.462   2.212   2.623  0.8521 -0.3717  0.1793
  126MOL   C13847888   0.533   2.275   2.504 -0.3037 -0.0332 -0.5322
  126MOL   C13947889   0.463   2.218   2.382  0.4651 -0.4919  0.0069
  126MOL   C14047890   0.390   2.090   2.419  0.3028  0.1673 -0.0950
  126MOL   C14147891   0.171   2.086   2.678  0.5246 -1.0141  0.7108
  126MOL   H14247892   0.276   1.909   2.615  1.6805  0.1271 -1.5766
  126MOL   H14347893   0.498   2.007   2.572  0.8324  1.7521 -0.1993
  126MOL   H14447894   0.375   2.274   2.645 -0.6060 -2.0427 -0.7487
  126MOL   H14547895   0.512   2.200   2.719  1.5801 -1.4937 -0.3263
  126MOL   H14647896   0.638   2.245   2.512 -0.5113 -0.0116  3.4012
  126MOL   H14747897   0.536   2.383   2.519 -3.0257  0.1495 -1.0894
  126MOL   H14847898   0.534   2.194   2.302  0.0312 -0.0102 -0.5228
  126MOL   H14947899   0.388   2.287   2.343  0.4103  0.3944  1.6265
  126MOL   H15047900   0.284   2.097   2.395  0.2965  1.5325  0.2790
  126MOL   H15147901   0.428   2.003   2.366 -1.0570 -0.2823 -0.3408
  126MOL   H15247902   0.160   2.127   2.577  2.6524 -1.5575  0.2329
  126MOL   H15347903   0.189   2.167   2.749 -0.8437 -0.4240  0.4073
  126MOL   C15447904   0.046   2.005   2.724  0.2438 -0.0142 -0.1507
  126MOL   C15547905   7.623   2.101   2.774  0.1977  0.3488 -0.4361
  126MOL   C15647906   7.575   2.199   2.664 -0.2434 -0.0690  0.0833
  126MOL   C15747907   7.548   2.329   2.739  0.3835  0.5000 -0.2166
  126MOL   C15847908   7.534   2.296   2.887  0.4269 -0.0311  0.4416
  126MOL   C15947909   7.638   2.183   2.902 -0.1021  0.4517  0.0601
  126MOL   C16047910   0.008   1.902   2.619  0.0359  0.1439  0.0473
  126MOL   H16147911   0.066   1.949   2.815 -1.2275  0.1744  0.3055
  126MOL   H16247912   7.529   2.049   2.797  0.6956 -0.3173  0.1325
  126MOL   H16347913   7.658   2.225   2.598 -0.2433  1.4453  0.6543
  126MOL   H16447914   7.489   2.158   2.611 -0.4808 -0.2827  0.6331
  126MOL   H16547915   7.628   2.402   2.723 -0.0348  0.6178 -1.9251
  126MOL   H16647916   7.462   2.388   2.706 -0.4702  0.2346  1.4918
  126MOL   H16747917   7.432   2.270   2.917 -0.1613  2.4367  0.6379
  126MOL   H16847918   7.558   2.379   2.953 -1.8679 -0.0458  1.3448
  126MOL   H16947919   7.624   2.127   2.995  2.0666 -0.9284 -0.3865
  126MOL   H17047920   0.045   2.233   2.896  1.0268 -1.7037 -0.4652
  126MOL   H17147921   0.093   1.836   2.602 -1.8715 -2.5344  0.4573
  126MOL   H17247922   7.685   1.953   2.523  3.4035 -0.5294 -0.7959
  126MOL   C17347923   7.576   1.815   2.646  1.9754 -0.6883 -0.1218
  126MOL   C17447924   7.584   1.729   2.767 -1.6820 -0.2064  0.2025
  126MOL   C17547925   0.010   1.632   2.765 -0.6848 -0.3506 -0.6338
  126MOL   C17647926   7.685   1.554   2.893  0.2110 -0.0845  0.8356
  126MOL   C17747927   7.528   1.545   2.917 -0.1099  0.0921 -0.2979
  126MOL   C17847928   7.463   1.661   2.834  0.1571  0.5069  0.4326
  126MOL   C17947929   7.537   1.733   2.517 -0.7106  0.2496 -0.1616
  126MOL   H18047930   7.490   1.877   2.673  2.1764 -1.3261  2.0442
  126MOL   H18147931   7.620   1.807   2.834  2.8553 -0.0832 -2.2004
  126MOL   H18247932   0.111   1.669   2.751 -0.1328 -1.1917  0.9232
  126MOL   H18347933   7.689   1.563   2.681 -0.3074 -0.4650 -0.5892
  126MOL   H18447934   0.035   1.452   2.887 -0.0227 -0.2094  1.3806
  126MOL   H18547935   0.039   1.613   2.973 -0.3739 -0.8473  1.7252
  126MOL   H18647936   7.517   1.558   3.025 -3.3549 -0.1754 -0.5342
  126MOL   H18747937   7.490   1.450   2.879 -0.4540  0.1648 -0.1323
  126MOL   H18847938   7.397   1.621   2.758  1.9052 -0.4981 -0.5973
  126MOL   H18947939   7.413   1.731   2.901 -0.8774 -1.1856  1.4536
  126MOL   H19047940   7.627   1.699   2.464 -1.2174  0.5132 -1.2043
  126MOL   H19147941   7.487   1.639   2.544 -0.9090  0.3030 -0.3464
  126MOL   C19247942   7.460   1.811   2.406 -0.5810 -0.4489  1.0957
  126MOL   C19347943   7.305   1.783   2.427  0.1887 -0.6736 -0.0522
  126MOL   C19447944   7.251   1.644   2.377  0.1463 -1.0084  0.1193
  126MOL   C19547945   7.109   1.677   2.324  0.3071 -0.7366 -0.3200
  126MOL   C19647946   7.076   1.819   2.367  0.3848  0.4997  0.1304
  126MOL   C19747947   7.213   1.891   2.371  0.2368 -0.4164  0.0776
  126MOL   C19847948   7.514   1.774   2.260 -0.0585 -0.9025 -0.2905
  126MOL   H19947949   7.480   1.918   2.420 -2.1639  0.0085 -0.0297
  126MOL   H20047950   7.292   1.797   2.534 -1.6096  0.7083 -0.4337
  126MOL   H20147951   7.254   1.579   2.464  0.5908  0.9381  1.6052
  126MOL   H20247952   7.318   1.602   2.302  1.6777  2.8311 -0.7875
  126MOL   H20347953   7.100   1.673   2.215 -2.2173 -0.5357 -0.1349
  126MOL   H20447954   7.045   1.605   2.374  1.8446 -0.2530  2.4530
  126MOL   H20547955   7.025   1.808   2.463 -1.6151 -0.7379 -1.0496
  126MOL   H20647956   7.009   1.878   2.305  0.6734  0.5609 -0.1292
  126MOL   H20747957   7.215   1.982   2.431  2.6719  0.3295 -1.0680
  126MOL   H20847958   7.252   1.911   2.271  3.8417 -0.2671  1.4385
  126MOL   H20947959   7.536   1.668   2.246  1.4597 -0.9048  1.9041
  126MOL   H21047960   7.426   1.790   2.198  0.4144 -0.9011 -0.9647
  126MOL   C21147961   7.629   1.861   2.204  0.4729  0.1106  0.0278
  126MOL   C21247962   7.613   2.014   2.223 -0.4073  0.0256 -0.4604
  126MOL   C21347963   0.024   2.095   2.136 -0.6125  0.2395  0.4338
  126MOL   C21447964   7.652   2.234   2.126 -0.3406  0.3885 -0.2047
  126MOL   C21547965   7.498   2.212   2.140  0.5244  0.8087  0.5500
  126MOL   C21647966   7.475   2.071   2.194  0.2727  0.0423  0.3219
  126MOL   C21747967   0.078   1.814   2.239 -0.8337 -0.6000 -0.2633
  126MOL   H21847968   7.614   1.844   2.097 -0.4314  1.5430 -0.0729
  126MOL   H21947969   7.630   2.042   2.327  0.6812 -0.3028 -0.5500
  126MOL   H22047970   0.126   2.100   2.175  0.1913  3.2213 -1.8164
  126MOL   H22147971   0.027   2.050   2.037 -0.4923  0.6187  0.2621
  126MOL   H22247972   7.680   2.290   2.214 -1.6160 -0.9425  1.0820
  126MOL   H22347973   7.689   2.289   2.039 -1.4482  2.4820  0.6186
  126MOL   H22447974   7.456   2.205   2.040  0.7957  1.2264  0.4030
  126MOL   H22547975   7.435   2.292   2.178  0.2886 -0.3150  2.5722
  126MOL   H22647976   7.405   2.081   2.277 -0.5550 -1.6422 -0.1451
  126MOL   H22747977   7.427   2.010   2.117  0.6265 -0.3360  0.3993
  126MOL   H22847978   0.077   1.836   2.346  0.2969 -0.6324 -0.2351
  126MOL   H22947979   0.155   1.886   2.209 -1.9994  0.7367 -0.1043
  126MOL   C23047980   0.119   1.675   2.194 -0.1681 -0.0174  0.1231
  126MOL   C23147981   0.241   1.632   2.286 -0.3289 -0.7198  0.2003
  126MOL   C23247982   0.225   1.637   2.435  0.5371  0.4061 -0.2387
  126MOL   C23347983   0.332   1.548   2.493  0.6065  0.3530 -0.4145
  126MOL   C23447984   0.370   1.456   2.381 -0.1153 -0.6440 -0.0638
  126MOL   C23547985   0.277   1.482   2.262 -0.4554  0.7343  0.3203
  126MOL   C23647986   0.150   1.672   2.042 -0.3057  0.5987 -0.0592
  126MOL   H23747987   0.044   1.600   2.219  2.4257 -3.0530 -0.7796
  126MOL   H23847988   0.328   1.686   2.249 -1.1401 -0.0041 -0.6849
  126MOL   H23947989   0.245   1.737   2.474  0.9677 -0.2402  1.2468
  126MOL   H24047990   0.122   1.608   2.460  0.6614 -1.2436 -1.5857
  126MOL   H24147991   0.413   1.608   2.537  0.8942  0.0983 -0.5936
  126MOL   H24247992   0.293   1.500   2.582  1.1262 -0.2092 -0.4882
  126MOL   H24347993   0.358   1.351   2.410  0.4117 -0.1316  2.0888
  126MOL   H24447994   0.469   1.469   2.338 -0.8778 -0.4736 -1.8036
  126MOL   H24547995   0.197   1.410   2.276  0.0178 -0.1270 -1.2561
  126MOL   H24647996   0.307   1.457   2.161  1.8549  2.0805  0.6379
  126MOL   H24747997   0.229   1.597   2.028 -1.7819 -0.8258 -0.8937
  126MOL   H24847998   0.205   1.764   2.023  5.0631 -2.3594  0.0138
  126MOL   C24947999   0.042   1.647   1.936  0.2186 -0.6370  0.0662
  126MOL   C25048000   7.657   1.505   1.964 -0.1681 -0.4278  0.0284
  126MOL   C25148001   0.053   1.378   1.941  0.0878 -0.5975 -0.8914
  126MOL   C25248002   7.640   1.270   1.918  0.3865 -0.9554  0.1002
  126MOL   C25348003   7.498   1.333   1.892 -0.5628  0.2962 -0.2546
  126MOL   C25448004   7.518   1.486   1.898  0.2391  0.0792 -0.0252
  126MOL   C25548005   0.098   1.668   1.791  0.4599  0.0657 -0.0624
  126MOL   H25648006   7.642   1.706   1.954 -0.3874 -1.0817 -1.3979
  126MOL   H25748007   7.637   1.498   2.070 -1.3528  0.3635 -0.1282
  126MOL   H25848008   0.112   1.350   2.028  0.5618 -1.6051 -1.5304
  126MOL   H25948009   0.118   1.392   1.854 -0.6128  0.6626 -1.2309
  126MOL   H26048010   7.635   1.218   2.014 -0.2979 -0.2474  0.4496
  126MOL   H26148011   7.670   1.193   1.847  2.0868  0.6095 -0.9198
  126MOL   H26248012   7.432   1.294   1.970  0.4375 -0.6492  0.1257
  126MOL   H26348013   7.465   1.302   1.793  1.2850 -2.3103 -0.0959
  126MOL   H26448014   7.442   1.533   1.960  0.2091 -1.0405  0.8063
  126MOL   H26548015   7.519   1.524   1.796  0.6657  0.4409  0.1128
  126MOL   H26648016   0.191   1.612   1.778 -0.0699 -0.7605 -0.2679
  126MOL   H26748017   0.024   1.621   1.727  1.0801 -0.6482 -0.2624
  126MOL   C26848018   0.112   1.814   1.753 -0.1545 -0.1672  0.6777
  126MOL   C26948019   7.667   1.884   1.734  0.1916  0.3148 -0.4685
  126MOL   C27048020   7.592   1.840   1.609 -0.0344  0.5962 -0.1913
  126MOL   C27148021   7.476   1.939   1.599  0.3872  0.1474 -0.4241
  126MOL   C27248022   7.518   2.069   1.666 -0.2343  0.4035  0.4029
  126MOL   C27348023   7.660   2.042   1.721 -0.3628 -0.1891 -0.6765
  126MOL   C27448024   0.222   1.839   1.634 -0.1854  0.6140 -0.5100
  126MOL   H27548025   0.137   1.858   1.849  2.9585 -1.3287  0.4609
  126MOL   H27648026   7.597   1.853   1.812 -0.6721  1.2369 -0.8519
  126MOL   H27748027   7.659   1.846   1.523  0.2330  0.1761 -0.0103
  126MOL   H27848028   7.558   1.737   1.618 -1.0415  0.7858 -1.7513
  126MOL   H27948029   7.440   1.956   1.498 -2.0890  1.1628  0.5761
  126MOL   H28048030   7.389   1.889   1.642  0.1219  0.4333 -0.6315
  126MOL   H28148031   7.450   2.089   1.749  0.3594  1.5558  0.6207
  126MOL   H28248032   7.510   2.155   1.599 -2.6494 -0.3212 -0.2868
  126MOL   H28348033   7.684   2.096   1.812 -1.2931  1.3206 -1.3148
  126MOL   H28448034   0.050   2.081   1.658 -1.5929  1.6885 -1.1169
  126MOL   H28548035   0.226   1.945   1.608  1.1549  0.9672  1.0437
  126MOL   H28648036   0.188   1.789   1.544  1.2085 -2.3910  0.5843
  126MOL   C28748037   0.367   1.797   1.653 -0.1597  0.0385 -0.3265
  126MOL   C28848038   0.461   1.826   1.527 -0.2136  0.0105 -0.5420
  126MOL   C28948039   0.455   1.714   1.417  0.7435 -0.4604 -0.2964
  126MOL   C29048040   0.510   1.791   1.293 -0.6313  0.1986  0.6136
  126MOL   C29148041   0.515   1.938   1.318 -0.9191  0.4383 -0.0816
  126MOL   C29248042   0.441   1.959   1.447  0.1589 -0.3475 -0.0910
  126MOL   C29348043   0.429   1.861   1.780 -0.1270  0.1024  0.0218
  126MOL   H29448044   0.361   1.688   1.654  1.3429 -0.0487  1.3883
  126MOL   H29548045   0.564   1.829   1.562 -0.7879 -0.1638  1.1894
  126MOL   H29648046   0.524   1.635   1.447 -0.6321 -1.2792  0.7503
  126MOL   H29748047   0.352   1.681   1.406  0.4987  0.5206 -1.0114
  126MOL   H29848048   0.605   1.746   1.264 -1.7612 -3.0101  1.7129
  126MOL   H29948049   0.449   1.762   1.207  1.2053 -2.0857  0.0269
  126MOL   H30048050   0.490   1.994   1.227 -1.4741 -1.7091 -1.2900
  126MOL   H30148051   0.618   1.963   1.343 -0.2479 -1.9031 -0.4092
  126MOL   H30248052   0.337   1.981   1.421 -0.3660  0.0494  2.2864
  126MOL   H30348053   0.489   2.041   1.499 -0.1341 -0.2783  0.0709
  126MOL   H30448054   0.355   1.891   1.855  0.8455  1.0920  0.5970
  126MOL   H30548055   0.448   1.962   1.744  1.9557 -0.1436  0.4054
  126MOL   C30648056   0.558   1.796   1.838  0.4219 -0.5631  0.4825
  126MOL   C30748057   0.634   1.890   1.927 -0.6859  0.0189 -0.4728
  126MOL   C30848058   0.723   1.982   1.847  0.6515  0.3259 -0.0445
  126MOL   C30948059   0.741   2.109   1.931  0.1927  0.1728 -0.1559
  126MOL   C31048060   0.661   2.087   2.059  0.2456 -0.0536 -0.4037
  126MOL   C31148061   0.559   1.975   2.035 -0.3458 -0.1455 -0.3258
  126MOL   C31248062   0.516   1.672   1.919  0.2488 -0.3140  0.9341
  126MOL   H31348063   0.622   1.772   1.753 -0.6794  0.9304 -0.8201
  126MOL   H31448064   0.707   1.827   1.978  1.2905  0.9678 -2.0605
  126MOL   H31548065   0.676   2.001   1.751  1.0779  1.2706 -0.0684
  126MOL   H31648066   0.817   1.933   1.821  1.3629  1.0144  1.1878
  126MOL   H31748067   0.847   2.125   1.948 -0.2621  0.1802  2.8427
  126MOL   H31848068   0.702   2.202   1.890  1.3702  0.8877  0.3435
  126MOL   H31948069   0.615   2.179   2.097 -0.5628 -0.7130  0.2309
  126MOL   H32048070   0.730   2.060   2.140 -0.7292  0.3967  0.5840
  126MOL   H32148071   0.538   1.908   2.118 -1.0876  1.0031  0.4323
  126MOL   H32248072   0.463   2.014   2.004 -0.4672 -1.1141 -1.1751
  126MOL   H32348073   0.410   1.662   1.893 -0.0052  1.5124  1.2453
  126MOL   H32448074   0.505   1.696   2.025  0.0255 -0.2443  0.8956
  126MOL   C32548075   0.609   1.554   1.900  0.2434  0.1953  0.1574
  126MOL   C32648076   0.577   1.494   1.759 -0.0096 -0.1317  0.3075
  126MOL   C32748077   0.438   1.424   1.746  0.5283  0.5480 -0.1492
  126MOL   C32848078   0.463   1.291   1.667 -0.0831  1.4431  0.0561
  126MOL   C32948079   0.593   1.314   1.594 -0.8279 -0.8592 -0.0963
  126MOL   C33048080   0.679   1.397   1.697  0.3525  0.1302  0.2670
  126MOL   C33148081   0.602   1.444   2.016 -0.1549  0.5205 -0.2264
  126MOL   H33248082   0.709   1.597   1.902  0.7294 -0.9309  0.0586
  126MOL   H33348083   0.572   1.567   1.678  1.2257  0.0379  0.3724
  126MOL   H33448084   0.366   1.478   1.684  0.2430  2.2257  1.5729
  126MOL   H33548085   0.390   1.411   1.843  1.8058 -0.1012  0.4008
  126MOL   H33648086   0.387   1.273   1.591  0.7417 -0.8737 -0.2601
  126MOL   H33748087   0.458   1.201   1.729 -0.6768  3.0958  2.5055
  126MOL   H33848088   0.575   1.375   1.506 -1.5736 -0.9567 -0.0118
  126MOL   H33948089   0.653   1.226   1.569  1.8384  1.4291 -2.1408
  126MOL   H34048090   0.769   1.443   1.658 -0.0972  1.3099  0.6171
  126MOL   H34148091   0.704   1.312   1.760 -1.5927 -0.7827 -0.1429
  126MOL   H34248092   0.541   1.359   1.984  0.9046 -0.3975  0.1258
  126MOL   H34348093   0.550   1.480   2.105 -1.4625  0.7585 -1.0756
  126MOL   C34448094   0.737   1.384   2.050  0.3452  0.2502 -0.6523
  126MOL   C34548095   0.734   1.234   2.080 -0.1857 -0.2822  0.5955
  126MOL   C34648096   0.693   1.137   1.965  0.2121  0.1180  0.2101
  126MOL   C34748097   0.640   1.012   2.031  0.0375 -0.3657 -0.3130
  126MOL   C34848098   0.575   1.068   2.159  0.3695  0.6019 -0.3456
  126MOL   C34948099   0.653   1.185   2.202 -0.0100 -0.0051  1.1972
  126MOL   C35048100   0.793   1.451   2.175  1.0673  0.4529 -0.3485
  126MOL   H35148101   0.812   1.403   1.973  2.6951  2.0634  2.0026
  126MOL   H35248102   0.838   1.201   2.091 -0.7484 -1.7037  1.8244
  126MOL   H35348103   0.781   1.119   1.904  1.2706 -2.1150  2.2969
  126MOL   H35448104   0.616   1.174   1.897  0.4799  2.2957  1.0515
  126MOL   H35548105   0.570   0.946   1.980 -0.4986  0.3805 -0.5546
  126MOL   H35648106   0.718   0.943   2.062 -1.1459 -1.4270  0.3474
  126MOL   H35748107   0.568   1.001   2.244  0.2418  1.2491  0.1586
  126MOL   H35848108   0.470   1.094   2.145  0.8214  2.8409  0.1763
  126MOL   H35948109   0.581   1.260   2.236  0.1298 -0.0971  1.6957
  126MOL   H36048110   0.715   1.166   2.288 -0.3263 -2.4355  0.9062
  126MOL   H36148111   0.883   1.395   2.202  0.0944 -0.8898  0.1494
  126MOL   H36248112   0.729   1.423   2.258  1.3419 -3.8260 -1.4742
  126MOL   C36348113   0.821   1.600   2.174  0.4074 -0.1539  0.7877
  126MOL   C36448114   0.811   1.671   2.311  0.2307  0.4258  0.2292
  126MOL   C36548115   0.683   1.645   2.389 -0.8281 -0.1063 -0.4732
  126MOL   C36648116   0.664   1.775   2.463  0.3422  0.0331  0.2223
  126MOL   C36748117   0.707   1.884   2.373  0.2023 -0.6473 -0.7842
  126MOL   C36848118   0.830   1.823   2.311 -0.1946  0.2156  0.2586
  126MOL   C36948119   0.949   1.623   2.108  0.3453 -0.4804 -0.3953
  126MOL   H37048120   0.743   1.644   2.113  1.8093 -0.9010 -1.6320
  126MOL   H37148121   0.892   1.637   2.375 -1.1178 -0.8310  1.3295
  126MOL   H37248122   0.605   1.627   2.314  0.3112 -3.2736 -0.9737
  126MOL   H37348123   0.676   1.553   2.447 -2.1670  0.5052  0.3627
  126MOL   H37448124   0.555   1.787   2.463  0.3704  0.3249 -0.3736
  126MOL   H37548125   0.707   1.783   2.562  1.2108  2.3827 -0.3048
  126MOL   H37648126   0.633   1.898   2.294 -0.5936 -2.0603 -0.2996
  126MOL   H37748127   0.721   1.976   2.431 -1.3671 -3.1699  3.8750
  126MOL   H37848128   0.920   1.840   2.370  0.5585 -1.3745 -0.3891
  126MOL   H37948129   0.843   1.872   2.214 -0.1627  0.6816  0.4963
  126MOL   H38048130   0.967   1.730   2.110 -0.4584 -0.3468 -0.3357
  126MOL   H38148131   0.961   1.585   2.006  3.2902  1.3087 -0.7614
  126MOL   H38248132   1.024   1.575   2.171  0.3735  1.6601  1.2191
  127MOL     C148133   4.875   2.201   1.781  0.1468 -0.2804 -0.3021
  127MOL     C248134   4.918   2.057   1.761  0.3971  0.0511 -0.3859
  127MOL     C348135   4.854   1.972   1.651 -0.4654  0.1633  0.0203
  127MOL     C448136   4.854   1.827   1.718  0.4837 -0.4567 -0.2062
  127MOL     C548137   4.941   1.838   1.840 -0.4841  0.0929  0.6163
  127MOL     C648138   4.913   1.977   1.895  0.2298  0.5702  0.2861
  127MOL     C748139   4.934   2.286   1.903  0.0297 -0.3192  0.3927
  127MOL     H848140   4.889   2.250   1.684 -0.8273  2.3851  0.8421
  127MOL     H948141   5.024   2.059   1.736  0.7240  1.2952  1.0377
  127MOL    H1048142   4.753   2.008   1.631  0.5230  2.6387 -0.6214
  127MOL    H1148143   4.922   1.969   1.566 -1.4389 -0.3813 -0.7403
  127MOL    H1248144   4.750   1.801   1.740 -0.0287  1.5025 -0.1662
  127MOL    H1348145   4.890   1.752   1.648 -0.9796 -0.4170 -1.0256
  127MOL    H1448146   4.924   1.755   1.908  1.0535 -0.6147  0.1748
  127MOL    H1548147   5.048   1.827   1.821 -0.8233  0.2269 -1.5750
  127MOL    H1648148   4.992   1.983   1.970  2.3916 -0.5025 -1.8365
  127MOL    H1748149   4.818   1.986   1.949 -0.0661 -0.8914  0.0204
  127MOL    H1848150   4.915   2.236   1.997  0.6699  0.7350  1.0874
  127MOL    H1948151   5.043   2.277   1.905  0.0707  0.2694  0.9367
  127MOL    H2048152   4.768   2.191   1.803 -0.2504  1.7966 -1.1190
  127MOL    C2148153   4.896   2.433   1.918  0.2337  0.1390  0.7361
  127MOL    C2248154   4.938   2.519   1.792  0.2960  0.0317  0.0385
  127MOL    C2348155   5.081   2.496   1.733  0.3132  0.1026  0.1092
  127MOL    C2448156   5.133   2.618   1.653  0.0661  0.6765 -0.9293
  127MOL    C2548157   5.028   2.726   1.690  0.2769  0.4352 -0.3410
  127MOL    C2648158   4.943   2.671   1.811  0.9860 -0.5513 -0.3449
  127MOL    C2748159   4.745   2.463   1.949 -0.1230  0.2393  0.6037
  127MOL    H2848160   4.952   2.464   2.006 -0.2797 -2.3903  2.0145
  127MOL    H2948161   4.864   2.504   1.713  0.8395  0.6113 -0.5871
  127MOL    H3048162   5.083   2.404   1.674 -1.3536 -0.0830  0.3260
  127MOL    H3148163   5.150   2.482   1.815 -0.0067  0.0579  0.3705
  127MOL    H3248164   5.228   2.639   1.701  0.8058 -2.5213 -0.8906
  127MOL    H3348165   5.153   2.606   1.547  3.6432 -1.0743 -0.1052
  127MOL    H3448166   4.960   2.728   1.604 -0.7053  2.2597  0.4512
  127MOL    H3548167   5.067   2.825   1.711 -1.3093  0.8160  0.9466
  127MOL    H3648168   4.848   2.725   1.815  2.3213  1.7972  0.5773
  127MOL    H3748169   4.985   2.691   1.910  0.4179 -3.4992  0.5244
  127MOL    H3848170   4.712   2.564   1.922  1.2793  0.7845  0.9028
  127MOL    H3948171   4.696   2.393   1.881  1.9442 -0.0928 -0.5706
  127MOL    C4048172   4.709   2.441   2.098  0.4881  0.1834  0.0496
  127MOL    C4148173   4.770   2.558   2.184 -0.5731  0.6314 -0.2295
  127MOL    C4248174   4.746   2.544   2.337 -0.1124 -0.6311 -1.0108
  127MOL    C4348175   4.716   2.689   2.388 -0.3861 -0.1483 -0.8781
  127MOL    C4448176   4.730   2.782   2.267 -0.6103 -0.3162  0.3229
  127MOL    C4548177   4.708   2.694   2.150 -0.2176  0.2454 -0.7006
  127MOL    C4648178   4.565   2.407   2.116 -0.4009  0.6298  0.7679
  127MOL    H4748179   4.763   2.356   2.139 -1.2216 -0.8149  0.3204
  127MOL    H4848180   4.879   2.553   2.178 -0.6309 -2.4194  0.6298
  127MOL    H4948181   4.839   2.511   2.385  0.7327  3.9207  0.6900
  127MOL    H5048182   4.671   2.475   2.376 -0.1926 -1.0312 -1.8641
  127MOL    H5148183   4.794   2.717   2.458  0.3375 -2.5291 -0.7258
  127MOL    H5248184   4.616   2.700   2.430  0.5813 -1.9027  1.9625
  127MOL    H5348185   4.658   2.864   2.274  1.6023  1.6629  0.8137
  127MOL    H5448186   4.826   2.835   2.267 -0.8186  0.0731  0.7790
  127MOL    H5548187   4.601   2.694   2.130 -0.5050 -0.7867  0.7251
  127MOL    H5648188   4.764   2.744   2.072  1.0130 -0.1212 -0.0757
  127MOL    H5748189   4.543   2.456   2.211  1.1776  2.6736  0.1326
  127MOL    H5848190   4.507   2.453   2.036  0.0695 -0.4951 -0.2182
  127MOL    C5948191   4.519   2.258   2.147  0.3897  0.4645  0.2323
  127MOL    C6048192   4.374   2.256   2.203  0.0360  0.0713  0.3126
  127MOL    C6148193   4.275   2.333   2.127 -0.0667 -0.2206  0.2122
  127MOL    C6248194   4.149   2.327   2.210 -0.0750 -0.2355 -0.6359
  127MOL    C6348195   4.192   2.302   2.354  0.1823 -0.0055 -0.1108
  127MOL    C6448196   4.347   2.292   2.343  0.7691  0.0975  0.4419
  127MOL    C6548197   4.527   2.161   2.019  0.4816 -0.2397 -0.0645
  127MOL    H6648198   4.580   2.210   2.223  0.6522 -1.6173 -1.2507
  127MOL    H6748199   4.347   2.150   2.204 -0.7431  0.2669  1.9707
  127MOL    H6848200   4.266   2.306   2.022 -1.0779  0.1931  0.1868
  127MOL    H6948201   4.297   2.439   2.120 -0.3833 -0.0076  2.2973
  127MOL    H7048202   4.102   2.241   2.162 -0.0319  0.0643 -1.2232
  127MOL    H7148203   4.083   2.414   2.203 -3.0046 -2.3200 -0.0065
  127MOL    H7248204   4.159   2.202   2.384  0.3266 -0.0193  0.0041
  127MOL    H7348205   4.153   2.375   2.425  0.6395  0.8146 -0.6939
  127MOL    H7448206   4.397   2.386   2.366 -0.3592  0.8143  0.0459
  127MOL    H7548207   4.394   2.220   2.410  0.8675 -0.3856 -0.1361
  127MOL    H7648208   4.625   2.186   1.977 -0.5048  1.1295 -1.5863
  127MOL    H7748209   4.456   2.209   1.952  0.4157 -1.6668 -1.0475
  127MOL    C7848210   4.495   2.008   2.034  0.1396  0.5073  0.4522
  127MOL    C7948211   4.495   1.940   1.898  0.3948  0.1046  0.5981
  127MOL    C8048212   4.406   1.999   1.790 -0.4287  0.3849 -0.0660
  127MOL    C8148213   4.403   1.880   1.693 -0.0471 -0.0676 -0.6072
  127MOL    C8248214   4.418   1.752   1.775 -0.4244 -0.2702  0.7402
  127MOL    C8348215   4.441   1.804   1.913  0.1481  0.1755  0.2363
  127MOL    C8448216   4.583   1.939   2.143  0.1137 -0.3209  0.9885
  127MOL    H8548217   4.392   2.008   2.070  0.4161 -1.1886  1.3056
  127MOL    H8648218   4.600   1.937   1.868 -0.0127 -0.4499 -0.7750
  127MOL    H8748219   4.462   2.085   1.751  2.0173 -0.7341  0.8732
  127MOL    H8848220   4.308   2.028   1.827 -0.7821  0.4483 -1.0394
  127MOL    H8948221   4.495   1.894   1.636  1.1778  0.3526  1.4321
  127MOL    H9048222   4.323   1.876   1.619 -1.3527  0.4562  0.7703
  127MOL    H9148223   4.322   1.699   1.770 -1.2425  1.4134 -2.7941
  127MOL    H9248224   4.503   1.695   1.736  0.7997  0.9422  1.6082
  127MOL    H9348225   4.342   1.805   1.959  0.6568  0.3362  1.3345
  127MOL    H9448226   4.497   1.732   1.973 -0.2030  0.2373  0.6339
  127MOL    H9548227   4.678   1.993   2.144  0.1095 -0.3277  3.0192
  127MOL    H9648228   4.603   1.836   2.115  2.7458  0.4921 -0.2803
  127MOL    C9748229   4.526   1.919   2.284  0.6242 -0.2570  0.2149
  127MOL    C9848230   4.647   1.893   2.383 -0.5439 -0.2154  0.8330
  127MOL    C9948231   4.618   1.868   2.533  0.0783 -0.4605  0.0966
  127MOL   C10048232   4.742   1.820   2.603  0.7379 -0.3737  0.0551
  127MOL   C10148233   4.819   1.756   2.490  0.4289  0.2313 -0.6633
  127MOL   C10248234   4.752   1.786   2.350 -0.0605  0.0510  0.2410
  127MOL   C10348235   4.422   1.799   2.285 -0.0391 -0.3232 -0.1427
  127MOL   H10448236   4.484   2.015   2.318  0.0296 -0.5274  0.2579
  127MOL   H10548237   4.692   1.993   2.382 -1.6970  0.3032 -0.4195
  127MOL   H10648238   4.576   1.954   2.586 -0.5827 -1.2401  0.8544
  127MOL   H10748239   4.545   1.788   2.528  0.6582 -0.9124 -1.3418
  127MOL   H10848240   4.724   1.749   2.683  1.4581 -1.5815 -0.8280
  127MOL   H10948241   4.795   1.905   2.645 -0.0717  0.8198 -1.3028
  127MOL   H11048242   4.824   1.649   2.509 -1.1349  0.7946  3.2179
  127MOL   H11148243   4.923   1.788   2.490 -0.3040  2.7353 -0.8464
  127MOL   H11248244   4.827   1.816   2.276  2.2158 -4.0580  0.7552
  127MOL   H11348245   4.711   1.695   2.306 -1.4034  0.3418  0.8422
  127MOL   H11448246   4.377   1.807   2.186 -0.9476  1.2428  0.3911
  127MOL   H11548247   4.492   1.716   2.276  0.3537 -0.0921  0.7240
  127MOL   C11648248   4.314   1.780   2.388 -0.3388  0.0478  0.0776
  127MOL   C11748249   4.204   1.891   2.373  0.6105  0.5087  0.2328
  127MOL   C11848250   4.109   1.885   2.252  0.2046 -0.2859  0.1701
  127MOL   C11948251   3.976   1.949   2.298 -0.3775  0.6516 -0.0886
  127MOL   C12048252   3.963   1.904   2.443 -0.2066  0.4935  0.8458
  127MOL   C12148253   4.105   1.896   2.497 -0.2315 -0.0747  0.0090
  127MOL   C12248254   4.252   1.638   2.383  0.1313 -0.0569 -0.3691
  127MOL   H12348255   4.343   1.805   2.490 -1.7752  0.7566  0.3352
  127MOL   H12448256   4.266   1.980   2.379  2.4351 -0.6505 -1.0010
  127MOL   H12548257   4.161   1.935   2.170  1.5030 -2.5186 -0.4182
  127MOL   H12648258   4.108   1.779   2.228  0.1044 -0.2575  0.0530
  127MOL   H12748259   3.892   1.925   2.233 -2.2231 -4.4518  3.8362
  127MOL   H12848260   3.984   2.058   2.287 -0.2094  0.4743 -1.8235
  127MOL   H12948261   3.911   1.809   2.434 -0.4405  0.7618 -0.7357
  127MOL   H13048262   3.903   1.971   2.505 -0.9259  1.1267 -0.5089
  127MOL   H13148263   4.129   1.986   2.553 -0.3478  0.2930 -0.5355
  127MOL   H13248264   4.118   1.812   2.566  0.6628 -0.0214 -0.1010
  127MOL   H13348265   4.237   1.597   2.283  4.2727 -0.9646 -0.7413
  127MOL   H13448266   4.148   1.656   2.408  0.3692 -0.8543  1.2593
  127MOL   C13548267   4.309   1.535   2.484 -0.2265  0.2997  0.3230
  127MOL   C13648268   4.418   1.456   2.413 -0.6739 -0.0808  0.1365
  127MOL   C13748269   4.353   1.365   2.301 -0.5402 -0.0941 -0.7769
  127MOL   C13848270   4.403   1.222   2.328 -0.9008  0.2755 -0.4055
  127MOL   C13948271   4.523   1.224   2.425  0.1695 -0.2676  0.4723
  127MOL   C14048272   4.519   1.359   2.494  0.6964 -0.3227 -0.2904
  127MOL   C14148273   4.185   1.443   2.541 -0.2193 -0.5308  0.3129
  127MOL   H14248274   4.357   1.596   2.560 -2.5682  1.1039  1.2256
  127MOL   H14348275   4.485   1.522   2.358 -0.8058 -0.9746 -1.1248
  127MOL   H14448276   4.245   1.370   2.304 -0.3876  3.1777  2.8429
  127MOL   H14548277   4.395   1.404   2.208  1.5615  0.8527  0.5481
  127MOL   H14648278   4.430   1.180   2.231 -1.2986  0.3698 -0.5597
  127MOL   H14748279   4.318   1.173   2.376  0.4624  1.1524  3.0450
  127MOL   H14848280   4.613   1.216   2.364  0.3011 -1.6042  0.8263
  127MOL   H14948281   4.513   1.144   2.498  0.0455 -1.1569 -0.5054
  127MOL   H15048282   4.493   1.353   2.600 -2.3899  1.0735 -0.9260
  127MOL   H15148283   4.618   1.405   2.490  0.2797  0.5378 -0.9301
  127MOL   H15248284   4.220   1.340   2.544  1.9692  0.2216  2.3469
  127MOL   H15348285   4.105   1.449   2.468 -0.5933 -0.3670  0.7342
  127MOL   C15448286   4.133   1.486   2.676  0.4805 -0.2008 -0.4742
  127MOL   C15548287   3.986   1.463   2.693  0.2852  0.1610  0.1877
  127MOL   C15648288   3.932   1.320   2.671 -0.1850  0.1185  0.4741
  127MOL   C15748289   3.852   1.330   2.534  1.2490  0.3197  0.1970
  127MOL   C15848290   3.815   1.472   2.519 -0.2172  0.2916 -0.0751
  127MOL   C15948291   3.903   1.557   2.609  0.5361  0.4385 -0.4918
  127MOL   C16048292   4.225   1.419   2.785  0.0014  0.4648 -0.5036
  127MOL   H16148293   4.141   1.594   2.679 -0.9200 -0.1242  0.6957
  127MOL   H16248294   3.965   1.490   2.797 -1.1534 -0.3837  0.0576
  127MOL   H16348295   4.010   1.244   2.670  0.1698  0.3691  3.3854
  127MOL   H16448296   3.859   1.294   2.747 -0.7377  0.5086  0.0784
  127MOL   H16548297   3.909   1.297   2.448 -0.3959  0.9082 -1.1620
  127MOL   H16648298   3.761   1.270   2.528 -0.0976  2.2298  0.8541
  127MOL   H16748299   3.706   1.481   2.526 -0.4216 -0.9115 -1.4666
  127MOL   H16848300   3.843   1.496   2.416 -1.7783  1.9454 -0.1368
  127MOL   H16948301   3.847   1.624   2.675  0.0587 -0.9980  0.5941
  127MOL   H17048302   3.964   1.630   2.556 -0.6040  1.3444 -0.5992
  127MOL   H17148303   4.332   1.405   2.769 -0.1193 -0.7710 -0.2673
  127MOL   H17248304   4.179   1.326   2.817 -0.9439  0.7349 -1.0513
  127MOL   C17348305   4.240   1.506   2.915  0.3795  0.7203 -0.5858
  127MOL   C17448306   4.312   1.635   2.903 -0.0094 -0.5094  0.2839
  127MOL   C17548307   4.465   1.630   2.866  0.7808 -0.1188 -0.7092
  127MOL   C17648308   4.514   1.766   2.887 -0.2822 -0.4409 -0.0733
  127MOL   C17748309   4.446   1.806   3.021 -0.0764 -0.5208 -0.3362
  127MOL   C17848310   4.307   1.734   3.020 -0.1536  0.7859  0.4965
  127MOL   C17948311   4.292   1.421   3.032 -0.4552  0.0515  0.5424
  127MOL   H18048312   4.139   1.541   2.939 -0.3977 -0.7262 -1.7106
  127MOL   H18148313   4.267   1.686   2.818  2.0252 -1.2536 -1.2895
  127MOL   H18248314   4.484   1.596   2.764 -0.9593  0.8483 -1.3842
  127MOL   H18348315   4.519   1.563   2.933 -0.9668  0.4405  1.3408
  127MOL   H18448316   4.623   1.767   2.891 -0.2948 -0.0101  0.1711
  127MOL   H18548317   4.472   1.826   2.806 -1.9294  1.6633  2.2842
  127MOL   H18648318   4.436   1.914   3.035 -2.3711 -0.6698 -0.5963
  127MOL   H18748319   4.507   1.770   3.103  2.5881 -1.3088 -2.5677
  127MOL   H18848320   4.295   1.690   3.119 -1.2156 -1.4120 -0.5841
  127MOL   H18948321   4.229   1.807   2.997 -1.6574 -1.4208 -1.6309
  127MOL   H19048322   4.311   1.317   3.007  0.3090  0.6489 -1.4340
  127MOL   H19148323   4.391   1.449   3.069 -0.1724 -0.4133  0.1522
  127MOL   C19248324   4.189   1.414   3.149  0.1072  0.0219 -0.0150
  127MOL   C19348325   4.260   1.375   3.283  0.2044 -0.3334 -0.3158
  127MOL   C19448326   4.371   1.460   3.341 -0.5116 -0.3607 -0.1533
  127MOL   C19548327   4.493   1.372   3.355 -1.0776 -0.4444  0.0689
  127MOL   C19648328   4.434   1.238   3.387 -0.6888  0.0448 -0.7742
  127MOL   C19748329   4.311   1.233   3.290 -0.3289 -0.2079 -0.1615
  127MOL   C19848330   4.069   1.316   3.127  0.2842  0.5507  0.0901
  127MOL   H19948331   4.157   1.518   3.160  0.9427  0.2209  0.5678
  127MOL   H20048332   4.187   1.389   3.362  2.4314  0.5194  1.6527
  127MOL   H20148333   4.350   1.492   3.443 -0.6673  1.1930 -0.6598
  127MOL   H20248334   4.380   1.553   3.285  0.4784 -0.8255 -0.7814
  127MOL   H20348335   4.548   1.363   3.261  1.6650 -0.0554  1.5822
  127MOL   H20448336   4.562   1.403   3.433 -1.0949 -1.5926  0.5493
  127MOL   H20548337   4.397   1.225   3.488 -0.8339  1.6968 -0.6056
  127MOL   H20648338   4.494   1.151   3.360 -1.9058 -1.6913  1.9926
  127MOL   H20748339   4.225   1.171   3.314 -1.1820  1.0807  0.1302
  127MOL   H20848340   4.345   1.185   3.198 -0.4074  0.7058 -0.6706
  127MOL   H20948341   4.017   1.337   3.033 -0.3868 -0.0086  0.3295
  127MOL   H21048342   4.110   1.220   3.094 -0.2722 -0.3301  1.8939
  127MOL   C21148343   3.958   1.294   3.232  0.2127  0.0500  0.8698
  127MOL   C21248344   3.861   1.417   3.230 -0.4881 -0.4494 -0.8789
  127MOL   C21348345   3.751   1.423   3.122 -0.2855 -0.4360 -0.2084
  127MOL   C21448346   3.622   1.487   3.183 -0.0983  0.1570 -0.1953
  127MOL   C21548347   3.685   1.554   3.306  0.5133  0.6001  0.4047
  127MOL   C21648348   3.786   1.456   3.360 -0.4318 -0.1337  0.2960
  127MOL   C21748349   3.888   1.155   3.209 -0.4906 -0.0955 -0.2252
  127MOL   H21848350   4.002   1.286   3.331 -0.4848 -1.0485  1.1004
  127MOL   H21948351   3.932   1.499   3.226  0.6589 -1.4253 -0.6340
  127MOL   H22048352   3.784   1.490   3.042  1.5688 -0.7261  0.2881
  127MOL   H22148353   3.721   1.322   3.092 -1.8182  0.0881 -0.4676
  127MOL   H22248354   3.573   1.556   3.115 -1.0978 -1.5926 -1.2853
  127MOL   H22348355   3.541   1.421   3.216 -0.0070 -0.3920 -1.0557
  127MOL   H22448356   3.617   1.586   3.386  0.8859  1.4662  0.3864
  127MOL   H22548357   3.739   1.645   3.280  0.5477  0.0786 -1.3502
  127MOL   H22648358   3.853   1.499   3.435  0.3466  1.5771 -1.3557
  127MOL   H22748359   3.728   1.374   3.403 -1.7679  0.4888 -0.2812
  127MOL   H22848360   3.968   1.081   3.214 -0.8615 -0.4688  0.2061
  127MOL   H22948361   3.862   1.166   3.104 -0.6254  0.5570 -0.1262
  127MOL   C23048362   3.773   1.112   3.307 -0.0298  0.5586  0.1961
  127MOL   C23148363   3.816   1.123   3.458 -0.1756  0.0990  0.3852
  127MOL   C23248364   3.700   1.118   3.556  0.5734 -0.9742 -0.3255
  127MOL   C23348365   3.766   1.100   3.701 -0.1928 -0.8598 -0.1250
  127MOL   C23448366   3.910   1.060   3.668 -0.4573  0.2120  0.2729
  127MOL   C23548367   3.914   1.018   3.520  0.1610  0.4156 -0.3665
  127MOL   C23648368   3.718   0.969   3.271 -0.3563 -0.3159  0.5587
  127MOL   H23748369   3.689   1.180   3.291 -0.4499 -0.2163 -0.9024
  127MOL   H23848370   3.860   1.223   3.466 -0.6948  0.2897  0.8834
  127MOL   H23948371   3.643   1.211   3.548 -0.2067 -1.4909 -0.9654
  127MOL   H24048372   3.636   1.033   3.532  0.0737 -1.3909  2.3716
  127MOL   H24148373   3.772   1.193   3.758 -2.2013  0.1556 -1.5137
  127MOL   H24248374   3.722   1.018   3.757  0.1672 -1.3936 -0.6208
  127MOL   H24348375   3.944   0.973   3.725 -1.2027 -0.7011 -0.6567
  127MOL   H24448376   3.990   1.132   3.688  0.4087 -0.3663 -0.9970
  127MOL   H24548377   3.885   0.913   3.518  2.5442 -0.2518 -3.6431
  127MOL   H24648378   4.012   1.028   3.473  0.5846 -1.0599  0.1758
  127MOL   H24748379   3.685   0.911   3.357  0.3271  1.3470  1.9814
  127MOL   H24848380   3.801   0.902   3.248 -0.1485  0.6349 -1.5886
  127MOL   C24948381   3.627   0.950   3.147 -0.8382  0.2742  0.2409
  127MOL   C25048382   3.478   0.945   3.185  0.2522 -0.5281 -0.2410
  127MOL   C25148383   3.383   0.975   3.059 -0.2407 -0.4905 -0.2826
  127MOL   C25248384   3.246   1.014   3.124  0.2383  1.3020 -0.2928
  127MOL   C25348385   3.277   1.070   3.259 -0.4994 -0.8483  0.0171
  127MOL   C25448386   3.423   1.049   3.287  0.1025 -0.1547 -0.0508
  127MOL   C25548387   3.652   0.821   3.064  0.1212 -0.2407  0.8823
  127MOL   H25648388   3.630   1.041   3.088  0.1984 -0.1815 -0.4210
  127MOL   H25748389   3.450   0.847   3.226 -2.3689  0.7132  1.1167
  127MOL   H25848390   3.386   0.891   2.990 -1.2717 -2.6317  2.1944
  127MOL   H25948391   3.418   1.056   2.995  2.2009 -0.8395  0.5205
  127MOL   H26048392   3.174   0.934   3.144  1.0874  0.9125  1.2863
  127MOL   H26148393   3.194   1.091   3.067  1.9024  3.0692  0.5148
  127MOL   H26248394   3.213   1.013   3.326 -2.0247 -0.2110 -0.8918
  127MOL   H26348395   3.241   1.172   3.268  0.3804 -0.4736 -0.6191
  127MOL   H26448396   3.445   1.018   3.389  0.7887  0.2247 -0.0841
  127MOL   H26548397   3.474   1.140   3.258  0.1010 -0.4917 -1.1397
  127MOL   H26648398   3.632   0.737   3.129  0.6476 -1.4637 -0.5167
  127MOL   H26748399   3.591   0.816   2.974  0.6716 -0.8932  0.5455
  127MOL   C26848400   3.794   0.813   3.003 -1.0697 -0.0149  0.8319
  127MOL   C26948401   3.823   0.925   2.900 -0.6249  0.7401  0.2193
  127MOL   C27048402   3.726   0.938   2.778  0.8730 -0.0545 -0.0049
  127MOL   C27148403   3.811   0.975   2.656  0.1553 -0.1541 -0.4944
  127MOL   C27248404   3.951   0.910   2.684  0.3283 -0.0541  0.4698
  127MOL   C27348405   3.966   0.913   2.839  0.1086  0.3028  0.2227
  127MOL   C27448406   3.807   0.669   2.946 -0.4930  0.1851 -0.8989
  127MOL   H27548407   3.871   0.832   3.078  0.1911 -0.4068 -0.3631
  127MOL   H27648408   3.825   1.024   2.945 -1.3392  0.0762  1.7172
  127MOL   H27748409   3.688   0.837   2.766 -0.3577  0.1628  1.8299
  127MOL   H27848410   3.650   1.014   2.800 -0.2086 -0.9724 -0.5311
  127MOL   H27948411   3.763   0.940   2.565  0.2536 -0.8429 -0.2883
  127MOL   H28048412   3.819   1.084   2.654 -0.5864 -0.0155  2.0363
  127MOL   H28148413   4.029   0.974   2.644 -1.4791  1.7560 -0.2182
  127MOL   H28248414   3.971   0.808   2.649 -0.9326  0.0446 -0.5841
  127MOL   H28348415   4.020   1.003   2.868 -0.4118  0.5141  0.5225
  127MOL   H28448416   4.033   0.845   2.891  0.5491  1.0793  0.6853
  127MOL   H28548417   3.804   0.675   2.838  1.6484 -1.6858 -1.0973
  127MOL   H28648418   3.712   0.615   2.947 -0.4249  0.0531  0.4863
  127MOL   C28748419   3.904   0.567   3.009 -0.1418  0.1081  0.2111
  127MOL   C28848420   3.865   0.547   3.159 -0.2471  0.5572 -0.0819
  127MOL   C28948421   3.726   0.488   3.190 -0.1941  0.5799  0.2463
  127MOL   C29048422   3.740   0.376   3.291 -0.8141  1.2687 -0.2190
  127MOL   C29148423   3.879   0.336   3.297 -0.0766  0.3485 -0.6557
  127MOL   C29248424   3.953   0.450   3.234 -0.4792 -0.2007  0.5029
  127MOL   C29348425   3.903   0.428   2.938 -0.4906  0.4304  0.3033
  127MOL   H29448426   4.004   0.610   3.007  0.3369 -1.0471 -1.6913
  127MOL   H29548427   3.874   0.640   3.214  1.5630  0.4685 -0.2014
  127MOL   H29648428   3.652   0.549   3.242 -0.0797  1.7255 -0.9134
  127MOL   H29748429   3.673   0.454   3.101  1.9523  1.4540 -1.4138
  127MOL   H29848430   3.713   0.414   3.390  2.0264 -1.2632  1.6350
  127MOL   H29948431   3.666   0.296   3.284 -0.7970  1.4692 -2.8862
  127MOL   H30048432   3.877   0.254   3.225 -0.3977 -0.4443  0.2417
  127MOL   H30148433   3.912   0.305   3.396 -2.3430  1.0840  0.3865
  127MOL   H30248434   4.036   0.406   3.178 -1.1700 -1.9807  0.8444
  127MOL   H30348435   3.998   0.519   3.307 -0.2493 -0.8644  0.9944
  127MOL   H30448436   3.814   0.368   2.954 -1.0794  1.3255  0.3915
  127MOL   H30548437   3.982   0.370   2.985 -0.2083  0.1301 -0.5231
  127MOL   C30648438   3.934   0.426   2.785  0.4976  1.1557  0.2422
  127MOL   C30748439   4.073   0.482   2.745 -0.6456 -0.2697 -0.3820
  127MOL   C30848440   4.188   0.418   2.814  0.0929  0.4452  0.2477
  127MOL   C30948441   4.302   0.413   2.715 -0.1397 -0.3235  0.4503
  127MOL   C31048442   4.237   0.401   2.579 -0.3130  0.1386 -0.3232
  127MOL   C31148443   4.106   0.478   2.596 -0.0038 -0.5345 -0.0396
  127MOL   C31248444   3.920   0.281   2.735  0.2186  0.4762 -0.5009
  127MOL   H31348445   3.861   0.494   2.741  0.5921  0.3439 -1.2259
  127MOL   H31448446   4.094   0.586   2.770  1.9227 -1.0705  0.9805
  127MOL   H31548447   4.165   0.315   2.844 -0.1963  0.6281  0.6626
  127MOL   H31648448   4.214   0.469   2.907  1.3007 -0.6685  0.5452
  127MOL   H31748449   4.380   0.488   2.730  0.5531 -0.6453 -1.5261
  127MOL   H31848450   4.361   0.323   2.733  1.0799  0.3261 -0.2568
  127MOL   H31948451   4.231   0.297   2.547  1.6012 -0.2266  0.4338
  127MOL   H32048452   4.315   0.447   2.517  2.3830 -1.5521  1.6952
  127MOL   H32148453   4.115   0.579   2.554  1.3429 -0.2506  0.8882
  127MOL   H32248454   4.024   0.435   2.538  1.2941  0.0659 -2.3896
  127MOL   H32348455   3.943   0.217   2.820  0.3818  1.4689  0.2076
  127MOL   H32448456   3.983   0.249   2.652  0.1374 -1.3151  0.0892
  127MOL   C32548457   3.772   0.240   2.695 -0.1347  0.5051 -0.1961
  127MOL   C32648458   3.728   0.096   2.718  0.3176 -0.0808  0.2883
  127MOL   C32748459   3.713   0.053   2.867  0.1888  0.8599  0.1466
  127MOL   C32848460   3.727   7.591   2.863 -0.4038 -0.1056 -0.0916
  127MOL   C32948461   3.828   7.563   2.759  0.6542 -0.6201 -0.4200
  127MOL   C33048462   3.823   7.686   2.659 -0.0757  1.7165  0.2686
  127MOL   C33148463   3.755   0.299   2.552  0.0295 -0.4116 -0.6122
  127MOL   H33248464   3.708   0.292   2.766  0.6324  0.3489  0.6228
  127MOL   H33348465   3.628   0.078   2.678 -0.5239  0.2736  2.1412
  127MOL   H33448466   3.618   0.082   2.912 -0.4516  2.0917 -1.9230
  127MOL   H33548467   3.787   0.092   2.937  1.1463 -0.9369  0.1587
  127MOL   H33648468   3.636   7.545   2.826 -0.1429  0.3472 -1.3336
  127MOL   H33748469   3.750   7.553   2.962 -1.2877  0.5625  0.3715
  127MOL   H33848470   3.811   7.462   2.723 -1.8428 -0.3147 -0.1683
  127MOL   H33948471   3.926   7.563   2.807  0.1485 -0.2448  0.6174
  127MOL   H34048472   3.769   7.650   2.571 -0.4669  0.3753  1.0393
  127MOL   H34148473   3.917   0.030   2.617  1.2739 -1.9064  0.1415
  127MOL   H34248474   3.815   0.243   2.481  1.0710  0.3157 -0.3157
  127MOL   H34348475   3.803   0.395   2.536 -1.1664  0.1853 -0.7044
  127MOL   C34448476   3.606   0.305   2.499  0.2296 -0.0618  0.0369
  127MOL   C34548477   3.611   0.307   2.343 -1.2075  0.5184 -0.1471
  127MOL   C34648478   3.467   0.316   2.290  0.2140 -0.4669 -0.3147
  127MOL   C34748479   3.456   0.207   2.183 -0.2087 -0.4282  0.2416
  127MOL   C34848480   3.597   0.175   2.140  0.5875  0.3131 -0.4540
  127MOL   C34948481   3.682   0.196   2.263 -0.2878  0.2791 -0.1161
  127MOL   C35048482   3.512   0.413   2.568  0.0643 -0.1599  0.7492
  127MOL   H35148483   3.568   0.207   2.527  1.2897 -0.1625  1.1806
  127MOL   H35248484   3.673   0.385   2.298  0.4899 -0.4231  0.5035
  127MOL   H35348485   3.465   0.415   2.244 -0.0750 -0.9160 -1.2885
  127MOL   H35448486   3.379   0.325   2.353  0.0569 -2.7846 -0.1380
  127MOL   H35548487   3.409   0.118   2.225  0.5981 -0.1045  1.8658
  127MOL   H35648488   3.393   0.240   2.101 -1.2011  1.5870  1.7842
  127MOL   H35748489   3.620   0.246   2.060  0.1546 -2.2927 -2.9557
  127MOL   H35848490   3.614   0.077   2.097  1.0578 -0.0083  0.4411
  127MOL   H35948491   3.683   0.105   2.324 -0.3013  1.2549  1.3621
  127MOL   H36048492   3.782   0.227   2.231  0.1167  1.5823  2.2709
  127MOL   H36148493   3.538   0.418   2.673  0.2743 -0.8201  0.7329
  127MOL   H36248494   3.413   0.368   2.556  0.1986 -0.3466  0.3063
  127MOL   C36348495   3.509   0.560   2.518 -0.3697 -0.4259  0.3852
  127MOL   C36448496   3.384   0.631   2.576  0.1608 -0.4446 -0.3490
  127MOL   C36548497   3.248   0.578   2.508 -0.2644 -0.4347  0.1654
  127MOL   C36648498   3.153   0.695   2.537  0.5491  0.6543  0.0320
  127MOL   C36748499   3.238   0.814   2.567 -0.6411 -0.5588 -0.0174
  127MOL   C36848500   3.380   0.778   2.542  0.6716 -0.1674 -0.2904
  127MOL   C36948501   3.639   0.629   2.553 -0.2925 -0.3651  0.6919
  127MOL   H37048502   3.502   0.572   2.410 -0.8730  3.3980  0.7708
  127MOL   H37148503   3.372   0.616   2.684 -0.8809  1.5071 -0.1800
  127MOL   H37248504   3.259   0.578   2.399  1.2204 -0.5030  0.3127
  127MOL   H37348505   3.225   0.479   2.548  0.2811 -0.4820  0.3652
  127MOL   H37448506   3.080   0.704   2.456  0.4895  1.3190  0.1602
  127MOL   H37548507   3.088   0.667   2.619  1.1683  3.7654  1.6585
  127MOL   H37648508   3.211   0.908   2.519  1.5795  1.2285  2.1021
  127MOL   H37748509   3.219   0.828   2.673  2.1469 -0.5311  0.5116
  127MOL   H37848510   3.431   0.844   2.613 -0.8126  1.1691 -0.4408
  127MOL   H37948511   3.416   0.803   2.442  0.5085  0.4353 -0.2033
  127MOL   H38048512   3.655   0.610   2.659 -0.5170 -2.3487  0.3880
  127MOL   H38148513   3.655   0.736   2.538 -0.8008 -0.4497 -0.5670
  127MOL   H38248514   3.732   0.589   2.513 -1.5806 -0.9301 -1.8741
  128MOL     C148515   6.325   3.021   2.682  0.0260  0.0915 -0.1824
  128MOL     C248516   6.196   3.032   2.601 -0.1864  0.9192  0.0714
  128MOL     C348517   6.109   2.899   2.612  0.1073 -0.8408 -0.0689
  128MOL     C448518   6.019   2.893   2.487 -0.5224 -0.7327 -0.5381
  128MOL     C548519   6.102   2.969   2.380  0.2511 -0.2462  0.7906
  128MOL     C648520   6.218   3.041   2.448  0.1575 -0.1528  0.1157
  128MOL     C748521   6.310   3.035   2.833 -0.3673 -0.3777  0.0907
  128MOL     H848522   6.377   2.928   2.660 -1.9458 -1.4037  1.2647
  128MOL     H948523   6.139   3.120   2.630 -0.5505  0.3314  1.1714
  128MOL    H1048524   6.179   2.815   2.604  1.7208  0.6814 -2.6980
  128MOL    H1148525   6.042   2.888   2.697  0.6877 -2.0823  0.2503
  128MOL    H1248526   5.981   2.796   2.453 -2.4390  1.2926 -4.4538
  128MOL    H1348527   5.925   2.946   2.501 -1.3506 -1.9307 -1.4396
  128MOL    H1448528   6.140   2.889   2.317  0.3299 -0.6651  1.3650
  128MOL    H1548529   6.050   3.041   2.317 -2.3075 -2.5210  0.2229
  128MOL    H1648530   6.216   3.144   2.415 -0.6789 -0.4749 -0.8743
  128MOL    H1748531   6.316   3.005   2.418 -0.1405 -0.4127 -0.5499
  128MOL    H1848532   6.267   3.134   2.843  1.2609  0.3665 -0.1065
  128MOL    H1948533   6.232   2.970   2.874 -0.9795  1.9909  2.8665
  128MOL    H2048534   6.392   3.100   2.646 -0.2614  0.0635 -0.7771
  128MOL    C2148535   6.441   3.035   2.908  0.2569  0.3178  0.0710
  128MOL    C2248536   6.425   3.099   3.049  0.6761 -0.9868  0.0375
  128MOL    C2348537   6.558   3.123   3.122 -0.3375 -0.3531  0.1044
  128MOL    C2448538   6.537   3.110   3.272 -0.4047 -0.8044 -0.1214
  128MOL    C2548539   6.426   3.001   3.272  0.0804  0.1499 -0.2370
  128MOL    C2648540   6.336   3.023   3.150 -0.3554  0.2714 -0.0340
  128MOL    C2748541   6.497   2.885   2.915  0.0114 -0.1695  0.4016
  128MOL    H2848542   6.506   3.105   2.855  0.4640 -0.1883 -0.3489
  128MOL    H2948543   6.390   3.201   3.030  0.1747 -0.8572  1.5838
  128MOL    H3048544   6.598   3.221   3.096  0.2858 -0.6992 -0.2574
  128MOL    H3148545   6.634   3.052   3.088 -0.4685 -1.2367  1.6257
  128MOL    H3248546   6.614   3.063   3.333 -0.9445 -0.7062  0.6400
  128MOL    H3348547   6.500   3.205   3.311  0.4858 -0.3430 -0.4093
  128MOL    H3448548   6.365   2.996   3.362  1.5651  0.5194  0.8135
  128MOL    H3548549   6.485   2.910   3.270 -2.2349 -1.3650 -2.3297
  128MOL    H3648550   6.256   3.083   3.194 -0.5738  0.2102 -0.3454
  128MOL    H3748551   6.280   2.935   3.117 -0.0422 -0.5897  1.6904
  128MOL    H3848552   6.478   2.841   3.013  0.9089 -0.8096  0.2979
  128MOL    H3948553   6.429   2.828   2.851 -2.4921  3.4268 -0.2526
  128MOL    C4048554   6.648   2.866   2.877  0.2886 -0.6940  0.3538
  128MOL    C4148555   6.717   2.736   2.939 -0.3833  0.3346 -0.5631
  128MOL    C4248556   6.673   2.597   2.886 -0.8114  0.0688  0.5572
  128MOL    C4348557   6.710   2.502   2.997  0.3474 -0.2713  0.2932
  128MOL    C4448558   6.763   2.587   3.115 -0.0473 -0.4710 -1.0897
  128MOL    C4548559   6.713   2.728   3.086 -0.4440 -0.0984  0.0548
  128MOL    C4648560   6.682   2.881   2.728  0.0016  0.0788 -0.1401
  128MOL    H4748561   6.692   2.952   2.929  1.2206 -1.4743  0.8676
  128MOL    H4848562   6.822   2.745   2.910 -0.2571  0.1150 -0.1699
  128MOL    H4948563   6.722   2.577   2.791 -1.0111  1.6009  0.1203
  128MOL    H5048564   6.565   2.595   2.869 -0.5075 -0.1560 -1.4980
  128MOL    H5148565   6.790   2.435   2.965  2.4133  2.3261 -0.0979
  128MOL    H5248566   6.625   2.443   3.034  0.9456 -1.6290 -0.4733
  128MOL    H5348567   6.725   2.550   3.210  0.2774  1.0819 -0.3393
  128MOL    H5448568   6.871   2.583   3.103 -0.1335 -2.1772 -1.4246
  128MOL    H5548569   6.612   2.735   3.127 -0.9111 -1.1637 -0.8771
  128MOL    H5648570   6.776   2.809   3.122  1.1912 -1.2752 -0.0793
  128MOL    H5748571   6.678   2.791   2.667  1.0311 -0.5732  0.7373
  128MOL    H5848572   6.598   2.929   2.678  0.6567  1.4088  0.0298
  128MOL    C5948573   6.814   2.970   2.699  0.7826 -0.6100 -0.1554
  128MOL    C6048574   6.879   2.939   2.567  0.0945 -0.2917 -0.8233
  128MOL    C6148575   6.801   2.976   2.445  0.2294 -0.3331 -0.2940
  128MOL    C6248576   6.811   2.851   2.356 -0.0437 -0.0584 -0.0216
  128MOL    C6348577   6.921   2.761   2.409 -0.0233 -0.1270  0.6730
  128MOL    C6448578   6.918   2.785   2.558 -0.1792  1.1483  0.0418
  128MOL    C6548579   6.772   3.118   2.704 -0.6298  0.5451 -0.0663
  128MOL    H6648580   6.883   2.946   2.779 -0.2348 -0.0466  0.9082
  128MOL    H6748581   6.976   2.989   2.573 -0.7872  1.3337  0.1786
  128MOL    H6848582   6.849   3.057   2.391  1.3671 -0.8235 -0.0294
  128MOL    H6948583   6.696   3.001   2.463  0.6591  1.0885  0.2505
  128MOL    H7048584   6.826   2.888   2.254  0.1343  2.4987  0.8822
  128MOL    H7148585   6.714   2.803   2.345  0.2887 -0.8571  0.5164
  128MOL    H7248586   7.019   2.786   2.369 -0.1995  0.3186  0.5230
  128MOL    H7348587   6.888   2.660   2.384  0.6310 -0.1801 -0.0082
  128MOL    H7448588   6.850   2.715   2.606 -0.5033  1.1767 -0.3661
  128MOL    H7548589   7.014   2.767   2.605 -1.0321  0.8407  1.7172
  128MOL    H7648590   6.736   3.136   2.805 -1.4434 -0.4145 -0.1779
  128MOL    H7748591   6.687   3.125   2.636  2.1618 -1.3496 -3.9850
  128MOL    C7848592   6.867   3.236   2.670 -0.3097 -0.5906  0.2384
  128MOL    C7948593   6.804   3.375   2.676  0.5184 -0.3770 -0.2841
  128MOL    C8048594   6.668   3.371   2.607 -0.1723 -0.3551 -0.5551
  128MOL    C8148595   6.628   3.506   2.552  0.2321 -0.0109  0.5469
  128MOL    C8248596   6.754   3.591   2.564  0.4232  0.6983 -0.1637
  128MOL    C8348597   6.868   3.492   2.608 -0.1459  0.4172  0.1695
  128MOL    C8448598   7.012   3.225   2.742  0.2506  0.5393  0.3017
  128MOL    H8548599   6.903   3.234   2.567 -0.3198 -0.9391  0.2390
  128MOL    H8648600   6.784   3.405   2.778 -0.0603 -2.3813  0.2121
  128MOL    H8748601   6.596   3.348   2.685 -2.7089  1.9941 -2.1037
  128MOL    H8848602   6.672   3.306   2.519 -2.2839  0.3514 -1.2094
  128MOL    H8948603   6.544   3.548   2.606 -0.3971  1.3493 -1.4529
  128MOL    H9048604   6.609   3.489   2.447  3.2279  0.1961 -0.0894
  128MOL    H9148605   6.774   3.658   2.481 -0.3963  0.0051 -0.9222
  128MOL    H9248606   6.750   3.653   2.654  1.5729 -1.2620  1.2657
  128MOL    H9348607   6.917   3.454   2.519  0.8953  1.4594  0.2795
  128MOL    H9448608   6.941   3.543   2.671 -0.8682  0.1045  1.2749
  128MOL    H9548609   7.068   3.316   2.722 -0.9041  0.7644 -2.0803
  128MOL    H9648610   7.063   3.138   2.700 -1.1802 -0.0966 -0.1389
  128MOL    C9748611   7.031   3.193   2.894  0.3565 -0.4334  0.3494
  128MOL    C9848612   6.932   3.266   2.991 -0.2454 -0.2531  0.2178
  128MOL    C9948613   6.918   3.212   3.130 -0.7571 -0.3258  0.6084
  128MOL   C10048614   6.847   3.327   3.216  0.1410  0.4695 -0.1747
  128MOL   C10148615   6.831   3.446   3.127 -0.4201  0.0907 -0.7135
  128MOL   C10248616   6.934   3.418   3.016 -0.6601 -0.2533 -0.2810
  128MOL   C10348617   7.179   3.209   2.942  0.6761  0.0486 -0.4164
  128MOL   H10448618   6.995   3.092   2.911 -2.0815  0.7852  2.8745
  128MOL   H10548619   6.836   3.253   2.943  1.0087  0.3299 -2.5168
  128MOL   H10648620   6.867   3.115   3.129  1.7961 -1.7314 -2.9787
  128MOL   H10748621   7.017   3.187   3.169  0.8857  1.3827 -2.3395
  128MOL   H10848622   6.912   3.340   3.302  0.3912  1.2859 -0.4789
  128MOL   H10948623   6.743   3.311   3.245 -0.0990  1.0861 -0.6670
  128MOL   H11048624   6.852   3.540   3.177 -0.4916  1.1189 -2.5471
  128MOL   H11148625   6.731   3.463   3.088 -0.2352  0.9597 -0.8125
  128MOL   H11248626   6.928   3.477   2.925 -1.3165 -1.5373 -1.0833
  128MOL   H11348627   7.027   3.438   3.070 -1.0667  0.8119  0.0244
  128MOL   H11448628   7.219   3.295   2.889  0.5364 -0.3513 -1.1766
  128MOL   H11548629   7.185   3.246   3.044 -0.7799 -1.1264  0.1160
  128MOL   C11648630   7.261   3.081   2.927  0.2478 -0.8520 -0.5840
  128MOL   C11748631   7.417   3.109   2.922 -0.3848  0.6900  0.1764
  128MOL   C11848632   7.462   3.184   2.798 -0.1957  0.2061 -0.1505
  128MOL   C11948633   7.516   3.319   2.846 -0.6701 -0.7227  0.9367
  128MOL   C12048634   7.571   3.294   2.982  0.4481 -0.7630  1.1188
  128MOL   C12148635   7.474   3.186   3.041 -0.6997 -0.2305 -0.3634
  128MOL   C12248636   7.221   2.979   3.041  1.0613 -1.2189  0.2626
  128MOL   H12348637   7.224   3.030   2.838 -0.1452  0.0822 -0.9678
  128MOL   H12448638   7.463   3.010   2.919  0.5945  1.1354 -6.3181
  128MOL   H12548639   7.551   3.140   2.754 -0.2415  2.1578 -2.2789
  128MOL   H12648640   7.384   3.190   2.722 -0.6590 -2.3155  0.0687
  128MOL   H12748641   7.430   3.386   2.848 -0.5017 -0.4606 -0.3022
  128MOL   H12848642   7.580   3.366   2.771 -1.0568  0.2901  1.2358
  128MOL   H12948643   7.583   3.379   3.050  0.7054  0.1598 -0.0794
  128MOL   H13048644   7.673   3.263   2.960  0.9072  0.7027  1.1831
  128MOL   H13148645   7.527   3.120   3.110  0.5652  0.7584 -0.3673
  128MOL   H13248646   7.397   3.234   3.100 -1.4396 -1.7761 -0.0667
  128MOL   H13348647   7.113   2.964   3.041  1.0404 -1.0747  0.0764
  128MOL   H13448648   7.234   3.019   3.141  0.8266 -1.1536  0.2692
  128MOL   C13548649   7.274   2.830   3.031 -0.0312  0.4400  0.7343
  128MOL   C13648650   7.229   2.758   2.902 -0.9347  0.8864  0.5465
  128MOL   C13748651   7.092   2.694   2.894 -0.7032  0.9749 -0.8048
  128MOL   C13848652   7.085   2.570   2.800 -1.4440 -0.7057 -0.4186
  128MOL   C13948653   7.224   2.581   2.735 -0.3269  0.5810 -0.1506
  128MOL   C14048654   7.319   2.650   2.841 -0.7366 -0.3224  0.2067
  128MOL   C14148655   7.239   2.750   3.159 -0.4875  0.4918  0.2519
  128MOL   H14248656   7.379   2.856   3.038  0.0760  0.3359 -0.4459
  128MOL   H14348657   7.244   2.834   2.825  0.5901  0.7615  0.6886
  128MOL   H14448658   7.046   2.666   2.989  0.4699  0.8845 -0.2572
  128MOL   H14548659   7.023   2.764   2.847 -1.5850  0.9871  0.4730
  128MOL   H14648660   7.005   2.586   2.729 -2.1081  1.6887  0.8254
  128MOL   H14748661   7.065   2.474   2.849 -1.6710 -1.5223 -2.0887
  128MOL   H14848662   7.205   2.655   2.658 -1.4491  1.5248  1.0212
  128MOL   H14948663   7.272   2.488   2.703 -1.2650  0.3092 -0.7609
  128MOL   H15048664   7.355   2.578   2.915  1.6016  0.6388  0.0702
  128MOL   H15148665   7.415   2.678   2.796 -1.0505  1.6708  0.7292
  128MOL   H15248666   7.237   2.642   3.146  1.5876  0.5492 -0.7550
  128MOL   H15348667   7.141   2.778   3.199 -0.7182  0.2212 -0.1248
  128MOL   C15448668   7.347   2.757   3.276  0.7208  0.2304  0.1642
  128MOL   C15548669   7.273   2.745   3.411  0.3198  1.4896 -0.3775
  128MOL   C15648670   7.167   2.855   3.439  0.1919  0.0788  0.2910
  128MOL   C15748671   7.188   2.915   3.579  0.2581  0.5801 -0.0466
  128MOL   C15848672   7.248   2.791   3.647 -0.1106  0.8227 -0.0663
  128MOL   C15948673   7.351   2.734   3.544 -0.8084  0.0687  0.2489
  128MOL   C16048674   7.457   2.642   3.256 -0.4051  0.0044  0.1080
  128MOL   H16148675   7.388   2.858   3.274 -1.6092  1.1967 -1.0828
  128MOL   H16248676   7.203   2.661   3.407  1.5212  0.5228 -1.9899
  128MOL   H16348677   7.183   2.935   3.366  0.9086 -1.0485 -0.8059
  128MOL   H16448678   7.061   2.829   3.432  0.3129  0.0917 -2.1523
  128MOL   H16548679   7.265   2.993   3.579 -1.2564  2.0967  0.5898
  128MOL   H16648680   7.098   2.958   3.621 -1.0139 -0.3894 -1.7466
  128MOL   H16748681   7.168   2.720   3.670  0.2924  1.4280  3.4270
  128MOL   H16848682   7.299   2.821   3.738 -1.2092  0.4743  0.6655
  128MOL   H16948683   7.375   2.631   3.571  0.6143  0.4579  0.5244
  128MOL   H17048684   7.437   2.801   3.544 -1.6451  1.1626 -0.4742
  128MOL   H17148685   7.471   2.613   3.152  0.8009  0.5385  0.1112
  128MOL   H17248686   7.420   2.557   3.312 -0.6632  0.2997  0.3926
  128MOL   C17348687   7.598   2.669   3.315  1.1803 -0.1370 -0.2675
  128MOL   C17448688   7.677   2.777   3.232  0.2176 -0.2783 -0.4204
  128MOL   C17548689   0.045   2.731   3.097  0.1757 -0.4770  0.1617
  128MOL   C17648690   0.121   2.861   3.056 -0.0381  0.6505  0.6244
  128MOL   C17748691   0.166   2.936   3.182  0.6161  0.1258  0.1575
  128MOL   C17848692   0.094   2.859   3.302 -0.0607  0.5937  0.3543
  128MOL   C17948693   7.676   2.536   3.339 -0.3054  0.1235 -0.4568
  128MOL   H18048694   7.582   2.706   3.416 -1.3683  0.7960 -0.9729
  128MOL   H18148695   7.600   2.848   3.201 -0.1687 -1.9409 -3.3642
  128MOL   H18248696   7.653   2.697   3.033  0.5536 -1.1573  0.0363
  128MOL   H18348697   0.112   2.647   3.115 -1.1849 -1.6095  0.0652
  128MOL   H18448698   0.215   2.840   3.006  0.0441 -0.4069  1.1974
  128MOL   H18548699   0.054   2.924   2.997  0.3056  0.9557  0.5592
  128MOL   H18648700   0.113   3.029   3.163  1.7429  0.5515 -0.9874
  128MOL   H18748701   0.273   2.950   3.199  1.0281 -2.1444 -0.3840
  128MOL   H18848702   0.159   2.792   3.358 -2.9323 -1.6855  1.1141
  128MOL   H18948703   0.054   2.930   3.375 -2.4142  2.3571 -2.5445
  128MOL   H19048704   7.681   2.481   3.245  1.9693 -0.2336 -0.1659
  128MOL   H19148705   0.092   2.558   3.357 -0.1262 -2.8297  2.5481
  128MOL   C19248706   7.623   2.441   3.456  0.6645  0.0066 -0.3014
  128MOL   C19348707   0.040   2.388   3.554 -0.4470 -0.3947 -1.1371
  128MOL   C19448708   0.081   2.498   3.650  0.4880  0.2470 -0.2491
  128MOL   C19548709   0.211   2.551   3.609  0.3335  0.3510 -0.1096
  128MOL   C19648710   0.286   2.425   3.561 -0.4220  0.3026 -0.0460
  128MOL   C19748711   0.177   2.336   3.493 -0.1706 -0.4777 -0.2511
  128MOL   C19848712   7.533   2.321   3.394 -0.3449  0.1151 -0.4016
  128MOL   H19948713   7.554   2.506   3.510  0.5364 -0.4713  0.1067
  128MOL   H20048714   0.001   2.313   3.624  0.3711 -0.9834 -1.3016
  128MOL   H20148715   0.079   2.456   3.751 -2.0564  0.5012 -0.1425
  128MOL   H20248716   0.015   2.585   3.642  0.2392 -0.0513 -1.4168
  128MOL   H20348717   0.190   2.634   3.542  0.8985  1.7228  1.3736
  128MOL   H20448718   0.277   2.592   3.686  0.1824 -0.2839  0.3652
  128MOL   H20548719   0.335   2.385   3.649 -0.2313  0.7857  0.0705
  128MOL   H20648720   0.365   2.435   3.486  0.9264 -1.9209  1.0425
  128MOL   H20748721   0.195   2.236   3.533  3.4336  0.7067  1.2965
  128MOL   H20848722   0.173   2.339   3.384 -2.2487  1.1286 -0.1777
  128MOL   H20948723   7.483   2.356   3.303 -1.8889  1.2400  0.8527
  128MOL   H21048724   7.603   2.245   3.359 -0.9625 -0.6410 -0.0005
  128MOL   C21148725   7.436   2.245   3.488 -0.0557  0.2547  0.3269
  128MOL   C21248726   7.315   2.329   3.525  0.1182  0.1867 -0.2184
  128MOL   C21348727   7.222   2.357   3.401 -0.7601 -0.3105 -0.1868
  128MOL   C21448728   7.080   2.377   3.464  0.4070  0.9813  0.4413
  128MOL   C21548729   7.074   2.291   3.589  0.1043 -0.5864  0.6436
  128MOL   C21648730   7.218   2.291   3.642 -0.0500 -0.1659 -0.1215
  128MOL   C21748731   7.412   2.096   3.442  1.0345  0.6600  0.2941
  128MOL   H21848732   7.488   2.240   3.584  0.3566  1.3144  0.1629
  128MOL   H21948733   7.365   2.419   3.561 -2.1400  1.8368 -1.1245
  128MOL   H22048734   7.252   2.447   3.348  0.9806 -0.4920  0.4744
  128MOL   H22148735   7.225   2.268   3.336 -2.6578 -2.2384  2.2510
  128MOL   H22248736   7.058   2.483   3.479  0.4077  1.2517 -1.4056
  128MOL   H22348737   7.002   2.344   3.395  0.7018 -0.3999  0.7416
  128MOL   H22448738   7.045   2.192   3.556  0.6722 -0.3951 -0.4354
  128MOL   H22548739   6.993   2.325   3.655  0.3420  0.8541  0.2220
  128MOL   H22648740   7.222   2.373   3.714 -0.4980 -0.4478  0.2226
  128MOL   H22748741   7.234   2.190   3.678 -0.5748  0.4148  1.7675
  128MOL   H22848742   7.389   2.106   3.336 -1.2280 -0.2424  0.6765
  128MOL   H22948743   7.315   2.065   3.480  1.1800  0.4809  0.5241
  128MOL   C23048744   7.518   1.989   3.460 -0.1068  0.3931  0.4553
  128MOL   C23148745   7.544   1.900   3.330  0.1294  0.6887 -0.2217
  128MOL   C23248746   7.579   1.972   3.203  0.6456  0.1648 -0.8648
  128MOL   C23348747   7.648   1.870   3.110  0.3028 -0.4171 -0.4779
  128MOL   C23448748   0.021   1.775   3.207 -0.0710 -0.1873  0.3838
  128MOL   C23548749   7.661   1.808   3.343  1.0017 -0.0834  0.4360
  128MOL   C23648750   7.481   1.891   3.575 -0.4804  0.1809  0.5774
  128MOL   H23748751   7.620   2.021   3.481  0.3063 -0.3217 -0.4405
  128MOL   H23848752   7.454   1.844   3.307  1.3023 -0.2132 -2.8151
  128MOL   H23948753   7.496   2.018   3.150  0.3867  0.1616 -0.4659
  128MOL   H24048754   7.633   2.061   3.234 -1.1311  1.6624 -1.9667
  128MOL   H24148755   7.576   1.832   3.037 -1.0637  3.5158 -1.3004
  128MOL   H24248756   0.033   1.933   3.062 -1.1947  2.1271  0.4216
  128MOL   H24348757   0.129   1.794   3.208 -0.1101  0.0191  1.1511
  128MOL   H24448758   0.011   1.669   3.183 -1.0261  0.0511 -0.2948
  128MOL   H24548759   0.053   1.852   3.399 -1.0365  2.5661  1.4620
  128MOL   H24648760   7.639   1.717   3.399  1.5923 -0.8936 -0.6179
  128MOL   H24748761   7.546   1.804   3.573  0.7448  1.0834 -3.8187
  128MOL   H24848762   7.381   1.853   3.551 -0.6048  0.4374  0.6809
  128MOL   C24948763   7.470   1.952   3.724 -0.3987  0.2193 -0.1388
  128MOL   C25048764   7.613   1.985   3.788 -0.2955  0.2655  0.2670
  128MOL   C25148765   0.017   1.871   3.824  0.1880  0.4684  0.1822
  128MOL   C25248766   0.094   1.907   3.951 -0.0059 -0.7706 -0.2727
  128MOL   C25348767   0.063   2.053   3.987  0.1976  0.0906 -0.4388
  128MOL   C25448768   7.609   2.061   3.928  0.2743  0.0462  0.4832
  128MOL   C25548769   7.383   1.853   3.803  0.4472  0.6628  0.1837
  128MOL   H25648770   7.419   2.048   3.720 -0.4105  0.1956 -0.5682
  128MOL   H25748771   7.662   2.055   3.720  1.7571 -0.7656  0.6524
  128MOL   H25848772   0.072   1.843   3.734 -1.2751 -0.4810 -0.4509
  128MOL   H25948773   7.645   1.783   3.842  0.6420 -0.0900 -0.9284
  128MOL   H26048774   0.199   1.894   3.928 -0.8650 -1.2254 -4.2162
  128MOL   H26148775   0.067   1.845   4.037  0.5598  1.6635  1.7295
  128MOL   H26248776   0.125   2.114   3.921  1.3788  0.0650  0.6265
  128MOL   H26348777   0.067   2.071   4.094 -1.5829  3.1661 -0.8078
  128MOL   H26448778   7.568   2.161   3.914  2.1661  1.0362  1.7754
  128MOL   H26548779   7.538   2.010   3.994  0.8380  1.2108  2.0151
  128MOL   H26648780   7.404   1.751   3.772 -1.9566  0.5246 -1.0621
  128MOL   H26748781   7.425   1.851   3.903 -0.6040  1.3409  0.6464
  128MOL   C26848782   7.234   1.882   3.805 -0.2018  0.4409 -0.5770
  128MOL   C26948783   7.202   1.976   3.921  0.3211  0.4449  0.0231
  128MOL   C27048784   7.213   1.921   4.062 -0.4951 -0.5078 -0.0681
  128MOL   C27148785   7.135   2.018   4.155 -0.0222 -0.0848 -0.3240
  128MOL   C27248786   7.040   2.099   4.055  0.7122  0.7942 -0.8348
  128MOL   C27348787   7.060   2.031   3.923  1.1031 -0.6574 -0.6082
  128MOL   C27448788   7.152   1.747   3.826 -0.3435 -0.3124  0.6481
  128MOL   H27548789   7.200   1.934   3.715  0.4635  1.2329 -0.3704
  128MOL   H27648790   7.265   2.065   3.915 -1.1600  1.3859 -2.2797
  128MOL   H27748791   7.167   1.823   4.072  0.4555 -1.1383 -1.6279
  128MOL   H27848792   7.319   1.912   4.084  0.2737  2.1858 -2.2395
  128MOL   H27948793   7.084   1.969   4.237 -0.8065  1.2074 -0.0229
  128MOL   H28048794   7.203   2.090   4.201  0.4691  0.3814 -1.7375
  128MOL   H28148795   7.069   2.204   4.056  0.4998  0.8520  1.4704
  128MOL   H28248796   6.934   2.089   4.079  0.6829  1.6791 -0.5886
  128MOL   H28348797   7.054   2.094   3.834 -0.7772 -1.6655 -1.2263
  128MOL   H28448798   6.981   1.957   3.904 -1.1906  1.8063 -0.9545
  128MOL   H28548799   7.051   1.771   3.858 -0.4083 -0.9098  0.8858
  128MOL   H28648800   7.197   1.686   3.904 -1.7976 -1.4890  0.5844
  128MOL   C28748801   7.134   1.664   3.695  0.6255  0.1890 -0.0047
  128MOL   C28848802   7.087   1.523   3.731  0.3687  0.2334 -0.1780
  128MOL   C28948803   7.196   1.429   3.802 -0.2593 -0.5190 -0.5731
  128MOL   C29048804   7.116   1.356   3.913  0.7705  0.0274  0.1852
  128MOL   C29148805   6.963   1.383   3.874 -0.1413  0.2089  0.2221
  128MOL   C29248806   6.961   1.520   3.816 -0.3225 -0.1002 -0.3349
  128MOL   C29348807   7.031   1.723   3.591 -0.9300  0.6058 -0.4992
  128MOL   H29448808   7.235   1.653   3.658  1.1007  0.0629  1.3140
  128MOL   H29548809   7.051   1.479   3.638 -1.3910 -0.0592  0.6194
  128MOL   H29648810   7.244   1.366   3.728  1.7752  1.8585 -1.3227
  128MOL   H29748811   7.279   1.483   3.847 -0.6398 -0.4660  0.0709
  128MOL   H29848812   7.148   1.252   3.922 -1.2323 -0.6842 -0.5181
  128MOL   H29948813   7.136   1.410   4.005 -1.5147  0.6009  0.3854
  128MOL   H30048814   6.891   1.364   3.955 -1.4724  2.0103 -0.4939
  128MOL   H30148815   6.940   1.309   3.798  0.0585 -1.2661  1.5891
  128MOL   H30248816   6.964   1.582   3.906  1.0696 -1.5437  0.6553
  128MOL   H30348817   6.868   1.541   3.765 -0.9419 -0.3713  0.6529
  128MOL   H30448818   7.049   1.830   3.592 -0.8800  0.5900  1.1309
  128MOL   H30548819   6.933   1.730   3.639  0.4072 -1.4815  2.7302
  128MOL   C30648820   7.024   1.671   3.448  0.6624 -0.0646  0.2379
  128MOL   C30748821   6.896   1.732   3.375  0.0125 -0.3891  0.2905
  128MOL   C30848822   6.756   1.695   3.418  0.6242  0.2744  0.3333
  128MOL   C30948823   6.669   1.784   3.329  0.4060  0.2374 -0.2350
  128MOL   C31048824   6.740   1.920   3.331 -0.0738  0.3247  0.9488
  128MOL   C31148825   6.889   1.888   3.370  0.2118  0.5539 -0.1199
  128MOL   C31248826   7.156   1.688   3.371  0.2121  0.1892 -0.5163
  128MOL   H31348827   6.992   1.568   3.440  1.3500 -0.1853 -1.0200
  128MOL   H31448828   6.897   1.689   3.275 -3.0026  0.6802 -0.2383
  128MOL   H31548829   6.747   1.714   3.525  3.3478 -0.2167  0.7035
  128MOL   H31648830   6.735   1.590   3.400  1.6191  0.4199 -1.8441
  128MOL   H31748831   6.669   1.746   3.227  0.0695 -0.8795  0.1729
  128MOL   H31848832   6.567   1.797   3.366 -0.0148  0.2362 -1.3744
  128MOL   H31948833   6.690   1.994   3.394  0.0029 -1.5258  3.2542
  128MOL   H32048834   6.725   1.965   3.233 -0.6018 -0.4954  0.6509
  128MOL   H32148835   6.968   1.914   3.299  1.4209 -1.3670  0.4855
  128MOL   H32248836   6.918   1.932   3.465 -1.4361 -1.1478  1.2147
  128MOL   H32348837   7.237   1.722   3.436  1.6228 -1.4518 -1.3792
  128MOL   H32448838   7.155   1.781   3.314  1.5487  0.5090 -0.0388
  128MOL   C32548839   7.219   1.586   3.285 -0.5052  0.2463 -0.8660
  128MOL   C32648840   7.363   1.548   3.333 -0.2265 -0.2908  0.7407
  128MOL   C32748841   7.406   1.424   3.267 -0.0164 -0.3338 -0.2771
  128MOL   C32848842   7.495   1.341   3.363 -0.2125 -0.3007  0.2783
  128MOL   C32948843   7.504   1.425   3.492  0.0659  0.4633  0.3481
  128MOL   C33048844   7.376   1.512   3.486 -0.2566 -0.8801 -0.6090
  128MOL   C33148845   7.230   1.625   3.133  0.1004  0.2093  0.4585
  128MOL   H33248846   7.156   1.498   3.296 -0.3270  0.3373  1.1596
  128MOL   H33348847   7.437   1.625   3.314  1.2411 -1.4875  1.5779
  128MOL   H33448848   7.459   1.448   3.175  1.4439  2.0020  1.0950
  128MOL   H33548849   7.328   1.359   3.229  0.6569 -0.6007 -1.2117
  128MOL   H33648850   7.595   1.332   3.321  0.3692  0.8959  1.3607
  128MOL   H33748851   7.450   1.244   3.383  2.8034 -1.5590  1.1593
  128MOL   H33848852   7.597   1.480   3.505 -0.3329  1.3308 -0.4344
  128MOL   H33948853   7.507   1.356   3.577  4.1431 -1.7562 -1.4182
  128MOL   H34048854   7.404   1.600   3.544  0.3667 -2.6333  1.8273
  128MOL   H34148855   7.291   1.452   3.520  2.3091 -3.1669  2.1325
  128MOL   H34248856   7.280   1.557   3.064 -2.7239 -1.0522 -0.4540
  128MOL   H34348857   7.288   1.716   3.119 -1.4434  1.2652  0.7297
  128MOL   C34448858   7.100   1.643   3.055  0.3454  0.4773 -0.2914
  128MOL   C34548859   7.012   1.510   3.054 -0.3540 -0.0733 -0.3861
  128MOL   C34648860   7.092   1.389   3.001 -0.6330 -0.5442  0.3510
  128MOL   C34748861   6.979   1.282   3.001  0.3118 -0.1668 -0.3457
  128MOL   C34848862   6.845   1.361   2.972 -0.8606  0.1715 -0.2460
  128MOL   C34948863   6.878   1.509   2.980  0.3366  0.1684 -1.1717
  128MOL   C35048864   7.111   1.712   2.916  0.0246  0.6285  0.0750
  128MOL   H35148865   7.046   1.711   3.121  1.6220 -0.9901  2.3345
  128MOL   H35248866   6.983   1.482   3.155  0.0714  0.7361 -0.0341
  128MOL   H35348867   7.170   1.351   3.066  1.3359  3.0364  0.2291
  128MOL   H35448868   7.132   1.411   2.902 -1.0411 -0.9911  0.0835
  128MOL   H35548869   6.996   1.201   2.929  0.1189 -2.1495  1.7811
  128MOL   H35648870   6.968   1.229   3.096 -0.5759 -1.0138 -0.9108
  128MOL   H35748871   6.778   1.334   3.054  0.0412 -0.0482  0.4304
  128MOL   H35848872   6.789   1.321   2.888 -1.4090 -1.5660  0.9155
  128MOL   H35948873   6.887   1.550   2.880  1.5537  1.6280 -0.4786
  128MOL   H36048874   6.796   1.553   3.036 -0.0143 -1.6064 -0.2362
  128MOL   H36148875   7.105   1.634   2.840 -0.4623 -0.5213  1.2731
  128MOL   H36248876   7.207   1.762   2.899  0.4242 -0.4970 -1.0057
  128MOL   C36348877   7.001   1.813   2.871  0.4911  0.0185  0.0567
  128MOL   C36448878   7.022   1.967   2.886  0.0096  0.2810 -0.3307
  128MOL   C36548879   7.106   2.036   2.783 -0.4904 -0.2302 -0.2509
  128MOL   C36648880   7.125   2.172   2.840  0.1932 -0.5391  0.2004
  128MOL   C36748881   7.151   2.151   2.995  0.4112  0.6887  0.3830
  128MOL   C36848882   7.080   2.016   3.020  0.5976 -0.2642 -0.0533
  128MOL   C36948883   6.957   1.784   2.726  0.9949  0.6950  0.2772
  128MOL   H37048884   6.914   1.784   2.930 -0.2688  0.5739 -0.7775
  128MOL   H37148885   6.921   2.006   2.872 -0.2933 -0.4095 -0.0680
  128MOL   H37248886   7.200   1.983   2.772  0.8406  1.6419  1.5726
  128MOL   H37348887   7.046   2.041   2.692 -2.9210 -2.9743  1.1133
  128MOL   H37448888   7.217   2.205   2.793  0.4990 -2.6125 -0.6933
  128MOL   H37548889   7.053   2.252   2.823 -0.0062 -0.6121  0.6783
  128MOL   H37648890   7.258   2.138   3.012  0.0728 -1.5474  1.0478
  128MOL   H37748891   7.111   2.230   3.058 -0.3575  0.6878 -0.0952
  128MOL   H37848892   6.990   2.036   3.079 -0.2512 -1.5265 -0.8808
  128MOL   H37948893   7.142   1.954   3.085 -0.6177 -1.0828  0.3512
  128MOL   H38048894   6.893   1.696   2.727 -0.2216  1.5534  3.0153
  128MOL   H38148895   7.051   1.761   2.675  0.3586  0.4467 -0.7839
  128MOL   H38248896   6.902   1.866   2.680 -0.5523 -1.1193 -1.1938
  129MOL     C148897   4.827   5.534   0.479  0.2064  0.4153  0.2544
  129MOL     C248898   4.908   5.425   0.546 -0.0487  0.2015  0.4474
  129MOL     C348899   5.041   5.469   0.610 -0.1882 -0.4179 -0.0630
  129MOL     C448900   5.147   5.366   0.582 -0.7346  0.2203 -0.3583
  129MOL     C548901   5.070   5.256   0.510 -0.5046 -0.6700  0.2374
  129MOL     C648902   4.947   5.318   0.450 -0.5475  0.5784  0.4329
  129MOL     C748903   4.701   5.492   0.403  0.1496  0.1977  1.2412
  129MOL     H848904   4.800   5.606   0.556  1.5621  1.8164 -0.5215
  129MOL     H948905   4.860   5.376   0.631  1.6222 -1.6593  0.3591
  129MOL    H1048906   5.068   5.568   0.572  1.0832 -0.5813  0.3728
  129MOL    H1148907   5.019   5.487   0.716 -2.4246 -1.4189 -0.3318
  129MOL    H1248908   5.212   5.406   0.504 -0.7654 -1.1259 -1.0910
  129MOL    H1348909   5.199   5.325   0.669 -1.8439 -1.0069 -0.2456
  129MOL    H1448910   5.132   5.200   0.441  3.7382  1.4078  2.1946
  129MOL    H1548911   5.020   5.195   0.586 -1.9797 -0.4362 -0.5241
  129MOL    H1648912   4.864   5.254   0.423  0.7961 -0.5349 -1.1639
  129MOL    H1748913   4.985   5.359   0.356 -0.8009  1.9999  0.9290
  129MOL    H1848914   4.727   5.416   0.330 -1.5575 -0.5406  1.3805
  129MOL    H1948915   4.639   5.438   0.474  1.8598 -3.4296  0.0975
  129MOL    H2048916   4.880   5.600   0.409  1.7091  1.6826  2.5146
  129MOL    C2148917   4.629   5.604   0.332  0.2683 -0.3087 -0.6217
  129MOL    C2248918   4.654   5.605   0.180 -0.7181 -0.0201  0.1687
  129MOL    C2348919   4.797   5.634   0.129 -0.3614  0.5977 -0.2151
  129MOL    C2448920   4.791   5.689   7.678  0.2994  0.6224 -0.0288
  129MOL    C2548921   4.641   5.720   7.660 -0.1451  0.5794  0.5499
  129MOL    C2648922   4.570   5.713   0.102  1.2719 -0.4896  0.3923
  129MOL    C2748923   4.478   5.596   0.369  0.1997  0.9491  0.1544
  129MOL    H2848924   4.674   5.697   0.367  0.8166  0.0492 -2.2296
  129MOL    H2948925   4.635   5.508   0.134 -0.4291 -0.8125  1.6743
  129MOL    H3048926   4.852   5.540   0.134 -0.6801  0.4418  0.4154
  129MOL    H3148927   4.858   5.705   0.185  3.4139 -2.3009 -0.4657
  129MOL    H3248928   4.853   5.776   7.656 -0.2561  0.9985 -0.1215
  129MOL    H3348929   4.830   5.614   7.610 -0.7574 -0.8062  0.9184
  129MOL    H3448930   4.589   5.654   7.590  0.8356  0.4762 -0.1074
  129MOL    H3548931   4.626   5.821   7.622 -0.1186  0.9203  1.4534
  129MOL    H3648932   4.469   5.676   0.088  0.5068  1.5560  0.2736
  129MOL    H3748933   4.563   5.811   0.151 -1.8155 -1.4080  1.8945
  129MOL    H3848934   4.417   5.663   0.309 -0.4673 -1.2613 -1.6915
  129MOL    H3948935   4.456   5.496   0.334  0.8716  1.2216 -1.0839
  129MOL    C4048936   4.429   5.630   0.513  0.4009  0.4412  0.5192
  129MOL    C4148937   4.451   5.783   0.549 -0.8301  0.3579  0.0591
  129MOL    C4248938   4.431   5.829   0.695  0.4648 -0.6451 -0.0612
  129MOL    C4348939   4.387   5.972   0.693 -0.2150  0.5258 -0.3572
  129MOL    C4448940   4.402   6.016   0.550  0.4155  0.3880  0.1800
  129MOL    C4548941   4.390   5.891   0.460  0.2599  0.7932 -0.5240
  129MOL    C4648942   4.275   5.587   0.526  0.3956 -0.3566 -0.9480
  129MOL    H4748943   4.486   5.567   0.581  1.2534  0.1753 -0.4319
  129MOL    H4848944   4.559   5.797   0.554 -0.5573 -0.4525 -2.8176
  129MOL    H4948945   4.518   5.808   0.756 -0.1033  1.3705  1.4882
  129MOL    H5048946   4.357   5.767   0.745  0.1062 -2.2115 -2.4376
  129MOL    H5148947   4.447   6.031   0.762  1.2948 -0.5608 -0.7218
  129MOL    H5248948   4.284   5.968   0.729 -0.0327 -0.7711  0.0494
  129MOL    H5348949   4.326   6.090   0.526 -0.6097 -0.7552 -0.1074
  129MOL    H5448950   4.502   6.056   0.531  0.6843 -0.8615 -1.2135
  129MOL    H5548951   4.282   5.884   0.451  0.2570  0.4240 -0.1941
  129MOL    H5648952   4.437   5.892   0.362  3.9388 -2.4673  1.0535
  129MOL    H5748953   4.235   5.614   0.624  0.3343 -1.3248 -0.6964
  129MOL    H5848954   4.212   5.642   0.457  0.3230  0.2352 -0.4124
  129MOL    C5948955   4.234   5.432   0.515  0.0458 -0.0786  0.5395
  129MOL    C6048956   4.243   5.364   0.660 -0.7589  0.3401 -0.7350
  129MOL    C6148957   4.385   5.360   0.725 -0.4438 -0.2368 -0.4631
  129MOL    C6248958   4.372   5.247   0.840  0.6588  0.6062 -0.3754
  129MOL    C6348959   4.266   5.149   0.785  0.2295 -0.0201  0.2017
  129MOL    C6448960   4.209   5.218   0.662  0.2766 -0.2308 -0.1149
  129MOL    C6548961   4.085   5.415   0.463  0.6441  0.3718 -0.7015
  129MOL    H6648962   4.311   5.386   0.454  0.7863  1.8878 -0.0287
  129MOL    H6748963   4.172   5.411   0.729  0.0313 -0.0437  0.3564
  129MOL    H6848964   4.415   5.460   0.758 -0.9854 -0.0300 -0.5859
  129MOL    H6948965   4.452   5.339   0.643  0.4038  0.2126  0.1058
  129MOL    H7048966   4.336   5.290   0.933 -1.5631 -0.8355 -0.5461
  129MOL    H7148967   4.467   5.198   0.860  1.1037 -0.0052 -3.7376
  129MOL    H7248968   4.183   5.139   0.856 -0.2287  0.9947 -0.1770
  129MOL    H7348969   4.307   5.052   0.758  0.8411  0.6925 -1.4476
  129MOL    H7448970   4.253   5.166   0.578 -1.5722 -3.2405  0.6847
  129MOL    H7548971   4.101   5.214   0.645 -0.0120  0.4253  1.4449
  129MOL    H7648972   4.011   5.446   0.538  1.8258 -1.9201  1.4841
  129MOL    H7748973   4.063   5.308   0.462 -1.2655  0.7341 -0.1649
  129MOL    C7848974   4.048   5.473   0.318  0.0969 -0.5736  0.1658
  129MOL    C7948975   4.152   5.431   0.217 -0.0056  0.3436  0.3757
  129MOL    C8048976   4.146   5.491   0.075  0.7105  0.6908  0.0140
  129MOL    C8148977   4.222   5.394   7.679 -0.5215 -0.3411 -0.0602
  129MOL    C8248978   4.266   5.277   0.075  0.5340  0.1710  0.1331
  129MOL    C8348979   4.169   5.281   0.187 -0.4682  0.7167  0.5193
  129MOL    C8448980   3.904   5.420   0.284  0.2368  0.0538  0.1370
  129MOL    H8548981   4.049   5.582   0.320  0.6283 -0.5864  0.7402
  129MOL    H8648982   4.247   5.467   0.254  0.9508 -0.3663 -1.3486
  129MOL    H8748983   4.181   5.594   0.072 -0.3437  1.0617  0.0470
  129MOL    H8848984   4.047   5.501   0.031  0.5327 -1.1158 -0.0428
  129MOL    H8948985   4.300   5.455   7.633 -0.0733 -1.3879 -0.7047
  129MOL    H9048986   4.147   5.372   7.603 -0.0676  0.9979 -0.9097
  129MOL    H9148987   4.275   5.178   0.030  0.3717  0.4127 -0.4321
  129MOL    H9248988   4.362   5.299   0.123  0.4718 -1.1905  0.9048
  129MOL    H9348989   4.082   5.235   0.142  1.2215 -0.8625 -1.2208
  129MOL    H9448990   4.206   5.226   0.274 -1.8684  0.8418  1.2071
  129MOL    H9548991   3.916   5.311   0.280 -0.0168 -0.0838  2.3663
  129MOL    H9648992   3.876   5.468   0.190  1.2332 -1.7477 -1.1208
  129MOL    C9748993   3.789   5.453   0.384 -0.0147 -0.4281  0.0961
  129MOL    C9848994   3.662   5.369   0.343 -0.2939  0.1471 -0.2315
  129MOL    C9948995   3.593   5.384   0.206 -0.2691  0.3301 -0.9184
  129MOL   C10048996   3.521   5.250   0.193  0.4128  0.6127  0.1094
  129MOL   C10148997   3.545   5.163   0.322  0.4437 -0.1403  0.2074
  129MOL   C10248998   3.683   5.219   0.368  0.3372 -0.6383 -0.2712
  129MOL   C10348999   3.777   5.613   0.377  0.7995 -0.2441  0.2536
  129MOL   H10449000   3.815   5.432   0.487  0.5987 -0.2994 -0.0275
  129MOL   H10549001   3.584   5.399   0.413 -0.9467  0.5919 -1.1444
  129MOL   H10649002   3.529   5.472   0.200 -0.3728  0.3741  0.6439
  129MOL   H10749003   3.659   5.403   0.121 -1.0708  1.7921 -1.2328
  129MOL   H10849004   3.557   5.196   0.106 -2.1696 -1.8381  0.4711
  129MOL   H10949005   3.415   5.266   0.172 -0.1138 -1.6367  0.8636
  129MOL   H11049006   3.531   5.056   0.307  1.0609 -0.2270  0.2341
  129MOL   H11149007   3.476   5.184   0.404 -0.8747  0.1329 -0.9469
  129MOL   H11249008   3.710   5.200   0.472 -0.1504  1.3422  0.2376
  129MOL   H11349009   3.752   5.168   0.301 -1.1050 -3.1311  0.0624
  129MOL   H11449010   3.875   5.661   0.367  0.6975 -0.2289 -0.6791
  129MOL   H11549011   3.737   5.636   0.278  2.5571  0.9439 -0.2072
  129MOL   C11649012   3.702   5.672   0.501  0.1826 -0.4822 -0.6907
  129MOL   C11749013   3.786   5.659   0.636 -0.7630  0.3197  0.1279
  129MOL   C11849014   3.909   5.755   0.644 -0.0677 -0.4189 -0.3167
  129MOL   C11949015   3.958   5.736   0.793  0.0577 -0.8348 -0.3061
  129MOL   C12049016   3.824   5.732   0.865  0.6787  0.5786  0.1255
  129MOL   C12149017   3.715   5.682   0.768  0.5073  0.3949 -0.1178
  129MOL   C12249018   3.645   5.816   0.474 -0.1891 -0.4350 -0.5194
  129MOL   H12349019   3.607   5.617   0.506 -0.4367  0.8089  2.9418
  129MOL   H12449020   3.825   5.558   0.651  0.7934  0.8962  0.0291
  129MOL   H12549021   3.983   5.720   0.572  0.6144 -0.2939  0.3160
  129MOL   H12649022   3.878   5.858   0.624 -0.9452 -0.2563  1.6759
  129MOL   H12749023   4.019   5.812   0.841  0.9279  0.3540 -3.2140
  129MOL   H12849024   4.016   5.644   0.801  0.8335 -0.2515  0.7062
  129MOL   H12949025   3.802   5.836   0.890 -1.2050  0.2472 -0.0292
  129MOL   H13049026   3.821   5.677   0.959 -1.2623  0.2505 -0.0984
  129MOL   H13149027   3.665   5.595   0.809 -2.4274  3.0621  2.2704
  129MOL   H13249028   3.633   5.754   0.767 -0.8584 -1.0842  2.0286
  129MOL   H13349029   3.727   5.875   0.432  0.3171 -0.7203  0.0503
  129MOL   H13449030   3.627   5.869   0.567  1.8222  0.1646 -0.4404
  129MOL   C13549031   3.504   5.827   0.405 -0.3442 -0.5870  0.6798
  129MOL   C13649032   3.503   5.919   0.278  0.2948 -0.1690 -0.3280
  129MOL   C13749033   3.595   5.876   0.162 -0.2717  0.2433 -0.3143
  129MOL   C13849034   3.613   5.996   0.071 -0.1523  0.3758  0.0315
  129MOL   C13949035   3.615   6.108   0.173  0.3047 -0.0861  0.1402
  129MOL   C14049036   3.558   6.062   0.303  1.4035 -0.1117 -1.0057
  129MOL   C14149037   3.383   5.847   0.503  0.2761  0.0833  0.4601
  129MOL   H14249038   3.480   5.738   0.346  0.2691  0.2439 -0.8585
  129MOL   H14349039   3.403   5.934   0.237 -0.3232  0.9702  1.5229
  129MOL   H14449040   3.690   5.836   0.198 -0.2230 -1.2862 -2.0509
  129MOL   H14549041   3.560   5.784   0.114 -0.7061  1.1892 -1.8614
  129MOL   H14649042   3.522   6.002   0.011 -0.4882  0.4236  0.5476
  129MOL   H14749043   3.701   5.985   0.008 -0.0053 -1.3307  0.5079
  129MOL   H14849044   3.553   6.194   0.149 -1.6270 -0.6891  2.7334
  129MOL   H14949045   3.712   6.156   0.182  0.6437 -1.1400  2.4991
  129MOL   H15049046   3.631   6.053   0.383  0.4274 -0.0232 -0.0858
  129MOL   H15149047   3.482   6.119   0.357 -1.1567 -1.0889 -3.4623
  129MOL   H15249048   3.290   5.874   0.453  0.4188 -0.7724 -0.2647
  129MOL   H15349049   3.405   5.945   0.547  2.9249 -0.3863  0.2400
  129MOL   C15449050   3.327   5.732   0.596  0.1798 -0.2468  0.1540
  129MOL   C15549051   3.238   5.787   0.711 -0.3562  0.2063  0.1980
  129MOL   C15649052   3.114   5.871   0.669  0.5114  0.0443  0.1314
  129MOL   C15749053   3.164   6.013   0.679 -0.6721 -0.1666  0.4577
  129MOL   C15849054   3.265   6.017   0.786 -0.0930  0.5729  0.1862
  129MOL   C15949055   3.317   5.876   0.814 -0.2711 -0.1093 -0.2055
  129MOL   C16049056   3.264   5.617   0.517  0.6872 -0.3973  0.4165
  129MOL   H16149057   3.411   5.690   0.650  0.5581  0.1609 -0.1107
  129MOL   H16249058   3.204   5.697   0.762 -0.3727 -1.2579 -2.3192
  129MOL   H16349059   3.075   5.839   0.572 -0.4236 -1.2245  0.9164
  129MOL   H16449060   3.030   5.854   0.735  1.1543 -1.3799  0.6026
  129MOL   H16549061   3.211   6.058   0.591  1.2101 -0.0324  1.4875
  129MOL   H16649062   3.080   6.079   0.701 -0.1827  0.2740  1.0260
  129MOL   H16749063   3.231   6.037   0.888  1.0283 -0.0349  0.6805
  129MOL   H16849064   3.348   6.082   0.758 -0.9084  1.1788 -0.8954
  129MOL   H16949065   3.288   5.833   0.910 -0.9313  0.2093 -0.2609
  129MOL   H17049066   3.420   5.846   0.796  0.4960  1.8162  0.8254
  129MOL   H17149067   3.327   5.574   0.439 -0.5793 -0.8484 -0.3788
  129MOL   H17249068   3.181   5.669   0.471  1.0122 -1.1141 -1.0103
  129MOL   C17349069   3.206   5.492   0.589 -0.2638 -0.2399 -0.2340
  129MOL   C17449070   3.307   5.385   0.618 -0.6220  0.0267 -0.3937
  129MOL   C17549071   3.251   5.278   0.718 -0.2979 -0.3334 -0.0544
  129MOL   C17649072   3.377   5.233   0.805  0.0569  0.6153 -0.0306
  129MOL   C17749073   3.493   5.305   0.746 -0.6478  0.3693  0.0608
  129MOL   C17849074   3.437   5.423   0.685  0.6758  0.7493 -0.2290
  129MOL   C17949075   3.091   5.429   0.517  0.7284 -0.0176  0.2656
  129MOL   H18049076   3.150   5.508   0.681 -1.6508 -0.1360 -1.0851
  129MOL   H18149077   3.328   5.323   0.530 -1.5321  0.5657 -0.9957
  129MOL   H18249078   3.204   5.189   0.676 -0.4719 -0.6264  0.7588
  129MOL   H18349079   3.173   5.313   0.785 -1.6546 -0.7002 -1.4287
  129MOL   H18449080   3.364   5.257   0.911  0.7902  0.2886  0.1397
  129MOL   H18549081   3.386   5.126   0.788  0.3995  0.7499 -0.6858
  129MOL   H18649082   3.548   5.247   0.672  0.3089  1.9933 -0.5394
  129MOL   H18749083   3.566   5.336   0.821 -0.2371 -1.2292  0.3461
  129MOL   H18849084   3.412   5.499   0.759 -1.6965 -0.9843  0.8261
  129MOL   H18949085   3.514   5.475   0.627  0.1910  0.7529 -0.8777
  129MOL   H19049086   3.134   5.393   0.423  0.9954  2.7935 -0.7431
  129MOL   H19149087   3.041   5.346   0.566 -1.6120  1.1901  0.0430
  129MOL   C19249088   2.962   5.512   0.492  0.4070  0.0054 -0.1737
  129MOL   C19349089   2.909   5.574   0.625 -0.8289  0.3805  0.6191
  129MOL   C19449090   2.861   5.464   0.722  0.3233 -0.2503 -0.2448
  129MOL   C19549091   2.779   5.544   0.818  0.0193  0.1711 -0.4115
  129MOL   C19649092   2.704   5.640   0.726 -0.3657 -0.0330  0.6274
  129MOL   C19749093   2.794   5.670   0.606  0.5904  0.2126  0.2931
  129MOL   C19849094   2.856   5.426   0.418  0.4699 -0.6293 -0.9210
  129MOL   H19949095   2.982   5.599   0.429  0.6177 -0.3525 -0.6027
  129MOL   H20049096   2.980   5.638   0.677 -0.1435 -1.5789  2.1525
  129MOL   H20149097   2.940   5.401   0.764  1.9293  1.0756 -1.2612
  129MOL   H20249098   2.794   5.392   0.674 -0.0808 -1.3638  1.8835
  129MOL   H20349099   2.711   5.484   0.879 -2.0914  1.7592 -1.1369
  129MOL   H20449100   2.840   5.605   0.885 -1.7877  2.0623 -0.4224
  129MOL   H20549101   2.678   5.732   0.779 -1.0269 -1.9441  3.7331
  129MOL   H20649102   2.620   5.587   0.680  0.1365  0.0310 -0.3784
  129MOL   H20749103   2.823   5.774   0.619 -0.7658  0.8056 -1.2693
  129MOL   H20849104   2.744   5.664   0.509  1.2988  1.1346 -0.1255
  129MOL   H20949105   2.857   5.323   0.454  1.3456  0.3201  1.9256
  129MOL   H21049106   2.757   5.458   0.451  1.1349  0.6822 -0.1608
  129MOL   C21149107   2.869   5.425   0.261 -0.0857 -0.2105 -0.0039
  129MOL   C21249108   2.801   5.301   0.193 -0.6174  0.0589 -0.4381
  129MOL   C21349109   2.871   5.160   0.209  0.2770  0.4789  0.7720
  129MOL   C21449110   2.764   5.050   0.197  0.6585 -0.4801 -0.1202
  129MOL   C21549111   2.633   5.126   0.159  0.9741  0.2432 -0.0582
  129MOL   C21649112   2.655   5.270   0.215 -0.2045  0.1161 -0.6077
  129MOL   C21749113   2.818   5.558   0.200 -0.3033  0.2720 -0.6559
  129MOL   H21849114   2.975   5.425   0.240 -0.0576 -0.3565  0.1295
  129MOL   H21949115   2.813   5.328   0.087  1.2036  2.4430  0.3108
  129MOL   H22049116   2.954   5.147   0.141 -1.5875 -0.5404 -1.3807
  129MOL   H22149117   2.922   5.145   0.304 -3.6996 -2.0934  2.6598
  129MOL   H22249118   2.788   4.964   0.135 -3.3064 -1.6214 -0.2194
  129MOL   H22349119   2.746   5.012   0.297  1.0593 -0.5143 -0.0594
  129MOL   H22449120   2.543   5.069   0.183  0.0488  1.3668 -0.7532
  129MOL   H22549121   2.636   5.139   0.050  1.2123  0.4362 -0.0296
  129MOL   H22649122   2.591   5.347   0.172  0.1638  0.4012 -0.6398
  129MOL   H22749123   2.630   5.284   0.321 -1.0966  0.0141 -0.7939
  129MOL   H22849124   2.831   5.642   0.267  0.1062  0.7760 -1.3639
  129MOL   H22949125   2.710   5.542   0.198 -0.2878 -0.2728  1.7218
  129MOL   C23049126   2.884   5.603   0.067 -0.2796 -0.0890 -0.3827
  129MOL   C23149127   3.014   5.690   0.096  0.0485  0.9456 -0.4449
  129MOL   C23249128   3.144   5.609   0.102  0.4992  0.3374 -0.0014
  129MOL   C23349129   3.253   5.716   0.081  0.2766  0.2575 -0.0074
  129MOL   C23449130   3.196   5.811   7.672 -0.3015 -0.2806  0.8755
  129MOL   C23549131   3.048   5.793   7.684  0.0729  0.2846 -0.2992
  129MOL   C23649132   2.767   5.671   7.671  0.4287  0.5577 -0.1729
  129MOL   H23749133   2.923   5.521   0.007  1.7941  0.8432 -0.3179
  129MOL   H23849134   2.998   5.741   0.191  1.0511  0.6449 -0.1168
  129MOL   H23949135   3.171   5.555   0.193 -1.8347 -0.1056  0.4558
  129MOL   H24049136   3.149   5.546   0.013  0.2336  1.1789 -0.6291
  129MOL   H24149137   3.285   5.779   0.164  1.3117 -1.0768  0.6166
  129MOL   H24249138   3.338   5.664   0.036  1.1553  0.6735  1.1586
  129MOL   H24349139   3.218   5.776   7.572 -2.2268  0.0688  0.3066
  129MOL   H24449140   3.228   5.915   7.675 -0.3425 -0.1771 -1.6295
  129MOL   H24549141   3.009   5.763   7.587 -2.5973  1.3959  0.3889
  129MOL   H24649142   2.996   5.888   0.011 -0.8802 -0.2337 -0.2951
  129MOL   H24749143   2.803   5.748   7.602 -2.0232  1.7662 -0.1714
  129MOL   H24849144   2.721   5.738   0.054 -0.6138 -0.2090 -0.1096
  129MOL   C24949145   2.664   5.567   7.610  0.2307 -0.2250  0.3570
  129MOL   C25049146   2.736   5.481   7.503  0.6116  0.1460  0.2625
  129MOL   C25149147   2.796   5.560   7.384 -0.0335  1.0230  0.3290
  129MOL   C25249148   2.841   5.449   7.293 -0.8444 -0.3760  0.1524
  129MOL   C25349149   2.719   5.360   7.292 -0.1378 -0.5955 -0.9351
  129MOL   C25449150   2.657   5.360   7.434  0.0946 -0.4317 -0.3840
  129MOL   C25549151   2.537   5.638   7.555  0.4450 -0.1490  0.0854
  129MOL   H25649152   2.627   5.498   7.686  0.0797 -1.2264 -0.6044
  129MOL   H25749153   2.823   5.430   7.543 -0.0330 -2.2356 -1.2400
  129MOL   H25849154   2.880   5.627   7.404  2.7197 -1.3902 -2.4770
  129MOL   H25949155   2.712   5.615   7.340 -2.3749 -1.1919  1.9270
  129MOL   H26049156   2.921   5.384   7.328  2.6008  2.4193 -2.1816
  129MOL   H26149157   2.866   5.482   7.192  1.4235 -0.6634  0.5874
  129MOL   H26249158   2.738   5.264   7.245 -0.0328 -0.2317 -1.6388
  129MOL   H26349159   2.643   5.411   7.232  0.3845  1.1722 -0.1177
  129MOL   H26449160   2.669   5.266   7.489 -1.0112 -0.7361 -0.6553
  129MOL   H26549161   2.552   5.387   7.427  0.0439  0.1417  2.0802
  129MOL   H26649162   2.567   5.722   7.492 -0.3263 -0.0289 -0.1321
  129MOL   H26749163   2.484   5.592   7.472 -1.7195  3.0290 -0.4173
  129MOL   C26849164   2.438   5.683   7.664 -0.0502  0.1096 -0.3485
  129MOL   C26949165   2.308   5.609   7.665 -0.2018 -0.2211 -0.0384
  129MOL   C27049166   2.322   5.459   7.650  0.3908  0.1972  0.3190
  129MOL   C27149167   2.205   5.416   7.562 -0.1037 -0.8382 -0.5770
  129MOL   C27249168   2.120   5.539   7.542  0.4036  0.1739 -0.4476
  129MOL   C27349169   2.214   5.652   7.553  0.1307  0.6119  0.1702
  129MOL   C27449170   2.431   5.839   7.667 -0.4715 -0.3638 -0.0896
  129MOL   H27549171   2.485   5.641   0.063  1.2663 -0.0483 -1.1074
  129MOL   H27649172   2.259   5.626   0.071 -1.2483  0.7949 -0.7441
  129MOL   H27749173   2.415   5.422   7.607  0.6293  0.6962  0.4025
  129MOL   H27849174   2.322   5.408   0.057  1.1745 -1.6848 -0.6345
  129MOL   H27949175   2.253   5.381   7.471 -0.3995 -0.1497 -1.0085
  129MOL   H28049176   2.150   5.333   7.606  1.1630 -1.1656  0.3925
  129MOL   H28149177   2.043   5.552   7.619  2.4420 -1.1657  1.8906
  129MOL   H28249178   2.072   5.548   7.445  0.5903  0.3563 -0.5223
  129MOL   H28349179   2.158   5.745   7.562 -1.0946  0.0578 -1.5279
  129MOL   H28449180   2.267   5.654   7.458  0.3622 -2.1554  0.2119
  129MOL   H28549181   2.409   5.870   7.565  1.4621 -0.6522 -0.6191
  129MOL   H28649182   2.526   5.885   0.002 -0.5804  2.0117 -3.7333
  129MOL   C28749183   2.332   5.898   0.078  0.1781  0.0020  0.7435
  129MOL   C28849184   2.379   5.878   0.225 -0.2905  0.3413  0.0777
  129MOL   C28949185   2.484   5.981   0.270  0.7751 -0.6389  0.4782
  129MOL   C29049186   2.494   5.960   0.423  0.3456 -0.8177 -0.1571
  129MOL   C29149187   2.351   5.917   0.466 -0.6366  0.1170  0.0111
  129MOL   C29249188   2.270   5.895   0.337  0.1555 -0.3758 -0.5686
  129MOL   C29349189   2.312   6.056   0.050 -0.1736  0.1621  0.0248
  129MOL   H29449190   2.231   5.857   0.080 -0.0357  0.5036  0.1635
  129MOL   H29549191   2.408   5.774   0.239 -0.8926 -0.0586 -1.5124
  129MOL   H29649192   2.577   5.976   0.214  0.5219 -0.1457  0.0020
  129MOL   H29749193   2.450   6.083   0.250  0.1927 -0.7885  0.7134
  129MOL   H29849194   2.557   5.873   0.439 -0.3990 -1.5006 -0.9094
  129MOL   H29949195   2.539   6.044   0.476 -0.0356 -1.5415  1.3716
  129MOL   H30049196   2.304   5.987   0.535  1.5109  0.6171  1.0099
  129MOL   H30149197   2.365   5.822   0.517  0.0903  1.4557  2.3854
  129MOL   H30249198   2.205   5.981   0.320  0.8658 -0.0532 -1.6424
  129MOL   H30349199   2.201   5.810   0.339 -0.5400  0.1338 -2.2521
  129MOL   H30449200   2.408   6.103   0.030  0.9270 -1.1482  2.1190
  129MOL   H30549201   2.278   6.109   0.140  1.0491  0.2416  0.4478
  129MOL   C30649202   2.209   6.101   7.632 -0.7478  0.3725 -0.5269
  129MOL   C30749203   2.062   6.063   7.675  0.1151  0.5545  0.3633
  129MOL   C30849204   2.007   6.163   0.082 -0.0812 -0.0777 -0.8631
  129MOL   C30949205   1.857   6.131   0.082 -0.1230 -0.5835  0.2046
  129MOL   C31049206   1.831   6.059   7.636 -0.4903  0.1607  0.0331
  129MOL   C31149207   1.957   6.049   7.554 -0.5994  0.3202 -0.0600
  129MOL   C31249208   2.219   6.249   7.580  0.1751  0.3473 -0.1192
  129MOL   H31349209   2.223   6.036   7.546  0.2492  0.4408 -0.4214
  129MOL   H31449210   2.074   5.969   0.040 -0.5133  0.2819  0.0330
  129MOL   H31549211   2.020   6.266   0.050  0.0306 -0.7199 -2.9658
  129MOL   H31649212   2.053   6.151   0.180  1.2569 -0.6237 -1.5449
  129MOL   H31749213   1.815   6.083   0.171  0.5777 -1.0604  0.2789
  129MOL   H31849214   1.793   6.219   0.090  0.3201 -0.2247 -0.1326
  129MOL   H31949215   1.754   6.103   7.573 -2.5822 -0.5104  2.0776
  129MOL   H32049216   1.799   5.955   7.643 -1.0640  0.3313 -0.0028
  129MOL   H32149217   1.966   5.951   7.506 -1.9983  0.7102 -1.1420
  129MOL   H32249218   1.960   6.121   7.472 -1.0626  0.3726 -0.0280
  129MOL   H32349219   2.229   6.297   7.678  3.0031 -2.1257  0.9038
  129MOL   H32449220   2.127   6.274   7.528  1.0366  0.3225 -1.7031
  129MOL   C32549221   2.341   6.295   7.499  0.4871  0.1175  0.4179
  129MOL   C32649222   2.360   6.446   7.531 -0.1800  0.0680 -0.3903
  129MOL   C32749223   2.425   6.472   7.666 -0.3281 -0.8885  0.0348
  129MOL   C32849224   2.324   6.546   0.058  0.2047  0.0955 -0.0763
  129MOL   C32949225   2.258   6.633   7.648  0.4627 -0.2549  0.2198
  129MOL   C33049226   2.239   6.542   7.525 -0.1502  0.1772 -0.8670
  129MOL   C33149227   2.325   6.262   7.353 -0.1057  0.0098 -0.1648
  129MOL   H33249228   2.435   6.250   7.530  0.2409 -0.4006  0.4213
  129MOL   H33349229   2.433   6.495   7.467  0.1058 -0.5596 -0.5527
  129MOL   H33449230   2.517   6.530   7.666 -1.5576  1.1289 -1.4002
  129MOL   H33549231   2.434   6.379   0.032  1.3048 -0.6749  0.1418
  129MOL   H33649232   2.371   6.613   0.130  0.0291 -2.2662  2.3322
  129MOL   H33749233   2.256   6.476   0.106 -0.6226  0.3637 -0.8554
  129MOL   H33849234   2.321   6.716   7.618 -0.3731  0.8040  1.3403
  129MOL   H33949235   2.160   6.676   7.668  1.2490  0.9291  1.5950
  129MOL   H34049236   2.236   6.607   7.437  1.1804  0.6872 -0.5578
  129MOL   H34149237   2.152   6.477   7.521 -0.5453  0.7317 -1.4086
  129MOL   H34249238   2.253   6.333   7.312 -0.5887 -0.3641  0.0348
  129MOL   H34349239   2.278   6.165   7.341 -0.7811  0.4969 -1.5472
  129MOL   C34449240   2.456   6.274   7.273 -0.0087  0.4819 -0.0020
  129MOL   C34549241   2.442   6.323   7.129 -0.8529  0.0879 -0.1379
  129MOL   C34649242   2.407   6.470   7.100  0.2089 -0.2146 -0.4012
  129MOL   C34749243   2.297   6.469   6.985  0.3512 -0.3090  0.5423
  129MOL   C34849244   2.296   6.332   6.932  0.0345  0.3440 -0.6015
  129MOL   C34949245   2.341   6.238   7.049 -0.4510  0.7302 -0.0758
  129MOL   C35049246   2.528   6.144   7.282  0.3095  0.1806  0.0713
  129MOL   H35149247   2.517   6.347   7.325  0.2449 -0.6305  1.2948
  129MOL   H35249248   2.538   6.302   7.081  0.3243  0.0256  2.1968
  129MOL   H35349249   2.499   6.523   7.076 -0.6702  0.6273 -1.9739
  129MOL   H35449250   2.372   6.526   7.186 -0.6344 -0.5408 -0.5287
  129MOL   H35549251   2.201   6.498   7.027 -0.0182  1.7053 -1.6089
  129MOL   H35649252   2.327   6.549   6.917 -0.8345  0.5218  0.9834
  129MOL   H35749253   2.379   6.333   6.862  0.7745 -2.0322  0.1901
  129MOL   H35849254   2.204   6.309   6.878 -1.7489  1.7210  1.7582
  129MOL   H35949255   2.247   6.214   7.099  1.4149  0.3336  3.3820
  129MOL   H36049256   2.388   6.148   7.009 -0.8204  1.0297 -1.2082
  129MOL   H36149257   2.508   6.096   7.186  0.4917  0.6880 -0.2196
  129MOL   H36249258   2.487   6.076   7.357  3.0343  0.6881  2.0724
  129MOL   C36349259   2.682   6.158   7.301  0.4678  0.1629 -0.4395
  129MOL   C36449260   2.719   6.185   7.449 -0.5899 -0.1138  0.3580
  129MOL   C36549261   2.871   6.199   7.469  0.7376 -0.0849 -0.1329
  129MOL   C36649262   2.894   6.189   7.627 -0.1359 -0.2599  0.4326
  129MOL   C36749263   2.757   6.127   7.677 -0.1523 -0.4844  0.0307
  129MOL   C36849264   2.688   6.078   7.555 -0.3909 -1.0346 -0.0645
  129MOL   C36949265   2.758   6.041   7.233  0.2236 -0.0364  0.1284
  129MOL   H37049266   2.714   6.247   7.247  3.1326 -1.7238 -2.0631
  129MOL   H37149267   2.666   6.273   7.485 -0.4770  0.3319 -0.5715
  129MOL   H37249268   2.924   6.121   7.414 -0.6757 -3.0197  2.4903
  129MOL   H37349269   2.910   6.291   7.426 -0.2061 -0.1099 -1.0634
  129MOL   H37449270   2.967   6.108   7.635  0.3275  0.3330  2.4722
  129MOL   H37549271   2.911   6.290   7.664 -0.3473 -0.1130  0.1324
  129MOL   H37649272   2.772   6.050   0.063 -2.0694 -0.0449  0.8836
  129MOL   H37749273   2.698   6.198   0.045 -1.0234 -0.3925 -0.9573
  129MOL   H37849274   2.580   6.069   7.566 -0.5950  1.6104  0.3898
  129MOL   H37949275   2.720   5.980   7.519 -2.7218 -2.0597  0.5554
  129MOL   H38049276   2.754   5.958   7.304  2.6998  0.2249  0.6181
  129MOL   H38149277   2.866   6.048   7.218  0.2135 -0.4724 -0.1641
  129MOL   H38249278   2.722   6.009   7.135 -0.1282  0.3797  0.1240
  130MOL     C149279   1.487   2.834   6.662  0.3416 -1.0401 -0.3457
  130MOL     C249280   1.596   2.868   6.768  0.3863  0.1022  0.3062
  130MOL     C349281   1.735   2.859   6.715 -0.2340 -0.4825 -0.2554
  130MOL     C449282   1.835   2.825   6.829  0.0874 -0.1015 -0.1734
  130MOL     C549283   1.733   2.774   6.937  0.1626 -0.0878 -0.6445
  130MOL     C649284   1.596   2.759   6.873  0.0554 -0.1938 -0.0790
  130MOL     C749285   1.346   2.845   6.732 -0.5613 -0.4114 -0.4143
  130MOL     H849286   1.497   2.909   6.584 -1.2430 -0.2054  0.2139
  130MOL     H949287   1.565   2.960   6.817 -0.7440 -0.1776  0.1295
  130MOL    H1049288   1.723   2.789   6.632 -1.5526 -1.6013  0.8587
  130MOL    H1149289   1.760   2.956   6.673  0.9529  0.5603  2.7188
  130MOL    H1249290   1.914   2.753   6.809  2.2054  1.8627  0.7991
  130MOL    H1349291   1.886   2.920   6.846  0.0622  0.1597 -1.4977
  130MOL    H1449292   1.760   2.688   6.998 -0.4566 -0.6774 -1.1917
  130MOL    H1549293   1.720   2.861   7.002  2.5765 -0.7272  0.7471
  130MOL    H1649294   1.514   2.767   6.944  0.8947  2.4888  0.6154
  130MOL    H1749295   1.589   2.654   6.843 -0.3705  0.1515 -1.2200
  130MOL    H1849296   1.332   2.788   6.824 -1.3148 -1.3379 -1.0897
  130MOL    H1949297   1.345   2.949   6.764  2.7913 -0.7065  0.8129
  130MOL    H2049298   1.510   2.737   6.620  1.2994 -0.7315 -0.5388
  130MOL    C2149299   1.231   2.829   6.630 -0.5747  0.4082 -0.3942
  130MOL    C2249300   1.240   2.920   6.500  0.1193 -0.3030 -0.0893
  130MOL    C2349301   1.249   3.075   6.526  0.2064  0.1163  0.2976
  130MOL    C2449302   1.147   3.142   6.438  0.7874  0.0042 -0.3414
  130MOL    C2549303   1.120   3.047   6.323  0.2520 -0.0467 -0.8090
  130MOL    C2649304   1.115   2.918   6.409  0.0502  0.7329 -0.8257
  130MOL    C2749305   1.213   2.681   6.597 -0.2876  0.0738 -0.2404
  130MOL    H2849306   1.139   2.865   6.676 -1.8915 -0.6182 -2.1548
  130MOL    H2949307   1.316   2.883   6.432  0.1588  0.4264 -0.4480
  130MOL    H3049308   1.354   3.101   6.534  0.4089  0.0172 -1.7316
  130MOL    H3149309   1.218   3.088   6.630 -2.4374 -0.6445 -0.3607
  130MOL    H3249310   1.058   3.164   6.497 -0.5024  0.0987 -2.2878
  130MOL    H3349311   1.178   3.242   6.409  1.2493 -0.1898 -0.5347
  130MOL    H3449312   1.210   3.055   6.262  2.8245  1.1327  2.9477
  130MOL    H3549313   1.027   3.067   6.270  0.3372 -1.4465 -1.5058
  130MOL    H3649314   1.104   2.831   6.345  0.8700 -0.0461  0.0868
  130MOL    H3749315   1.026   2.910   6.471 -0.3191  3.2403 -0.9579
  130MOL    H3849316   1.132   2.675   6.524 -0.8318 -0.7952  0.4419
  130MOL    H3949317   1.309   2.647   6.559  0.2971  0.3209  0.9943
  130MOL    C4049318   1.160   2.588   6.713  0.2071 -0.4218 -0.0562
  130MOL    C4149319   1.002   2.579   6.726 -0.5349 -0.7963 -0.4683
  130MOL    C4249320   0.936   2.488   6.619 -0.4278  0.1485 -0.0784
  130MOL    C4349321   0.792   2.536   6.604  0.8004 -0.3381 -0.7329
  130MOL    C4449322   0.779   2.659   6.700 -0.0629  0.3698 -0.5360
  130MOL    C4549323   0.921   2.710   6.727  0.9240 -0.3602 -0.2609
  130MOL    C4649324   1.224   2.452   6.694 -0.1276  0.3708 -0.2953
  130MOL    H4749325   1.191   2.635   6.806 -0.9244 -0.7528  0.5012
  130MOL    H4849326   0.979   2.529   6.820  1.1972 -1.9051 -0.6109
  130MOL    H4949327   0.939   2.380   6.635 -0.8782  0.0297 -0.8002
  130MOL    H5049328   0.985   2.498   6.523 -1.2910 -0.3715 -0.5844
  130MOL    H5149329   0.713   2.464   6.625 -0.0489  0.7025 -0.3116
  130MOL    H5249330   0.763   2.567   6.503  1.5862  0.2198 -0.7887
  130MOL    H5349331   0.702   2.729   6.666 -1.9169 -1.0251  0.6892
  130MOL    H5449332   0.740   2.610   6.789  0.2902  0.6439 -0.2282
  130MOL    H5549333   0.942   2.764   6.635  0.6818  2.2493  1.1755
  130MOL    H5649334   0.926   2.785   6.806  0.6098  0.5239 -1.0652
  130MOL    H5749335   1.181   2.408   6.604 -0.2439 -1.2179  0.5155
  130MOL    H5849336   1.333   2.450   6.687 -0.2040 -1.1617 -1.5351
  130MOL    C5949337   1.207   2.345   6.804  0.4970  0.3404 -0.3598
  130MOL    C6049338   1.222   2.194   6.761 -0.4162 -0.6390  0.2091
  130MOL    C6149339   1.344   2.152   6.686 -0.7081  0.8694  0.3271
  130MOL    C6249340   1.313   2.007   6.648 -0.3628  0.3658  0.0262
  130MOL    C6349341   1.157   1.998   6.637  0.4596  0.0340  0.0624
  130MOL    C6449342   1.111   2.135   6.679  0.6209  0.2606 -0.1848
  130MOL    C6549343   1.313   2.376   6.918 -0.6009  0.4559  0.3736
  130MOL    H6649344   1.107   2.353   6.847 -0.0985  0.1683 -1.7069
  130MOL    H6749345   1.226   2.132   6.851  1.3725 -0.2783  0.4060
  130MOL    H6849346   1.435   2.174   6.742 -1.1921 -0.1420  1.5517
  130MOL    H6949347   1.344   2.219   6.601  2.8164 -0.7737 -1.0429
  130MOL    H7049348   1.344   1.944   6.731 -1.5890 -0.7521 -0.3386
  130MOL    H7149349   1.364   1.973   6.558  0.8243  1.6971  0.1885
  130MOL    H7249350   1.117   1.924   6.706 -0.2233 -1.0670 -1.5074
  130MOL    H7349351   1.118   1.975   6.538 -1.9122  0.0100  0.9689
  130MOL    H7449352   1.088   2.195   6.591 -2.1099  0.1707  0.4272
  130MOL    H7549353   1.021   2.131   6.740 -1.1414  0.5337 -2.7181
  130MOL    H7649354   1.306   2.482   6.942  2.6505  0.9310 -0.4349
  130MOL    H7749355   1.416   2.371   6.881 -0.5315  0.1593  0.5998
  130MOL    C7849356   1.298   2.308   7.060 -0.4350 -0.1168  0.1289
  130MOL    C7949357   1.431   2.313   7.141  0.3423  0.0830  0.6140
  130MOL    C8049358   1.497   2.454   7.162 -0.2023 -0.2573 -0.1870
  130MOL    C8149359   1.650   2.430   7.156  0.2387  0.2371 -0.4111
  130MOL    C8249360   1.663   2.318   7.053 -0.0656 -0.5316  0.6158
  130MOL    C8349361   1.534   2.229   7.074 -0.3537 -0.7686 -0.1069
  130MOL    C8449362   1.183   2.372   7.135 -0.0966 -0.1087 -0.7545
  130MOL    H8549363   1.282   2.202   7.045  1.9678 -0.7092  1.4696
  130MOL    H8649364   1.402   2.262   7.232 -2.4571 -0.7116 -0.6778
  130MOL    H8749365   1.474   2.509   7.254 -0.8665 -1.9073  0.6618
  130MOL    H8849366   1.478   2.519   7.077  0.1132  0.9731  0.6769
  130MOL    H8949367   1.683   2.395   7.254 -3.0034 -0.1181  0.6092
  130MOL    H9049368   1.707   2.521   7.137  0.1077  0.5690  0.7535
  130MOL    H9149369   1.673   2.354   6.951  1.5003  1.5807  1.4733
  130MOL    H9249370   1.749   2.255   7.071 -0.3077 -0.5496  1.7486
  130MOL    H9349371   1.502   2.185   6.979  2.1819  3.0693 -2.8477
  130MOL    H9449372   1.568   2.157   7.148  1.8278  1.0227  0.6651
  130MOL    H9549373   1.115   2.440   7.084 -0.0429  0.0482 -0.6158
  130MOL    H9649374   1.227   2.449   7.197 -0.6556 -0.0785 -0.3857
  130MOL    C9749375   1.105   2.260   7.214 -0.4264  0.4243  0.4017
  130MOL    C9849376   1.004   2.202   7.107  0.4550  0.1212  0.1825
  130MOL    C9949377   0.955   2.064   7.145  0.3511  0.2720  0.1024
  130MOL   C10049378   0.847   2.041   7.036  0.0606 -0.3432 -0.1474
  130MOL   C10149379   0.819   2.184   6.968  0.1333 -0.2445 -0.1956
  130MOL   C10249380   0.877   2.285   7.064 -0.4421  0.0741  0.1571
  130MOL   C10349381   1.034   2.307   7.335  0.2636 -0.2587  0.2004
  130MOL   H10449382   1.180   2.185   7.237 -1.4542 -0.8188 -0.2559
  130MOL   H10549383   1.069   2.177   7.023 -0.8227  1.1155 -1.1211
  130MOL   H10649384   1.026   1.981   7.142  0.4333  0.3628 -0.6267
  130MOL   H10749385   0.913   2.078   7.244  1.6588  0.6639  0.6165
  130MOL   H10849386   0.753   2.007   7.080  0.0699  2.2348  2.0205
  130MOL   H10949387   0.867   1.965   6.961  0.5879  0.4453 -0.8212
  130MOL   H11049388   0.721   2.221   6.935  0.3429  2.2958  1.8102
  130MOL   H11149389   0.867   2.190   6.871  0.2336 -1.7050 -0.2475
  130MOL   H11249390   0.901   2.382   7.019  5.3268 -1.2506 -0.0298
  130MOL   H11349391   0.805   2.306   7.143 -0.0896 -1.1089  0.8127
  130MOL   H11449392   1.038   2.415   7.323  0.0177 -0.0569  1.7858
  130MOL   H11549393   0.933   2.265   7.329  0.8359 -1.7146  0.6451
  130MOL   C11649394   1.092   2.254   7.469 -0.2024  0.0664 -0.2739
  130MOL   C11749395   1.224   2.320   7.502 -0.0315 -0.3187  0.0278
  130MOL   C11849396   1.237   2.472   7.514 -0.3237 -0.3292 -0.0049
  130MOL   C11949397   1.365   2.483   7.602 -0.1061  0.1719  0.6545
  130MOL   C12049398   1.433   2.345   7.622 -0.1835  0.3684  0.7462
  130MOL   C12149399   1.316   2.252   7.601 -0.3550  0.3568 -0.4120
  130MOL   C12249400   0.991   2.286   7.576 -0.6472  0.3765 -0.2587
  130MOL   H12349401   1.108   2.147   7.463  3.5144  0.2360  3.9178
  130MOL   H12449402   1.282   2.304   7.411 -1.3218 -0.3490 -0.7921
  130MOL   H12549403   1.261   2.517   7.417  0.4883  2.0681  1.2866
  130MOL   H12649404   1.146   2.510   7.560 -0.0597 -0.1986  0.4076
  130MOL   H12749405   1.331   2.518   0.010  0.6578 -2.3476  1.8532
  130MOL   H12849406   1.431   2.563   7.567  1.2105 -1.4505 -0.6433
  130MOL   H12949407   1.477   2.342   0.032 -1.2126 -0.8425  1.1955
  130MOL   H13049408   1.499   2.333   7.537 -0.0141 -1.3027  1.0861
  130MOL   H13149409   1.342   2.153   7.566 -0.5068  0.8299 -1.8692
  130MOL   H13249410   1.268   2.225   0.006 -0.2377 -1.8384 -0.9648
  130MOL   H13349411   0.940   2.382   7.562  0.0644  1.2485  2.8747
  130MOL   H13449412   1.037   2.313   7.670  1.8337 -1.0125 -1.0283
  130MOL   C13549413   0.884   2.181   7.606  0.5420 -0.7783 -0.1726
  130MOL   C13649414   0.777   2.249   0.002 -0.2010 -0.0386 -0.2038
  130MOL   C13749415   0.665   2.151   0.048  0.5706  1.0820  0.0604
  130MOL   C13849416   0.532   2.224   0.061 -0.2543  0.0131  0.5053
  130MOL   C13949417   0.560   2.367   0.003 -0.0652  0.5510 -0.2597
  130MOL   C14049418   0.692   2.362   7.620  0.1186 -0.7273  0.5950
  130MOL   C14149419   0.945   2.060   7.680 -0.1984  0.4394  0.0093
  130MOL   H14249420   0.834   2.150   7.514  0.8506  1.1523 -1.0326
  130MOL   H14349421   0.820   2.288   0.094 -0.9943  0.5463 -0.0746
  130MOL   H14449422   0.640   2.076   7.663 -1.0767  0.2803  1.3770
  130MOL   H14549423   0.696   2.102   0.140  3.2637  0.6260 -1.0471
  130MOL   H14649424   0.519   2.241   0.167 -0.9945  0.1385  0.3954
  130MOL   H14749425   0.443   2.171   0.027 -0.3435  0.5082 -0.0437
  130MOL   H14849426   0.563   2.441   0.084  0.2423 -2.2238  2.3671
  130MOL   H14949427   0.477   2.393   7.627 -0.3300 -1.7527 -0.8424
  130MOL   H15049428   0.669   2.345   7.514  1.4360 -0.3920  0.2489
  130MOL   H15149429   0.733   2.463   7.623  0.9592 -1.0372 -0.1337
  130MOL   H15249430   0.943   2.066   0.099 -1.2012 -2.6495  0.2070
  130MOL   H15349431   1.054   2.051   7.676 -0.0496  0.5377  2.6677
  130MOL   C15449432   0.911   1.915   7.638  0.2997 -0.3450  0.6196
  130MOL   C15549433   0.968   1.878   7.495 -0.2043  0.7112  0.4026
  130MOL   C15649434   0.878   1.781   7.419 -0.6227 -0.4781 -0.0597
  130MOL   C15749435   0.959   1.714   7.321  0.1098  0.5368  0.6075
  130MOL   C15849436   1.099   1.698   7.383 -0.6013  0.6886  0.2941
  130MOL   C15949437   1.109   1.811   7.494 -0.3700  1.0217 -0.1242
  130MOL   C16049438   0.949   1.805   0.056 -0.6248 -0.0729  0.1803
  130MOL   H16149439   0.802   1.919   7.632  0.4983  0.5332 -3.4940
  130MOL   H16249440   0.981   1.966   7.433 -0.9063  0.5274 -0.0224
  130MOL   H16349441   0.818   1.717   7.483 -0.7043  0.2002  0.5555
  130MOL   H16449442   0.799   1.841   7.372 -0.1873  0.8859  0.9056
  130MOL   H16549443   0.923   1.616   7.289  1.0391 -0.2548  1.9054
  130MOL   H16649444   0.965   1.784   7.238  1.7862 -1.6372 -1.1765
  130MOL   H16749445   1.177   1.706   7.307 -0.8147  0.0765  0.0048
  130MOL   H16849446   1.090   1.598   7.425 -2.0783  0.8129  0.2891
  130MOL   H16949447   1.188   1.881   7.466 -0.9644  1.9315  0.4558
  130MOL   H17049448   1.136   1.762   7.587 -0.6945  2.3815  0.6950
  130MOL   H17149449   1.055   1.828   0.062  0.1250 -2.3101 -3.2959
  130MOL   H17249450   0.942   1.705   0.013 -2.0050 -0.4745  1.2793
  130MOL   C17349451   0.857   1.835   0.186  0.3837  0.0303  0.3126
  130MOL   C17449452   0.935   1.890   0.309  0.1285 -0.5815  0.6294
  130MOL   C17549453   1.001   1.780   0.397  0.0229 -0.7169 -0.2983
  130MOL   C17649454   1.034   1.850   0.535  0.0687 -0.1479  0.0552
  130MOL   C17749455   0.938   1.968   0.543  0.0356  0.0113 -0.2784
  130MOL   C17849456   0.862   1.978   0.408 -0.2171 -0.4609  0.4431
  130MOL   C17949457   0.749   1.720   0.225 -0.6918  0.1524  0.7569
  130MOL   H18049458   0.800   1.926   0.173 -3.4048 -2.1924  0.7380
  130MOL   H18149459   1.016   1.952   0.273  0.7253 -1.6916  0.0437
  130MOL   H18249460   1.087   1.743   0.341  1.1722 -1.6155  1.9559
  130MOL   H18349461   0.934   1.694   0.400  0.4726 -1.1071 -1.2660
  130MOL   H18449462   1.032   1.782   0.620  1.4743 -1.2633 -0.7883
  130MOL   H18549463   1.140   1.872   0.545  0.4608 -2.0299  0.2464
  130MOL   H18649464   1.010   2.049   0.550  0.2316 -0.1874  0.0193
  130MOL   H18749465   0.874   1.970   0.632  1.9712  0.1693  1.1545
  130MOL   H18849466   0.760   1.942   0.417 -0.8132  0.8361 -0.9250
  130MOL   H18949467   0.852   2.081   0.372  1.7963 -0.1795  0.6343
  130MOL   H19049468   0.801   1.625   0.214 -0.8310 -0.0777  1.9297
  130MOL   H19149469   0.721   1.723   0.331  0.4506 -2.6698  1.1876
  130MOL   C19249470   0.616   1.718   0.136  0.1213 -0.3975 -0.3984
  130MOL   C19349471   0.488   1.695   0.226 -0.8639  0.4524  0.3963
  130MOL   C19449472   0.463   1.810   0.326 -0.1980  0.2891 -0.7533
  130MOL   C19549473   0.439   1.745   0.460 -0.0416  0.4150 -0.1968
  130MOL   C19649474   0.392   1.602   0.439  0.2188  0.2704  0.7134
  130MOL   C19749475   0.468   1.564   0.305  1.2886 -0.1667 -0.7856
  130MOL   C19849476   0.625   1.609   0.024 -0.1728 -0.0487  0.5193
  130MOL   H19949477   0.611   1.822   0.105  0.9962  0.1069  1.0789
  130MOL   H20049478   0.399   1.693   0.163 -0.5592 -0.0659 -0.0235
  130MOL   H20149479   0.374   1.869   0.307 -0.4986 -0.1292 -0.6599
  130MOL   H20249480   0.543   1.881   0.345 -1.3765  0.8825  2.3186
  130MOL   H20349481   0.532   1.733   0.515 -0.5250 -1.6805  0.1957
  130MOL   H20449482   0.385   1.805   0.533  1.4977  1.0352  0.4508
  130MOL   H20549483   0.289   1.598   0.404  0.5144 -1.2015 -0.0226
  130MOL   H20649484   0.400   1.527   0.517  0.3330 -1.7335 -1.1649
  130MOL   H20749485   0.414   1.487   0.250  1.7288  1.3669 -3.4923
  130MOL   H20849486   0.566   1.525   0.332  1.2826  1.8067  2.2763
  130MOL   H20949487   0.723   1.604   7.667 -0.4956  1.1871 -0.3084
  130MOL   H21049488   0.623   1.517   0.082  0.3086 -2.0015 -2.4404
  130MOL   C21149489   0.519   1.611   7.605  0.0949 -0.1891 -0.0390
  130MOL   C21249490   0.506   1.745   7.528  0.3178 -0.1476 -0.4608
  130MOL   C21349491   0.465   1.742   7.381 -0.0551  0.1960 -0.0170
  130MOL   C21449492   0.396   1.880   7.355 -0.4473 -0.2258  0.1492
  130MOL   C21549493   0.380   1.948   7.486  0.3147  0.7411 -0.7879
  130MOL   C21649494   0.399   1.835   7.589  0.7312 -0.0170  0.3671
  130MOL   C21749495   0.559   1.481   7.513 -0.2356 -0.1878  0.1337
  130MOL   H21849496   0.418   1.587   7.637  0.7825 -0.5865  1.8996
  130MOL   H21949497   0.598   1.802   7.540  0.6478 -0.2039 -2.5018
  130MOL   H22049498   0.538   1.720   7.303 -0.6009 -0.1731 -0.4251
  130MOL   H22149499   0.384   1.669   7.376  0.6088 -0.7784  2.8491
  130MOL   H22249500   0.454   1.950   7.294  0.1194  0.0422  0.9763
  130MOL   H22349501   0.299   1.867   7.308  0.6846 -2.4631 -1.6978
  130MOL   H22449502   0.280   1.989   7.500 -0.3675  0.0514 -3.4226
  130MOL   H22549503   0.457   2.023   7.504 -0.8425  1.9568 -0.8852
  130MOL   H22649504   0.423   1.868   7.690  2.6015  0.6451 -0.2829
  130MOL   H22749505   0.308   1.775   7.600  1.0199 -0.4528  0.4014
  130MOL   H22849506   0.665   1.481   7.487 -0.7483 -0.1116 -2.0494
  130MOL   H22949507   0.504   1.477   7.419 -1.1340 -1.6391  0.7131
  130MOL   C23049508   0.539   1.342   7.575  0.3297 -0.1207  0.1153
  130MOL   C23149509   0.662   1.250   7.599  0.3697  0.4814 -0.4348
  130MOL   C23249510   0.737   1.205   7.475  0.4994  0.0444  0.3116
  130MOL   C23349511   0.866   1.148   7.539 -0.7502 -0.3825  0.0977
  130MOL   C23449512   0.894   1.224   7.670 -0.4645 -0.3371  0.0524
  130MOL   C23549513   0.771   1.308   0.000 -0.4905 -0.2927  0.5334
  130MOL   C23649514   0.429   1.262   7.494 -0.1947 -0.2208  0.1002
  130MOL   H23749515   0.510   1.363   7.678 -1.6708 -0.3610 -0.3797
  130MOL   H23849516   0.637   1.158   7.653 -0.3852  0.8647 -0.1238
  130MOL   H23949517   0.691   1.142   7.399 -0.0874  1.6322 -0.6778
  130MOL   H24049518   0.757   1.293   7.413  0.0355  0.1761  0.3444
  130MOL   H24149519   0.874   1.040   7.552 -0.7014 -0.5741 -1.5230
  130MOL   H24249520   0.948   1.165   7.469 -0.1763 -0.0211  0.8515
  130MOL   H24349521   0.976   1.293   7.655  2.7415 -3.9232  0.3451
  130MOL   H24449522   0.907   1.154   0.063 -0.9134  0.5815  0.9098
  130MOL   H24549523   0.797   1.407   7.652 -2.6366  0.0051 -0.2542
  130MOL   H24649524   0.747   1.305   0.107  1.1889  1.0824  0.9800
  130MOL   H24749525   0.419   1.160   7.531  2.0978 -0.9989 -1.2762
  130MOL   H24849526   0.480   1.246   7.399  0.7545  0.1194  0.5388
  130MOL   C24949527   0.282   1.307   7.473 -0.0706  0.3076  0.3394
  130MOL   C25049528   0.184   1.263   7.588  0.1826 -0.2695 -0.6906
  130MOL   C25149529   0.037   1.307   7.569  0.0091  0.2243 -0.4718
  130MOL   C25249530   7.671   1.308   0.021  0.1347  0.0394  0.2000
  130MOL   C25349531   0.098   1.321   0.118  0.2196  0.1474 -0.0291
  130MOL   C25449532   0.221   1.328   0.033 -0.1345  0.3092 -0.1010
  130MOL   C25549533   0.237   1.235   7.337  0.1583 -0.1913  0.2707
  130MOL   H25649534   0.284   1.416   7.465  2.1527  0.5215  2.9857
  130MOL   H25749535   0.177   1.156   7.607 -3.8019 -0.4777 -2.7016
  130MOL   H25849536   7.677   1.230   7.509  1.7226 -0.6175 -0.8446
  130MOL   H25949537   0.018   1.407   7.531  3.4428  0.5255 -1.5716
  130MOL   H26049538   7.632   1.208   0.038 -1.3395  0.7639  1.1896
  130MOL   H26149539   7.596   1.387   0.030  0.4726  0.4517 -0.5815
  130MOL   H26249540   0.115   1.237   0.185  0.7634  0.5891  0.3938
  130MOL   H26349541   0.089   1.414   0.174  2.6507 -1.2346  2.8219
  130MOL   H26449542   0.300   1.270   0.080 -1.4451 -0.3523  1.3504
  130MOL   H26549543   0.252   1.432   0.022  0.1123  0.2143 -0.3189
  130MOL   H26649544   0.289   1.139   7.337  2.1929  0.8823  0.4058
  130MOL   H26749545   0.131   1.209   7.330  0.1429 -0.3168  0.9104
  130MOL   C26849546   0.284   1.317   7.214 -0.0527  0.2972  0.1994
  130MOL   C26949547   0.194   1.445   7.201 -0.2188  0.1960 -0.2580
  130MOL   C27049548   0.057   1.438   7.134 -0.1454  0.5942  0.2041
  130MOL   C27149549   0.024   1.574   7.088 -0.4632 -0.5126  0.2947
  130MOL   C27249550   0.161   1.658   7.088  0.4797  0.3661 -0.3647
  130MOL   C27349551   0.265   1.552   7.122  0.1802 -0.0437  0.1370
  130MOL   C27449552   0.288   1.224   7.094 -0.1152 -0.3321  0.6773
  130MOL   H27549553   0.381   1.358   7.238 -0.7244  0.5486  2.5606
  130MOL   H27649554   0.193   1.498   7.297 -2.5835  2.2105 -1.3428
  130MOL   H27749555   0.077   1.379   7.045 -0.4855 -2.4414  2.0845
  130MOL   H27849556   7.662   1.396   7.187  0.1618 -0.0451  0.1899
  130MOL   H27949557   7.661   1.560   6.993  2.0594  2.3406 -1.6219
  130MOL   H28049558   7.640   1.616   7.157 -0.8549 -1.2038  0.2987
  130MOL   H28149559   0.150   1.737   7.163 -0.8924  0.3250 -0.5114
  130MOL   H28249560   0.182   1.697   6.988  0.0053 -1.7267 -1.2985
  130MOL   H28349561   0.347   1.602   7.174  1.6317 -0.3645 -1.7914
  130MOL   H28449562   0.297   1.509   7.028 -0.7044 -1.0926  0.3060
  130MOL   H28549563   0.272   1.289   7.008 -0.1738 -0.5198  0.5431
  130MOL   H28649564   0.196   1.164   7.095 -0.6813  0.5342  2.0046
  130MOL   C28749565   0.413   1.124   7.088 -0.0710  0.3265 -0.0099
  130MOL   C28849566   0.372   0.980   7.110  1.2456  0.5662  0.4832
  130MOL   C28949567   0.317   0.900   6.994 -0.1948 -0.3653 -0.2026
  130MOL   C29049568   0.313   0.751   7.021 -0.1129  0.5935 -0.1093
  130MOL   C29149569   0.432   0.741   7.126 -0.2209 -0.2460 -0.1320
  130MOL   C29249570   0.482   0.887   7.157 -0.8548  1.0760  0.1623
  130MOL   C29349571   0.503   1.151   6.961  0.6002  0.0991  0.3807
  130MOL   H29449572   0.473   1.145   7.176 -0.0266  2.8958 -0.6121
  130MOL   H29549573   0.302   0.987   7.194  0.9561  1.0977  0.2037
  130MOL   H29649574   0.220   0.933   6.956  1.0442  0.1645 -3.0438
  130MOL   H29749575   0.385   0.910   6.909 -2.3928  1.2532 -1.8264
  130MOL   H29849576   0.222   0.729   7.077  0.7828 -0.0801  1.1226
  130MOL   H29949577   0.321   0.685   6.934 -0.4350 -0.1438  0.4121
  130MOL   H30049578   0.515   0.691   7.076 -0.9993  1.5728 -3.3571
  130MOL   H30149579   0.396   0.691   7.216  2.4794 -0.7769  0.7002
  130MOL   H30249580   0.579   0.896   7.108 -0.5208 -1.5513  0.2788
  130MOL   H30349581   0.486   0.888   7.266 -2.2769 -0.4606  0.2604
  130MOL   H30449582   0.437   1.144   6.875 -0.1169  3.4960  0.5944
  130MOL   H30549583   0.584   1.078   6.956  0.7225  0.2785 -0.2259
  130MOL   C30649584   0.576   1.288   6.961 -0.5204 -0.0235 -0.1941
  130MOL   C30749585   0.701   1.297   7.050 -0.4247  0.0517 -0.5613
  130MOL   C30849586   0.823   1.214   7.000  0.6149  0.1816  0.2456
  130MOL   C30949587   0.944   1.283   7.056 -0.0817 -0.6063 -0.0684
  130MOL   C31049588   0.909   1.433   7.037  0.8352 -0.0738  0.1775
  130MOL   C31149589   0.757   1.440   7.063 -0.4092 -0.1168 -0.4965
  130MOL   C31249590   0.595   1.337   6.807 -0.1035  0.1494 -1.3096
  130MOL   H31349591   0.505   1.359   7.003  0.9024  1.1472  0.2661
  130MOL   H31449592   0.687   1.266   7.154 -0.4284 -3.5045 -1.5732
  130MOL   H31549593   0.840   1.224   6.893  0.6094 -0.5286  0.1730
  130MOL   H31649594   0.821   1.106   7.017 -1.2705 -0.1237 -1.7178
  130MOL   H31749595   0.969   1.262   7.160 -0.1896 -0.6088 -0.0427
  130MOL   H31849596   1.031   1.264   6.993  0.5874  1.4727  0.1923
  130MOL   H31949597   0.938   1.475   6.941 -0.5102  2.4791  0.8463
  130MOL   H32049598   0.975   1.486   7.105  1.5840 -0.7470 -0.0231
  130MOL   H32149599   0.745   1.474   7.166 -0.8552  0.4796 -0.7414
  130MOL   H32249600   0.703   1.516   7.007 -0.0473  0.8806  0.4821
  130MOL   H32349601   0.577   1.249   6.746  0.0768  0.7468 -2.2398
  130MOL   H32449602   0.696   1.367   6.780  0.3116  0.2875  0.3169
  130MOL   C32549603   0.484   1.443   6.765 -0.1846 -0.0706  0.1634
  130MOL   C32649604   0.357   1.390   6.693 -0.0670  0.5874 -0.3127
  130MOL   C32749605   0.368   1.355   6.543  0.6393 -0.2237  0.2095
  130MOL   C32849606   0.238   1.375   6.477 -0.3908  0.0315  0.4318
  130MOL   C32949607   0.140   1.407   6.591 -0.0597  0.1833  0.4022
  130MOL   C33049608   0.233   1.468   6.697  0.7059  0.2879 -0.3049
  130MOL   C33149609   0.541   1.561   6.686 -0.1530  0.3573  0.8340
  130MOL   H33249610   0.460   1.494   6.858  0.5319 -0.0718  0.3532
  130MOL   H33349611   0.322   1.301   6.746  0.6819  0.1936 -0.4704
  130MOL   H33449612   0.402   1.252   6.540 -1.4939 -1.0403  2.2440
  130MOL   H33549613   0.442   1.420   6.495 -0.8683 -0.2238 -2.2121
  130MOL   H33649614   0.211   1.285   6.421 -0.9486  0.1704  0.4842
  130MOL   H33749615   0.235   1.461   6.411 -0.3853  0.3671  0.8653
  130MOL   H33849616   0.087   1.316   6.618  0.5835 -0.1723  0.4934
  130MOL   H33949617   0.075   1.487   6.557 -0.5058 -0.6925 -0.8217
  130MOL   H34049618   0.184   1.478   6.794 -1.1636 -1.2818 -1.0467
  130MOL   H34149619   0.249   1.568   6.657 -2.7929  1.2471  0.4988
  130MOL   H34249620   0.467   1.613   6.625  1.0386  0.9139 -0.1668
  130MOL   H34349621   0.606   1.524   6.607 -0.4694 -0.3180  0.8835
  130MOL   C34449622   0.609   1.683   6.766  0.1141 -0.0914 -0.5965
  130MOL   C34549623   0.506   1.762   6.852  0.0783  0.2336  0.3685
  130MOL   C34649624   0.403   1.845   6.776  0.0683  0.2537 -0.3815
  130MOL   C34749625   0.395   1.979   6.846  0.2131 -0.3422 -0.1207
  130MOL   C34849626   0.529   1.994   6.921  0.2623 -0.1275  0.8401
  130MOL   C34949627   0.567   1.852   6.960 -0.4948 -0.4177  0.1531
  130MOL   C35049628   0.687   1.777   6.673  0.0835  0.0824 -0.0597
  130MOL   H35149629   0.678   1.650   6.843 -1.3025 -0.9263  0.3322
  130MOL   H35249630   0.446   1.692   6.910  0.3855  0.6850  1.2475
  130MOL   H35349631   0.305   1.798   6.775  1.0533 -1.8563 -3.4954
  130MOL   H35449632   0.419   1.861   6.670 -5.0082 -1.8872 -1.5696
  130MOL   H35549633   0.367   2.059   6.777 -0.1156 -2.1815 -2.1576
  130MOL   H35649634   0.309   1.971   6.913 -0.9254 -0.2864 -1.5615
  130MOL   H35749635   0.520   2.061   7.006  3.4620  2.0735 -0.4713
  130MOL   H35849636   0.601   2.038   6.851  0.0857  0.8086  1.2303
  130MOL   H35949637   0.676   1.853   6.957 -0.4268  0.9530  2.0337
  130MOL   H36049638   0.537   1.819   7.059 -1.1789 -1.1108 -0.2784
  130MOL   H36149639   0.716   1.872   6.717  0.7857  0.9847 -2.3682
  130MOL   H36249640   0.625   1.804   6.587  2.9018  1.5303 -1.7171
  130MOL   C36349641   0.815   1.720   6.620 -0.1724  0.8163  0.5003
  130MOL   C36449642   0.858   1.766   6.479 -0.1457  0.4633  0.0250
  130MOL   C36549643   0.750   1.740   6.370  0.1047 -0.3981 -0.7324
  130MOL   C36649644   0.827   1.751   6.239  0.1653  0.5405 -0.5825
  130MOL   C36749645   0.973   1.704   6.270 -0.6179 -0.6218 -0.0117
  130MOL   C36849646   0.989   1.702   6.426  0.5109 -0.5694 -0.5578
  130MOL   C36949647   0.927   1.719   6.725 -0.4226  0.0718  0.1360
  130MOL   H37049648   0.805   1.612   6.607  0.1641  1.0961 -2.4713
  130MOL   H37149649   0.887   1.870   6.490  1.5277  0.0570 -0.4361
  130MOL   H37249650   0.709   1.640   6.382  0.5912 -0.5904 -0.6335
  130MOL   H37349651   0.675   1.817   6.388 -0.3279 -1.1039  0.5271
  130MOL   H37449652   0.786   1.693   6.156  0.1488 -1.1682  0.5905
  130MOL   H37549653   0.824   1.855   6.205  0.1310  0.5249 -0.6271
  130MOL   H37649654   0.990   1.603   6.234  0.0139  0.1540 -1.9525
  130MOL   H37749655   1.051   1.749   6.208  0.9223 -0.8909  1.6838
  130MOL   H37849656   1.079   1.754   6.458  0.6085  0.5438 -2.5569
  130MOL   H37949657   0.977   1.600   6.461 -2.2468 -0.8857 -2.2650
  130MOL   H38049658   1.024   1.723   6.676  0.4814 -2.3473  1.6196
  130MOL   H38149659   0.913   1.627   6.782  1.1139 -0.6686 -0.6684
  130MOL   H38249660   0.928   1.803   6.794  2.2361  1.4421 -1.4973
   7.68973   7.68973   7.68973
