;
; Gromacs include topology (itp) file.
; For Molecular Group XYZ
; Force field scheme: opls2005
; Produced from DL_FIELD v4.11
;


[ moleculetype ]
; name    nrexcl
XYZ    3

[ atoms ]
; nr   type   resnr   residu    atom    cgnr    charge    mass
    1        CT    1  MOL      C1     1  -0.1200000   12.0115
    2       CYA    1  MOL      C2     2  -0.0600000   12.0115
    3       CYA    1  MOL      C3     3  -0.1200000   12.0115
    4       CYA    1  MOL      C4     4  -0.1200000   12.0115
    5       CYA    1  MOL      C5     5  -0.1200000   12.0115
    6       CYA    1  MOL      C6     6  -0.1200000   12.0115
    7        CT    1  MOL      C7     7  -0.1200000   12.0115
    8        HC    1  MOL      H8     8   0.0600000    1.0080
    9        HC    1  MOL      H9     9   0.0600000    1.0080
   10        HC    1  MOL     H10    10   0.0600000    1.0080
   11        HC    1  MOL     H11    11   0.0600000    1.0080
   12        HC    1  MOL     H12    12   0.0600000    1.0080
   13        HC    1  MOL     H13    13   0.0600000    1.0080
   14        HC    1  MOL     H14    14   0.0600000    1.0080
   15        HC    1  MOL     H15    15   0.0600000    1.0080
   16        HC    1  MOL     H16    16   0.0600000    1.0080
   17        HC    1  MOL     H17    17   0.0600000    1.0080
   18        HC    1  MOL     H18    18   0.0600000    1.0080
   19        HC    1  MOL     H19    19   0.0600000    1.0080
   20        HC    1  MOL     H20    20   0.0600000    1.0080
   21        CT    1  MOL     C21    21  -0.0600000   12.0115
   22       CYA    1  MOL     C22    22  -0.0600000   12.0115
   23       CYA    1  MOL     C23    23  -0.1200000   12.0115
   24       CYA    1  MOL     C24    24  -0.1200000   12.0115
   25       CYA    1  MOL     C25    25  -0.1200000   12.0115
   26       CYA    1  MOL     C26    26  -0.1200000   12.0115
   27        CT    1  MOL     C27    27  -0.1200000   12.0115
   28        HC    1  MOL     H28    28   0.0600000    1.0080
   29        HC    1  MOL     H29    29   0.0600000    1.0080
   30        HC    1  MOL     H30    30   0.0600000    1.0080
   31        HC    1  MOL     H31    31   0.0600000    1.0080
   32        HC    1  MOL     H32    32   0.0600000    1.0080
   33        HC    1  MOL     H33    33   0.0600000    1.0080
   34        HC    1  MOL     H34    34   0.0600000    1.0080
   35        HC    1  MOL     H35    35   0.0600000    1.0080
   36        HC    1  MOL     H36    36   0.0600000    1.0080
   37        HC    1  MOL     H37    37   0.0600000    1.0080
   38        HC    1  MOL     H38    38   0.0600000    1.0080
   39        HC    1  MOL     H39    39   0.0600000    1.0080
   40        CT    1  MOL     C40    40  -0.0600000   12.0115
   41       CYA    1  MOL     C41    41  -0.0600000   12.0115
   42       CYA    1  MOL     C42    42  -0.1200000   12.0115
   43       CYA    1  MOL     C43    43  -0.1200000   12.0115
   44       CYA    1  MOL     C44    44  -0.1200000   12.0115
   45       CYA    1  MOL     C45    45  -0.1200000   12.0115
   46        CT    1  MOL     C46    46  -0.1200000   12.0115
   47        HC    1  MOL     H47    47   0.0600000    1.0080
   48        HC    1  MOL     H48    48   0.0600000    1.0080
   49        HC    1  MOL     H49    49   0.0600000    1.0080
   50        HC    1  MOL     H50    50   0.0600000    1.0080
   51        HC    1  MOL     H51    51   0.0600000    1.0080
   52        HC    1  MOL     H52    52   0.0600000    1.0080
   53        HC    1  MOL     H53    53   0.0600000    1.0080
   54        HC    1  MOL     H54    54   0.0600000    1.0080
   55        HC    1  MOL     H55    55   0.0600000    1.0080
   56        HC    1  MOL     H56    56   0.0600000    1.0080
   57        HC    1  MOL     H57    57   0.0600000    1.0080
   58        HC    1  MOL     H58    58   0.0600000    1.0080
   59        CT    1  MOL     C59    59  -0.0600000   12.0115
   60       CYA    1  MOL     C60    60  -0.0600000   12.0115
   61       CYA    1  MOL     C61    61  -0.1200000   12.0115
   62       CYA    1  MOL     C62    62  -0.1200000   12.0115
   63       CYA    1  MOL     C63    63  -0.1200000   12.0115
   64       CYA    1  MOL     C64    64  -0.1200000   12.0115
   65        CT    1  MOL     C65    65  -0.1200000   12.0115
   66        HC    1  MOL     H66    66   0.0600000    1.0080
   67        HC    1  MOL     H67    67   0.0600000    1.0080
   68        HC    1  MOL     H68    68   0.0600000    1.0080
   69        HC    1  MOL     H69    69   0.0600000    1.0080
   70        HC    1  MOL     H70    70   0.0600000    1.0080
   71        HC    1  MOL     H71    71   0.0600000    1.0080
   72        HC    1  MOL     H72    72   0.0600000    1.0080
   73        HC    1  MOL     H73    73   0.0600000    1.0080
   74        HC    1  MOL     H74    74   0.0600000    1.0080
   75        HC    1  MOL     H75    75   0.0600000    1.0080
   76        HC    1  MOL     H76    76   0.0600000    1.0080
   77        HC    1  MOL     H77    77   0.0600000    1.0080
   78        CT    1  MOL     C78    78  -0.0600000   12.0115
   79       CYA    1  MOL     C79    79  -0.0600000   12.0115
   80       CYA    1  MOL     C80    80  -0.1200000   12.0115
   81       CYA    1  MOL     C81    81  -0.1200000   12.0115
   82       CYA    1  MOL     C82    82  -0.1200000   12.0115
   83       CYA    1  MOL     C83    83  -0.1200000   12.0115
   84        CT    1  MOL     C84    84  -0.1200000   12.0115
   85        HC    1  MOL     H85    85   0.0600000    1.0080
   86        HC    1  MOL     H86    86   0.0600000    1.0080
   87        HC    1  MOL     H87    87   0.0600000    1.0080
   88        HC    1  MOL     H88    88   0.0600000    1.0080
   89        HC    1  MOL     H89    89   0.0600000    1.0080
   90        HC    1  MOL     H90    90   0.0600000    1.0080
   91        HC    1  MOL     H91    91   0.0600000    1.0080
   92        HC    1  MOL     H92    92   0.0600000    1.0080
   93        HC    1  MOL     H93    93   0.0600000    1.0080
   94        HC    1  MOL     H94    94   0.0600000    1.0080
   95        HC    1  MOL     H95    95   0.0600000    1.0080
   96        HC    1  MOL     H96    96   0.0600000    1.0080
   97        CT    1  MOL     C97    97  -0.0600000   12.0115
   98       CYA    1  MOL     C98    98  -0.0600000   12.0115
   99       CYA    1  MOL     C99    99  -0.1200000   12.0115
  100       CYA    1  MOL    C100   100  -0.1200000   12.0115
  101       CYA    1  MOL    C101   101  -0.1200000   12.0115
  102       CYA    1  MOL    C102   102  -0.1200000   12.0115
  103        CT    1  MOL    C103   103  -0.1200000   12.0115
  104        HC    1  MOL    H104   104   0.0600000    1.0080
  105        HC    1  MOL    H105   105   0.0600000    1.0080
  106        HC    1  MOL    H106   106   0.0600000    1.0080
  107        HC    1  MOL    H107   107   0.0600000    1.0080
  108        HC    1  MOL    H108   108   0.0600000    1.0080
  109        HC    1  MOL    H109   109   0.0600000    1.0080
  110        HC    1  MOL    H110   110   0.0600000    1.0080
  111        HC    1  MOL    H111   111   0.0600000    1.0080
  112        HC    1  MOL    H112   112   0.0600000    1.0080
  113        HC    1  MOL    H113   113   0.0600000    1.0080
  114        HC    1  MOL    H114   114   0.0600000    1.0080
  115        HC    1  MOL    H115   115   0.0600000    1.0080
  116        CT    1  MOL    C116   116  -0.0600000   12.0115
  117       CYA    1  MOL    C117   117  -0.0600000   12.0115
  118       CYA    1  MOL    C118   118  -0.1200000   12.0115
  119       CYA    1  MOL    C119   119  -0.1200000   12.0115
  120       CYA    1  MOL    C120   120  -0.1200000   12.0115
  121       CYA    1  MOL    C121   121  -0.1200000   12.0115
  122        CT    1  MOL    C122   122  -0.1200000   12.0115
  123        HC    1  MOL    H123   123   0.0600000    1.0080
  124        HC    1  MOL    H124   124   0.0600000    1.0080
  125        HC    1  MOL    H125   125   0.0600000    1.0080
  126        HC    1  MOL    H126   126   0.0600000    1.0080
  127        HC    1  MOL    H127   127   0.0600000    1.0080
  128        HC    1  MOL    H128   128   0.0600000    1.0080
  129        HC    1  MOL    H129   129   0.0600000    1.0080
  130        HC    1  MOL    H130   130   0.0600000    1.0080
  131        HC    1  MOL    H131   131   0.0600000    1.0080
  132        HC    1  MOL    H132   132   0.0600000    1.0080
  133        HC    1  MOL    H133   133   0.0600000    1.0080
  134        HC    1  MOL    H134   134   0.0600000    1.0080
  135        CT    1  MOL    C135   135  -0.0600000   12.0115
  136       CYA    1  MOL    C136   136  -0.0600000   12.0115
  137       CYA    1  MOL    C137   137  -0.1200000   12.0115
  138       CYA    1  MOL    C138   138  -0.1200000   12.0115
  139       CYA    1  MOL    C139   139  -0.1200000   12.0115
  140       CYA    1  MOL    C140   140  -0.1200000   12.0115
  141        CT    1  MOL    C141   141  -0.1200000   12.0115
  142        HC    1  MOL    H142   142   0.0600000    1.0080
  143        HC    1  MOL    H143   143   0.0600000    1.0080
  144        HC    1  MOL    H144   144   0.0600000    1.0080
  145        HC    1  MOL    H145   145   0.0600000    1.0080
  146        HC    1  MOL    H146   146   0.0600000    1.0080
  147        HC    1  MOL    H147   147   0.0600000    1.0080
  148        HC    1  MOL    H148   148   0.0600000    1.0080
  149        HC    1  MOL    H149   149   0.0600000    1.0080
  150        HC    1  MOL    H150   150   0.0600000    1.0080
  151        HC    1  MOL    H151   151   0.0600000    1.0080
  152        HC    1  MOL    H152   152   0.0600000    1.0080
  153        HC    1  MOL    H153   153   0.0600000    1.0080
  154        CT    1  MOL    C154   154  -0.0600000   12.0115
  155       CYA    1  MOL    C155   155  -0.0600000   12.0115
  156       CYA    1  MOL    C156   156  -0.1200000   12.0115
  157       CYA    1  MOL    C157   157  -0.1200000   12.0115
  158       CYA    1  MOL    C158   158  -0.1200000   12.0115
  159       CYA    1  MOL    C159   159  -0.1200000   12.0115
  160        CT    1  MOL    C160   160  -0.1200000   12.0115
  161        HC    1  MOL    H161   161   0.0600000    1.0080
  162        HC    1  MOL    H162   162   0.0600000    1.0080
  163        HC    1  MOL    H163   163   0.0600000    1.0080
  164        HC    1  MOL    H164   164   0.0600000    1.0080
  165        HC    1  MOL    H165   165   0.0600000    1.0080
  166        HC    1  MOL    H166   166   0.0600000    1.0080
  167        HC    1  MOL    H167   167   0.0600000    1.0080
  168        HC    1  MOL    H168   168   0.0600000    1.0080
  169        HC    1  MOL    H169   169   0.0600000    1.0080
  170        HC    1  MOL    H170   170   0.0600000    1.0080
  171        HC    1  MOL    H171   171   0.0600000    1.0080
  172        HC    1  MOL    H172   172   0.0600000    1.0080
  173        CT    1  MOL    C173   173  -0.0600000   12.0115
  174       CYA    1  MOL    C174   174  -0.0600000   12.0115
  175       CYA    1  MOL    C175   175  -0.1200000   12.0115
  176       CYA    1  MOL    C176   176  -0.1200000   12.0115
  177       CYA    1  MOL    C177   177  -0.1200000   12.0115
  178       CYA    1  MOL    C178   178  -0.1200000   12.0115
  179        CT    1  MOL    C179   179  -0.1200000   12.0115
  180        HC    1  MOL    H180   180   0.0600000    1.0080
  181        HC    1  MOL    H181   181   0.0600000    1.0080
  182        HC    1  MOL    H182   182   0.0600000    1.0080
  183        HC    1  MOL    H183   183   0.0600000    1.0080
  184        HC    1  MOL    H184   184   0.0600000    1.0080
  185        HC    1  MOL    H185   185   0.0600000    1.0080
  186        HC    1  MOL    H186   186   0.0600000    1.0080
  187        HC    1  MOL    H187   187   0.0600000    1.0080
  188        HC    1  MOL    H188   188   0.0600000    1.0080
  189        HC    1  MOL    H189   189   0.0600000    1.0080
  190        HC    1  MOL    H190   190   0.0600000    1.0080
  191        HC    1  MOL    H191   191   0.0600000    1.0080
  192        CT    1  MOL    C192   192  -0.0600000   12.0115
  193       CYA    1  MOL    C193   193  -0.0600000   12.0115
  194       CYA    1  MOL    C194   194  -0.1200000   12.0115
  195       CYA    1  MOL    C195   195  -0.1200000   12.0115
  196       CYA    1  MOL    C196   196  -0.1200000   12.0115
  197       CYA    1  MOL    C197   197  -0.1200000   12.0115
  198        CT    1  MOL    C198   198  -0.1200000   12.0115
  199        HC    1  MOL    H199   199   0.0600000    1.0080
  200        HC    1  MOL    H200   200   0.0600000    1.0080
  201        HC    1  MOL    H201   201   0.0600000    1.0080
  202        HC    1  MOL    H202   202   0.0600000    1.0080
  203        HC    1  MOL    H203   203   0.0600000    1.0080
  204        HC    1  MOL    H204   204   0.0600000    1.0080
  205        HC    1  MOL    H205   205   0.0600000    1.0080
  206        HC    1  MOL    H206   206   0.0600000    1.0080
  207        HC    1  MOL    H207   207   0.0600000    1.0080
  208        HC    1  MOL    H208   208   0.0600000    1.0080
  209        HC    1  MOL    H209   209   0.0600000    1.0080
  210        HC    1  MOL    H210   210   0.0600000    1.0080
  211        CT    1  MOL    C211   211  -0.0600000   12.0115
  212       CYA    1  MOL    C212   212  -0.0600000   12.0115
  213       CYA    1  MOL    C213   213  -0.1200000   12.0115
  214       CYA    1  MOL    C214   214  -0.1200000   12.0115
  215       CYA    1  MOL    C215   215  -0.1200000   12.0115
  216       CYA    1  MOL    C216   216  -0.1200000   12.0115
  217        CT    1  MOL    C217   217  -0.1200000   12.0115
  218        HC    1  MOL    H218   218   0.0600000    1.0080
  219        HC    1  MOL    H219   219   0.0600000    1.0080
  220        HC    1  MOL    H220   220   0.0600000    1.0080
  221        HC    1  MOL    H221   221   0.0600000    1.0080
  222        HC    1  MOL    H222   222   0.0600000    1.0080
  223        HC    1  MOL    H223   223   0.0600000    1.0080
  224        HC    1  MOL    H224   224   0.0600000    1.0080
  225        HC    1  MOL    H225   225   0.0600000    1.0080
  226        HC    1  MOL    H226   226   0.0600000    1.0080
  227        HC    1  MOL    H227   227   0.0600000    1.0080
  228        HC    1  MOL    H228   228   0.0600000    1.0080
  229        HC    1  MOL    H229   229   0.0600000    1.0080
  230        CT    1  MOL    C230   230  -0.0600000   12.0115
  231       CYA    1  MOL    C231   231  -0.0600000   12.0115
  232       CYA    1  MOL    C232   232  -0.1200000   12.0115
  233       CYA    1  MOL    C233   233  -0.1200000   12.0115
  234       CYA    1  MOL    C234   234  -0.1200000   12.0115
  235       CYA    1  MOL    C235   235  -0.1200000   12.0115
  236        CT    1  MOL    C236   236  -0.1200000   12.0115
  237        HC    1  MOL    H237   237   0.0600000    1.0080
  238        HC    1  MOL    H238   238   0.0600000    1.0080
  239        HC    1  MOL    H239   239   0.0600000    1.0080
  240        HC    1  MOL    H240   240   0.0600000    1.0080
  241        HC    1  MOL    H241   241   0.0600000    1.0080
  242        HC    1  MOL    H242   242   0.0600000    1.0080
  243        HC    1  MOL    H243   243   0.0600000    1.0080
  244        HC    1  MOL    H244   244   0.0600000    1.0080
  245        HC    1  MOL    H245   245   0.0600000    1.0080
  246        HC    1  MOL    H246   246   0.0600000    1.0080
  247        HC    1  MOL    H247   247   0.0600000    1.0080
  248        HC    1  MOL    H248   248   0.0600000    1.0080
  249        CT    1  MOL    C249   249  -0.0600000   12.0115
  250       CYA    1  MOL    C250   250  -0.0600000   12.0115
  251       CYA    1  MOL    C251   251  -0.1200000   12.0115
  252       CYA    1  MOL    C252   252  -0.1200000   12.0115
  253       CYA    1  MOL    C253   253  -0.1200000   12.0115
  254       CYA    1  MOL    C254   254  -0.1200000   12.0115
  255        CT    1  MOL    C255   255  -0.1200000   12.0115
  256        HC    1  MOL    H256   256   0.0600000    1.0080
  257        HC    1  MOL    H257   257   0.0600000    1.0080
  258        HC    1  MOL    H258   258   0.0600000    1.0080
  259        HC    1  MOL    H259   259   0.0600000    1.0080
  260        HC    1  MOL    H260   260   0.0600000    1.0080
  261        HC    1  MOL    H261   261   0.0600000    1.0080
  262        HC    1  MOL    H262   262   0.0600000    1.0080
  263        HC    1  MOL    H263   263   0.0600000    1.0080
  264        HC    1  MOL    H264   264   0.0600000    1.0080
  265        HC    1  MOL    H265   265   0.0600000    1.0080
  266        HC    1  MOL    H266   266   0.0600000    1.0080
  267        HC    1  MOL    H267   267   0.0600000    1.0080
  268        CT    1  MOL    C268   268  -0.0600000   12.0115
  269       CYA    1  MOL    C269   269  -0.0600000   12.0115
  270       CYA    1  MOL    C270   270  -0.1200000   12.0115
  271       CYA    1  MOL    C271   271  -0.1200000   12.0115
  272       CYA    1  MOL    C272   272  -0.1200000   12.0115
  273       CYA    1  MOL    C273   273  -0.1200000   12.0115
  274        CT    1  MOL    C274   274  -0.1200000   12.0115
  275        HC    1  MOL    H275   275   0.0600000    1.0080
  276        HC    1  MOL    H276   276   0.0600000    1.0080
  277        HC    1  MOL    H277   277   0.0600000    1.0080
  278        HC    1  MOL    H278   278   0.0600000    1.0080
  279        HC    1  MOL    H279   279   0.0600000    1.0080
  280        HC    1  MOL    H280   280   0.0600000    1.0080
  281        HC    1  MOL    H281   281   0.0600000    1.0080
  282        HC    1  MOL    H282   282   0.0600000    1.0080
  283        HC    1  MOL    H283   283   0.0600000    1.0080
  284        HC    1  MOL    H284   284   0.0600000    1.0080
  285        HC    1  MOL    H285   285   0.0600000    1.0080
  286        HC    1  MOL    H286   286   0.0600000    1.0080
  287        CT    1  MOL    C287   287  -0.0600000   12.0115
  288       CYA    1  MOL    C288   288  -0.0600000   12.0115
  289       CYA    1  MOL    C289   289  -0.1200000   12.0115
  290       CYA    1  MOL    C290   290  -0.1200000   12.0115
  291       CYA    1  MOL    C291   291  -0.1200000   12.0115
  292       CYA    1  MOL    C292   292  -0.1200000   12.0115
  293        CT    1  MOL    C293   293  -0.1200000   12.0115
  294        HC    1  MOL    H294   294   0.0600000    1.0080
  295        HC    1  MOL    H295   295   0.0600000    1.0080
  296        HC    1  MOL    H296   296   0.0600000    1.0080
  297        HC    1  MOL    H297   297   0.0600000    1.0080
  298        HC    1  MOL    H298   298   0.0600000    1.0080
  299        HC    1  MOL    H299   299   0.0600000    1.0080
  300        HC    1  MOL    H300   300   0.0600000    1.0080
  301        HC    1  MOL    H301   301   0.0600000    1.0080
  302        HC    1  MOL    H302   302   0.0600000    1.0080
  303        HC    1  MOL    H303   303   0.0600000    1.0080
  304        HC    1  MOL    H304   304   0.0600000    1.0080
  305        HC    1  MOL    H305   305   0.0600000    1.0080
  306        CT    1  MOL    C306   306  -0.0600000   12.0115
  307       CYA    1  MOL    C307   307  -0.0600000   12.0115
  308       CYA    1  MOL    C308   308  -0.1200000   12.0115
  309       CYA    1  MOL    C309   309  -0.1200000   12.0115
  310       CYA    1  MOL    C310   310  -0.1200000   12.0115
  311       CYA    1  MOL    C311   311  -0.1200000   12.0115
  312        CT    1  MOL    C312   312  -0.1200000   12.0115
  313        HC    1  MOL    H313   313   0.0600000    1.0080
  314        HC    1  MOL    H314   314   0.0600000    1.0080
  315        HC    1  MOL    H315   315   0.0600000    1.0080
  316        HC    1  MOL    H316   316   0.0600000    1.0080
  317        HC    1  MOL    H317   317   0.0600000    1.0080
  318        HC    1  MOL    H318   318   0.0600000    1.0080
  319        HC    1  MOL    H319   319   0.0600000    1.0080
  320        HC    1  MOL    H320   320   0.0600000    1.0080
  321        HC    1  MOL    H321   321   0.0600000    1.0080
  322        HC    1  MOL    H322   322   0.0600000    1.0080
  323        HC    1  MOL    H323   323   0.0600000    1.0080
  324        HC    1  MOL    H324   324   0.0600000    1.0080
  325        CT    1  MOL    C325   325  -0.0600000   12.0115
  326       CYA    1  MOL    C326   326  -0.0600000   12.0115
  327       CYA    1  MOL    C327   327  -0.1200000   12.0115
  328       CYA    1  MOL    C328   328  -0.1200000   12.0115
  329       CYA    1  MOL    C329   329  -0.1200000   12.0115
  330       CYA    1  MOL    C330   330  -0.1200000   12.0115
  331        CT    1  MOL    C331   331  -0.1200000   12.0115
  332        HC    1  MOL    H332   332   0.0600000    1.0080
  333        HC    1  MOL    H333   333   0.0600000    1.0080
  334        HC    1  MOL    H334   334   0.0600000    1.0080
  335        HC    1  MOL    H335   335   0.0600000    1.0080
  336        HC    1  MOL    H336   336   0.0600000    1.0080
  337        HC    1  MOL    H337   337   0.0600000    1.0080
  338        HC    1  MOL    H338   338   0.0600000    1.0080
  339        HC    1  MOL    H339   339   0.0600000    1.0080
  340        HC    1  MOL    H340   340   0.0600000    1.0080
  341        HC    1  MOL    H341   341   0.0600000    1.0080
  342        HC    1  MOL    H342   342   0.0600000    1.0080
  343        HC    1  MOL    H343   343   0.0600000    1.0080
  344        CT    1  MOL    C344   344  -0.0600000   12.0115
  345       CYA    1  MOL    C345   345  -0.0600000   12.0115
  346       CYA    1  MOL    C346   346  -0.1200000   12.0115
  347       CYA    1  MOL    C347   347  -0.1200000   12.0115
  348       CYA    1  MOL    C348   348  -0.1200000   12.0115
  349       CYA    1  MOL    C349   349  -0.1200000   12.0115
  350        CT    1  MOL    C350   350  -0.1200000   12.0115
  351        HC    1  MOL    H351   351   0.0600000    1.0080
  352        HC    1  MOL    H352   352   0.0600000    1.0080
  353        HC    1  MOL    H353   353   0.0600000    1.0080
  354        HC    1  MOL    H354   354   0.0600000    1.0080
  355        HC    1  MOL    H355   355   0.0600000    1.0080
  356        HC    1  MOL    H356   356   0.0600000    1.0080
  357        HC    1  MOL    H357   357   0.0600000    1.0080
  358        HC    1  MOL    H358   358   0.0600000    1.0080
  359        HC    1  MOL    H359   359   0.0600000    1.0080
  360        HC    1  MOL    H360   360   0.0600000    1.0080
  361        HC    1  MOL    H361   361   0.0600000    1.0080
  362        HC    1  MOL    H362   362   0.0600000    1.0080
  363        CT    1  MOL    C363   363  -0.0600000   12.0115
  364       CYA    1  MOL    C364   364  -0.0600000   12.0115
  365       CYA    1  MOL    C365   365  -0.1200000   12.0115
  366       CYA    1  MOL    C366   366  -0.1200000   12.0115
  367       CYA    1  MOL    C367   367  -0.1200000   12.0115
  368       CYA    1  MOL    C368   368  -0.1200000   12.0115
  369        CT    1  MOL    C369   369  -0.1800000   12.0115
  370        HC    1  MOL    H370   370   0.0600000    1.0080
  371        HC    1  MOL    H371   371   0.0600000    1.0080
  372        HC    1  MOL    H372   372   0.0600000    1.0080
  373        HC    1  MOL    H373   373   0.0600000    1.0080
  374        HC    1  MOL    H374   374   0.0600000    1.0080
  375        HC    1  MOL    H375   375   0.0600000    1.0080
  376        HC    1  MOL    H376   376   0.0600000    1.0080
  377        HC    1  MOL    H377   377   0.0600000    1.0080
  378        HC    1  MOL    H378   378   0.0600000    1.0080
  379        HC    1  MOL    H379   379   0.0600000    1.0080
  380        HC    1  MOL    H380   380   0.0600000    1.0080
  381        HC    1  MOL    H381   381   0.0600000    1.0080
  382        HC    1  MOL    H382   382   0.0600000    1.0080

[ bonds ]
      1      2   1      0.1529 224262.4000
      1      7   1      0.1529 224262.4000
      1      8   1      0.1090 284512.0000
      1     20   1      0.1090 284512.0000
      2      3   1      0.1529 224262.4000
      2      6   1      0.1529 224262.4000
      2      9   1      0.1090 284512.0000
      3      4   1      0.1529 224262.4000
      3     10   1      0.1090 284512.0000
      3     11   1      0.1090 284512.0000
      4      5   1      0.1529 224262.4000
      4     12   1      0.1090 284512.0000
      4     13   1      0.1090 284512.0000
      5      6   1      0.1529 224262.4000
      5     14   1      0.1090 284512.0000
      5     15   1      0.1090 284512.0000
      6     16   1      0.1090 284512.0000
      6     17   1      0.1090 284512.0000
      7     18   1      0.1090 284512.0000
      7     19   1      0.1090 284512.0000
      7     21   1      0.1529 224262.4000
     21     22   1      0.1529 224262.4000
     21     27   1      0.1529 224262.4000
     21     28   1      0.1090 284512.0000
     22     23   1      0.1529 224262.4000
     22     26   1      0.1529 224262.4000
     22     29   1      0.1090 284512.0000
     23     24   1      0.1529 224262.4000
     23     30   1      0.1090 284512.0000
     23     31   1      0.1090 284512.0000
     24     25   1      0.1529 224262.4000
     24     32   1      0.1090 284512.0000
     24     33   1      0.1090 284512.0000
     25     26   1      0.1529 224262.4000
     25     34   1      0.1090 284512.0000
     25     35   1      0.1090 284512.0000
     26     36   1      0.1090 284512.0000
     26     37   1      0.1090 284512.0000
     27     38   1      0.1090 284512.0000
     27     39   1      0.1090 284512.0000
     27     40   1      0.1529 224262.4000
     40     41   1      0.1529 224262.4000
     40     46   1      0.1529 224262.4000
     40     47   1      0.1090 284512.0000
     41     42   1      0.1529 224262.4000
     41     45   1      0.1529 224262.4000
     41     48   1      0.1090 284512.0000
     42     43   1      0.1529 224262.4000
     42     49   1      0.1090 284512.0000
     42     50   1      0.1090 284512.0000
     43     44   1      0.1529 224262.4000
     43     51   1      0.1090 284512.0000
     43     52   1      0.1090 284512.0000
     44     45   1      0.1529 224262.4000
     44     53   1      0.1090 284512.0000
     44     54   1      0.1090 284512.0000
     45     55   1      0.1090 284512.0000
     45     56   1      0.1090 284512.0000
     46     57   1      0.1090 284512.0000
     46     58   1      0.1090 284512.0000
     46     59   1      0.1529 224262.4000
     59     60   1      0.1529 224262.4000
     59     65   1      0.1529 224262.4000
     59     66   1      0.1090 284512.0000
     60     61   1      0.1529 224262.4000
     60     64   1      0.1529 224262.4000
     60     67   1      0.1090 284512.0000
     61     62   1      0.1529 224262.4000
     61     68   1      0.1090 284512.0000
     61     69   1      0.1090 284512.0000
     62     63   1      0.1529 224262.4000
     62     70   1      0.1090 284512.0000
     62     71   1      0.1090 284512.0000
     63     64   1      0.1529 224262.4000
     63     72   1      0.1090 284512.0000
     63     73   1      0.1090 284512.0000
     64     74   1      0.1090 284512.0000
     64     75   1      0.1090 284512.0000
     65     76   1      0.1090 284512.0000
     65     77   1      0.1090 284512.0000
     65     78   1      0.1529 224262.4000
     78     79   1      0.1529 224262.4000
     78     84   1      0.1529 224262.4000
     78     85   1      0.1090 284512.0000
     79     80   1      0.1529 224262.4000
     79     83   1      0.1529 224262.4000
     79     86   1      0.1090 284512.0000
     80     81   1      0.1529 224262.4000
     80     87   1      0.1090 284512.0000
     80     88   1      0.1090 284512.0000
     81     82   1      0.1529 224262.4000
     81     89   1      0.1090 284512.0000
     81     90   1      0.1090 284512.0000
     82     83   1      0.1529 224262.4000
     82     91   1      0.1090 284512.0000
     82     92   1      0.1090 284512.0000
     83     93   1      0.1090 284512.0000
     83     94   1      0.1090 284512.0000
     84     95   1      0.1090 284512.0000
     84     96   1      0.1090 284512.0000
     84     97   1      0.1529 224262.4000
     97     98   1      0.1529 224262.4000
     97    103   1      0.1529 224262.4000
     97    104   1      0.1090 284512.0000
     98     99   1      0.1529 224262.4000
     98    102   1      0.1529 224262.4000
     98    105   1      0.1090 284512.0000
     99    100   1      0.1529 224262.4000
     99    106   1      0.1090 284512.0000
     99    107   1      0.1090 284512.0000
    100    101   1      0.1529 224262.4000
    100    108   1      0.1090 284512.0000
    100    109   1      0.1090 284512.0000
    101    102   1      0.1529 224262.4000
    101    110   1      0.1090 284512.0000
    101    111   1      0.1090 284512.0000
    102    112   1      0.1090 284512.0000
    102    113   1      0.1090 284512.0000
    103    114   1      0.1090 284512.0000
    103    115   1      0.1090 284512.0000
    103    116   1      0.1529 224262.4000
    116    117   1      0.1529 224262.4000
    116    122   1      0.1529 224262.4000
    116    123   1      0.1090 284512.0000
    117    118   1      0.1529 224262.4000
    117    121   1      0.1529 224262.4000
    117    124   1      0.1090 284512.0000
    118    119   1      0.1529 224262.4000
    118    125   1      0.1090 284512.0000
    118    126   1      0.1090 284512.0000
    119    120   1      0.1529 224262.4000
    119    127   1      0.1090 284512.0000
    119    128   1      0.1090 284512.0000
    120    121   1      0.1529 224262.4000
    120    129   1      0.1090 284512.0000
    120    130   1      0.1090 284512.0000
    121    131   1      0.1090 284512.0000
    121    132   1      0.1090 284512.0000
    122    133   1      0.1090 284512.0000
    122    134   1      0.1090 284512.0000
    122    135   1      0.1529 224262.4000
    135    136   1      0.1529 224262.4000
    135    141   1      0.1529 224262.4000
    135    142   1      0.1090 284512.0000
    136    137   1      0.1529 224262.4000
    136    140   1      0.1529 224262.4000
    136    143   1      0.1090 284512.0000
    137    138   1      0.1529 224262.4000
    137    144   1      0.1090 284512.0000
    137    145   1      0.1090 284512.0000
    138    139   1      0.1529 224262.4000
    138    146   1      0.1090 284512.0000
    138    147   1      0.1090 284512.0000
    139    140   1      0.1529 224262.4000
    139    148   1      0.1090 284512.0000
    139    149   1      0.1090 284512.0000
    140    150   1      0.1090 284512.0000
    140    151   1      0.1090 284512.0000
    141    152   1      0.1090 284512.0000
    141    153   1      0.1090 284512.0000
    141    154   1      0.1529 224262.4000
    154    155   1      0.1529 224262.4000
    154    160   1      0.1529 224262.4000
    154    161   1      0.1090 284512.0000
    155    156   1      0.1529 224262.4000
    155    159   1      0.1529 224262.4000
    155    162   1      0.1090 284512.0000
    156    157   1      0.1529 224262.4000
    156    163   1      0.1090 284512.0000
    156    164   1      0.1090 284512.0000
    157    158   1      0.1529 224262.4000
    157    165   1      0.1090 284512.0000
    157    166   1      0.1090 284512.0000
    158    159   1      0.1529 224262.4000
    158    167   1      0.1090 284512.0000
    158    168   1      0.1090 284512.0000
    159    169   1      0.1090 284512.0000
    159    170   1      0.1090 284512.0000
    160    171   1      0.1090 284512.0000
    160    172   1      0.1090 284512.0000
    160    173   1      0.1529 224262.4000
    173    174   1      0.1529 224262.4000
    173    179   1      0.1529 224262.4000
    173    180   1      0.1090 284512.0000
    174    175   1      0.1529 224262.4000
    174    178   1      0.1529 224262.4000
    174    181   1      0.1090 284512.0000
    175    176   1      0.1529 224262.4000
    175    182   1      0.1090 284512.0000
    175    183   1      0.1090 284512.0000
    176    177   1      0.1529 224262.4000
    176    184   1      0.1090 284512.0000
    176    185   1      0.1090 284512.0000
    177    178   1      0.1529 224262.4000
    177    186   1      0.1090 284512.0000
    177    187   1      0.1090 284512.0000
    178    188   1      0.1090 284512.0000
    178    189   1      0.1090 284512.0000
    179    190   1      0.1090 284512.0000
    179    191   1      0.1090 284512.0000
    179    192   1      0.1529 224262.4000
    192    193   1      0.1529 224262.4000
    192    198   1      0.1529 224262.4000
    192    199   1      0.1090 284512.0000
    193    194   1      0.1529 224262.4000
    193    197   1      0.1529 224262.4000
    193    200   1      0.1090 284512.0000
    194    195   1      0.1529 224262.4000
    194    201   1      0.1090 284512.0000
    194    202   1      0.1090 284512.0000
    195    196   1      0.1529 224262.4000
    195    203   1      0.1090 284512.0000
    195    204   1      0.1090 284512.0000
    196    197   1      0.1529 224262.4000
    196    205   1      0.1090 284512.0000
    196    206   1      0.1090 284512.0000
    197    207   1      0.1090 284512.0000
    197    208   1      0.1090 284512.0000
    198    209   1      0.1090 284512.0000
    198    210   1      0.1090 284512.0000
    198    211   1      0.1529 224262.4000
    211    212   1      0.1529 224262.4000
    211    217   1      0.1529 224262.4000
    211    218   1      0.1090 284512.0000
    212    213   1      0.1529 224262.4000
    212    216   1      0.1529 224262.4000
    212    219   1      0.1090 284512.0000
    213    214   1      0.1529 224262.4000
    213    220   1      0.1090 284512.0000
    213    221   1      0.1090 284512.0000
    214    215   1      0.1529 224262.4000
    214    222   1      0.1090 284512.0000
    214    223   1      0.1090 284512.0000
    215    216   1      0.1529 224262.4000
    215    224   1      0.1090 284512.0000
    215    225   1      0.1090 284512.0000
    216    226   1      0.1090 284512.0000
    216    227   1      0.1090 284512.0000
    217    228   1      0.1090 284512.0000
    217    229   1      0.1090 284512.0000
    217    230   1      0.1529 224262.4000
    230    231   1      0.1529 224262.4000
    230    236   1      0.1529 224262.4000
    230    237   1      0.1090 284512.0000
    231    232   1      0.1529 224262.4000
    231    235   1      0.1529 224262.4000
    231    238   1      0.1090 284512.0000
    232    233   1      0.1529 224262.4000
    232    239   1      0.1090 284512.0000
    232    240   1      0.1090 284512.0000
    233    234   1      0.1529 224262.4000
    233    241   1      0.1090 284512.0000
    233    242   1      0.1090 284512.0000
    234    235   1      0.1529 224262.4000
    234    243   1      0.1090 284512.0000
    234    244   1      0.1090 284512.0000
    235    245   1      0.1090 284512.0000
    235    246   1      0.1090 284512.0000
    236    247   1      0.1090 284512.0000
    236    248   1      0.1090 284512.0000
    236    249   1      0.1529 224262.4000
    249    250   1      0.1529 224262.4000
    249    255   1      0.1529 224262.4000
    249    256   1      0.1090 284512.0000
    250    251   1      0.1529 224262.4000
    250    254   1      0.1529 224262.4000
    250    257   1      0.1090 284512.0000
    251    252   1      0.1529 224262.4000
    251    258   1      0.1090 284512.0000
    251    259   1      0.1090 284512.0000
    252    253   1      0.1529 224262.4000
    252    260   1      0.1090 284512.0000
    252    261   1      0.1090 284512.0000
    253    254   1      0.1529 224262.4000
    253    262   1      0.1090 284512.0000
    253    263   1      0.1090 284512.0000
    254    264   1      0.1090 284512.0000
    254    265   1      0.1090 284512.0000
    255    266   1      0.1090 284512.0000
    255    267   1      0.1090 284512.0000
    255    268   1      0.1529 224262.4000
    268    269   1      0.1529 224262.4000
    268    274   1      0.1529 224262.4000
    268    275   1      0.1090 284512.0000
    269    270   1      0.1529 224262.4000
    269    273   1      0.1529 224262.4000
    269    276   1      0.1090 284512.0000
    270    271   1      0.1529 224262.4000
    270    277   1      0.1090 284512.0000
    270    278   1      0.1090 284512.0000
    271    272   1      0.1529 224262.4000
    271    279   1      0.1090 284512.0000
    271    280   1      0.1090 284512.0000
    272    273   1      0.1529 224262.4000
    272    281   1      0.1090 284512.0000
    272    282   1      0.1090 284512.0000
    273    283   1      0.1090 284512.0000
    273    284   1      0.1090 284512.0000
    274    285   1      0.1090 284512.0000
    274    286   1      0.1090 284512.0000
    274    287   1      0.1529 224262.4000
    287    288   1      0.1529 224262.4000
    287    293   1      0.1529 224262.4000
    287    294   1      0.1090 284512.0000
    288    289   1      0.1529 224262.4000
    288    292   1      0.1529 224262.4000
    288    295   1      0.1090 284512.0000
    289    290   1      0.1529 224262.4000
    289    296   1      0.1090 284512.0000
    289    297   1      0.1090 284512.0000
    290    291   1      0.1529 224262.4000
    290    298   1      0.1090 284512.0000
    290    299   1      0.1090 284512.0000
    291    292   1      0.1529 224262.4000
    291    300   1      0.1090 284512.0000
    291    301   1      0.1090 284512.0000
    292    302   1      0.1090 284512.0000
    292    303   1      0.1090 284512.0000
    293    304   1      0.1090 284512.0000
    293    305   1      0.1090 284512.0000
    293    306   1      0.1529 224262.4000
    306    307   1      0.1529 224262.4000
    306    312   1      0.1529 224262.4000
    306    313   1      0.1090 284512.0000
    307    308   1      0.1529 224262.4000
    307    311   1      0.1529 224262.4000
    307    314   1      0.1090 284512.0000
    308    309   1      0.1529 224262.4000
    308    315   1      0.1090 284512.0000
    308    316   1      0.1090 284512.0000
    309    310   1      0.1529 224262.4000
    309    317   1      0.1090 284512.0000
    309    318   1      0.1090 284512.0000
    310    311   1      0.1529 224262.4000
    310    319   1      0.1090 284512.0000
    310    320   1      0.1090 284512.0000
    311    321   1      0.1090 284512.0000
    311    322   1      0.1090 284512.0000
    312    323   1      0.1090 284512.0000
    312    324   1      0.1090 284512.0000
    312    325   1      0.1529 224262.4000
    325    326   1      0.1529 224262.4000
    325    331   1      0.1529 224262.4000
    325    332   1      0.1090 284512.0000
    326    327   1      0.1529 224262.4000
    326    330   1      0.1529 224262.4000
    326    333   1      0.1090 284512.0000
    327    328   1      0.1529 224262.4000
    327    334   1      0.1090 284512.0000
    327    335   1      0.1090 284512.0000
    328    329   1      0.1529 224262.4000
    328    336   1      0.1090 284512.0000
    328    337   1      0.1090 284512.0000
    329    330   1      0.1529 224262.4000
    329    338   1      0.1090 284512.0000
    329    339   1      0.1090 284512.0000
    330    340   1      0.1090 284512.0000
    330    341   1      0.1090 284512.0000
    331    342   1      0.1090 284512.0000
    331    343   1      0.1090 284512.0000
    331    344   1      0.1529 224262.4000
    344    345   1      0.1529 224262.4000
    344    350   1      0.1529 224262.4000
    344    351   1      0.1090 284512.0000
    345    346   1      0.1529 224262.4000
    345    349   1      0.1529 224262.4000
    345    352   1      0.1090 284512.0000
    346    347   1      0.1529 224262.4000
    346    353   1      0.1090 284512.0000
    346    354   1      0.1090 284512.0000
    347    348   1      0.1529 224262.4000
    347    355   1      0.1090 284512.0000
    347    356   1      0.1090 284512.0000
    348    349   1      0.1529 224262.4000
    348    357   1      0.1090 284512.0000
    348    358   1      0.1090 284512.0000
    349    359   1      0.1090 284512.0000
    349    360   1      0.1090 284512.0000
    350    361   1      0.1090 284512.0000
    350    362   1      0.1090 284512.0000
    350    363   1      0.1529 224262.4000
    363    364   1      0.1529 224262.4000
    363    369   1      0.1529 224262.4000
    363    370   1      0.1090 284512.0000
    364    365   1      0.1529 224262.4000
    364    368   1      0.1529 224262.4000
    364    371   1      0.1090 284512.0000
    365    366   1      0.1529 224262.4000
    365    372   1      0.1090 284512.0000
    365    373   1      0.1090 284512.0000
    366    367   1      0.1529 224262.4000
    366    374   1      0.1090 284512.0000
    366    375   1      0.1090 284512.0000
    367    368   1      0.1529 224262.4000
    367    376   1      0.1090 284512.0000
    367    377   1      0.1090 284512.0000
    368    378   1      0.1090 284512.0000
    368    379   1      0.1090 284512.0000
    369    380   1      0.1090 284512.0000
    369    381   1      0.1090 284512.0000
    369    382   1      0.1090 284512.0000

[ pairs ]
; ai   aj   funct   fudge_QQ  charge_i   charge_j   c6    c12
      7      3   2   0.50000    -0.1200000   -0.1200000   1.015252e-03  1.866303e-06
      7      6   2   0.50000    -0.1200000   -0.1200000   1.015252e-03  1.866303e-06
      7      9   2   0.50000    -0.1200000    0.0600000   2.494471e-04  1.671101e-07
      8      3   2   0.50000     0.0600000   -0.1200000   2.494471e-04  1.671101e-07
      8      6   2   0.50000     0.0600000   -0.1200000   2.494471e-04  1.671101e-07
      8      9   2   0.50000     0.0600000    0.0600000   6.128906e-05  1.496315e-08
     20      3   2   0.50000     0.0600000   -0.1200000   2.494471e-04  1.671101e-07
     20      6   2   0.50000     0.0600000   -0.1200000   2.494471e-04  1.671101e-07
     20      9   2   0.50000     0.0600000    0.0600000   6.128906e-05  1.496315e-08
      2     18   2   0.50000    -0.0600000    0.0600000   2.494471e-04  1.671101e-07
      2     19   2   0.50000    -0.0600000    0.0600000   2.494471e-04  1.671101e-07
      2     21   2   0.50000    -0.0600000   -0.0600000   1.015252e-03  1.866303e-06
      8     18   2   0.50000     0.0600000    0.0600000   6.128906e-05  1.496315e-08
      8     19   2   0.50000     0.0600000    0.0600000   6.128906e-05  1.496315e-08
      8     21   2   0.50000     0.0600000   -0.0600000   2.494471e-04  1.671101e-07
     20     18   2   0.50000     0.0600000    0.0600000   6.128906e-05  1.496315e-08
     20     19   2   0.50000     0.0600000    0.0600000   6.128906e-05  1.496315e-08
     20     21   2   0.50000     0.0600000   -0.0600000   2.494471e-04  1.671101e-07
      1      4   2   0.50000    -0.1200000   -0.1200000   1.015252e-03  1.866303e-06
      1     10   2   0.50000    -0.1200000    0.0600000   2.494471e-04  1.671101e-07
      1     11   2   0.50000    -0.1200000    0.0600000   2.494471e-04  1.671101e-07
      6     10   2   0.50000    -0.1200000    0.0600000   2.494471e-04  1.671101e-07
      6     11   2   0.50000    -0.1200000    0.0600000   2.494471e-04  1.671101e-07
      9      4   2   0.50000     0.0600000   -0.1200000   2.494471e-04  1.671101e-07
      9     10   2   0.50000     0.0600000    0.0600000   6.128906e-05  1.496315e-08
      9     11   2   0.50000     0.0600000    0.0600000   6.128906e-05  1.496315e-08
      1      5   2   0.50000    -0.1200000   -0.1200000   1.015252e-03  1.866303e-06
      1     16   2   0.50000    -0.1200000    0.0600000   2.494471e-04  1.671101e-07
      1     17   2   0.50000    -0.1200000    0.0600000   2.494471e-04  1.671101e-07
      3     16   2   0.50000    -0.1200000    0.0600000   2.494471e-04  1.671101e-07
      3     17   2   0.50000    -0.1200000    0.0600000   2.494471e-04  1.671101e-07
      9      5   2   0.50000     0.0600000   -0.1200000   2.494471e-04  1.671101e-07
      9     16   2   0.50000     0.0600000    0.0600000   6.128906e-05  1.496315e-08
      9     17   2   0.50000     0.0600000    0.0600000   6.128906e-05  1.496315e-08
      2     12   2   0.50000    -0.0600000    0.0600000   2.494471e-04  1.671101e-07
      2     13   2   0.50000    -0.0600000    0.0600000   2.494471e-04  1.671101e-07
     10      5   2   0.50000     0.0600000   -0.1200000   2.494471e-04  1.671101e-07
     10     12   2   0.50000     0.0600000    0.0600000   6.128906e-05  1.496315e-08
     10     13   2   0.50000     0.0600000    0.0600000   6.128906e-05  1.496315e-08
     11      5   2   0.50000     0.0600000   -0.1200000   2.494471e-04  1.671101e-07
     11     12   2   0.50000     0.0600000    0.0600000   6.128906e-05  1.496315e-08
     11     13   2   0.50000     0.0600000    0.0600000   6.128906e-05  1.496315e-08
      3     14   2   0.50000    -0.1200000    0.0600000   2.494471e-04  1.671101e-07
      3     15   2   0.50000    -0.1200000    0.0600000   2.494471e-04  1.671101e-07
     12      6   2   0.50000     0.0600000   -0.1200000   2.494471e-04  1.671101e-07
     12     14   2   0.50000     0.0600000    0.0600000   6.128906e-05  1.496315e-08
     12     15   2   0.50000     0.0600000    0.0600000   6.128906e-05  1.496315e-08
     13      6   2   0.50000     0.0600000   -0.1200000   2.494471e-04  1.671101e-07
     13     14   2   0.50000     0.0600000    0.0600000   6.128906e-05  1.496315e-08
     13     15   2   0.50000     0.0600000    0.0600000   6.128906e-05  1.496315e-08
      4     16   2   0.50000    -0.1200000    0.0600000   2.494471e-04  1.671101e-07
      4     17   2   0.50000    -0.1200000    0.0600000   2.494471e-04  1.671101e-07
     14      2   2   0.50000     0.0600000   -0.0600000   2.494471e-04  1.671101e-07
     14     16   2   0.50000     0.0600000    0.0600000   6.128906e-05  1.496315e-08
     14     17   2   0.50000     0.0600000    0.0600000   6.128906e-05  1.496315e-08
     15      2   2   0.50000     0.0600000   -0.0600000   2.494471e-04  1.671101e-07
     15     16   2   0.50000     0.0600000    0.0600000   6.128906e-05  1.496315e-08
     15     17   2   0.50000     0.0600000    0.0600000   6.128906e-05  1.496315e-08
      1     22   2   0.50000    -0.1200000   -0.0600000   1.015252e-03  1.866303e-06
      1     27   2   0.50000    -0.1200000   -0.1200000   1.015252e-03  1.866303e-06
      1     28   2   0.50000    -0.1200000    0.0600000   2.494471e-04  1.671101e-07
     18     22   2   0.50000     0.0600000   -0.0600000   2.494471e-04  1.671101e-07
     18     27   2   0.50000     0.0600000   -0.1200000   2.494471e-04  1.671101e-07
     18     28   2   0.50000     0.0600000    0.0600000   6.128906e-05  1.496315e-08
     19     22   2   0.50000     0.0600000   -0.0600000   2.494471e-04  1.671101e-07
     19     27   2   0.50000     0.0600000   -0.1200000   2.494471e-04  1.671101e-07
     19     28   2   0.50000     0.0600000    0.0600000   6.128906e-05  1.496315e-08
      7     23   2   0.50000    -0.1200000   -0.1200000   1.015252e-03  1.866303e-06
      7     26   2   0.50000    -0.1200000   -0.1200000   1.015252e-03  1.866303e-06
      7     29   2   0.50000    -0.1200000    0.0600000   2.494471e-04  1.671101e-07
     27     23   2   0.50000    -0.1200000   -0.1200000   1.015252e-03  1.866303e-06
     27     26   2   0.50000    -0.1200000   -0.1200000   1.015252e-03  1.866303e-06
     27     29   2   0.50000    -0.1200000    0.0600000   2.494471e-04  1.671101e-07
     28     23   2   0.50000     0.0600000   -0.1200000   2.494471e-04  1.671101e-07
     28     26   2   0.50000     0.0600000   -0.1200000   2.494471e-04  1.671101e-07
     28     29   2   0.50000     0.0600000    0.0600000   6.128906e-05  1.496315e-08
      7     38   2   0.50000    -0.1200000    0.0600000   2.494471e-04  1.671101e-07
      7     39   2   0.50000    -0.1200000    0.0600000   2.494471e-04  1.671101e-07
      7     40   2   0.50000    -0.1200000   -0.0600000   1.015252e-03  1.866303e-06
     22     38   2   0.50000    -0.0600000    0.0600000   2.494471e-04  1.671101e-07
     22     39   2   0.50000    -0.0600000    0.0600000   2.494471e-04  1.671101e-07
     22     40   2   0.50000    -0.0600000   -0.0600000   1.015252e-03  1.866303e-06
     28     38   2   0.50000     0.0600000    0.0600000   6.128906e-05  1.496315e-08
     28     39   2   0.50000     0.0600000    0.0600000   6.128906e-05  1.496315e-08
     28     40   2   0.50000     0.0600000   -0.0600000   2.494471e-04  1.671101e-07
     21     24   2   0.50000    -0.0600000   -0.1200000   1.015252e-03  1.866303e-06
     21     30   2   0.50000    -0.0600000    0.0600000   2.494471e-04  1.671101e-07
     21     31   2   0.50000    -0.0600000    0.0600000   2.494471e-04  1.671101e-07
     26     30   2   0.50000    -0.1200000    0.0600000   2.494471e-04  1.671101e-07
     26     31   2   0.50000    -0.1200000    0.0600000   2.494471e-04  1.671101e-07
     29     24   2   0.50000     0.0600000   -0.1200000   2.494471e-04  1.671101e-07
     29     30   2   0.50000     0.0600000    0.0600000   6.128906e-05  1.496315e-08
     29     31   2   0.50000     0.0600000    0.0600000   6.128906e-05  1.496315e-08
     21     25   2   0.50000    -0.0600000   -0.1200000   1.015252e-03  1.866303e-06
     21     36   2   0.50000    -0.0600000    0.0600000   2.494471e-04  1.671101e-07
     21     37   2   0.50000    -0.0600000    0.0600000   2.494471e-04  1.671101e-07
     23     36   2   0.50000    -0.1200000    0.0600000   2.494471e-04  1.671101e-07
     23     37   2   0.50000    -0.1200000    0.0600000   2.494471e-04  1.671101e-07
     29     25   2   0.50000     0.0600000   -0.1200000   2.494471e-04  1.671101e-07
     29     36   2   0.50000     0.0600000    0.0600000   6.128906e-05  1.496315e-08
     29     37   2   0.50000     0.0600000    0.0600000   6.128906e-05  1.496315e-08
     22     32   2   0.50000    -0.0600000    0.0600000   2.494471e-04  1.671101e-07
     22     33   2   0.50000    -0.0600000    0.0600000   2.494471e-04  1.671101e-07
     30     25   2   0.50000     0.0600000   -0.1200000   2.494471e-04  1.671101e-07
     30     32   2   0.50000     0.0600000    0.0600000   6.128906e-05  1.496315e-08
     30     33   2   0.50000     0.0600000    0.0600000   6.128906e-05  1.496315e-08
     31     25   2   0.50000     0.0600000   -0.1200000   2.494471e-04  1.671101e-07
     31     32   2   0.50000     0.0600000    0.0600000   6.128906e-05  1.496315e-08
     31     33   2   0.50000     0.0600000    0.0600000   6.128906e-05  1.496315e-08
     23     34   2   0.50000    -0.1200000    0.0600000   2.494471e-04  1.671101e-07
     23     35   2   0.50000    -0.1200000    0.0600000   2.494471e-04  1.671101e-07
     32     26   2   0.50000     0.0600000   -0.1200000   2.494471e-04  1.671101e-07
     32     34   2   0.50000     0.0600000    0.0600000   6.128906e-05  1.496315e-08
     32     35   2   0.50000     0.0600000    0.0600000   6.128906e-05  1.496315e-08
     33     26   2   0.50000     0.0600000   -0.1200000   2.494471e-04  1.671101e-07
     33     34   2   0.50000     0.0600000    0.0600000   6.128906e-05  1.496315e-08
     33     35   2   0.50000     0.0600000    0.0600000   6.128906e-05  1.496315e-08
     24     36   2   0.50000    -0.1200000    0.0600000   2.494471e-04  1.671101e-07
     24     37   2   0.50000    -0.1200000    0.0600000   2.494471e-04  1.671101e-07
     34     22   2   0.50000     0.0600000   -0.0600000   2.494471e-04  1.671101e-07
     34     36   2   0.50000     0.0600000    0.0600000   6.128906e-05  1.496315e-08
     34     37   2   0.50000     0.0600000    0.0600000   6.128906e-05  1.496315e-08
     35     22   2   0.50000     0.0600000   -0.0600000   2.494471e-04  1.671101e-07
     35     36   2   0.50000     0.0600000    0.0600000   6.128906e-05  1.496315e-08
     35     37   2   0.50000     0.0600000    0.0600000   6.128906e-05  1.496315e-08
     21     41   2   0.50000    -0.0600000   -0.0600000   1.015252e-03  1.866303e-06
     21     46   2   0.50000    -0.0600000   -0.1200000   1.015252e-03  1.866303e-06
     21     47   2   0.50000    -0.0600000    0.0600000   2.494471e-04  1.671101e-07
     38     41   2   0.50000     0.0600000   -0.0600000   2.494471e-04  1.671101e-07
     38     46   2   0.50000     0.0600000   -0.1200000   2.494471e-04  1.671101e-07
     38     47   2   0.50000     0.0600000    0.0600000   6.128906e-05  1.496315e-08
     39     41   2   0.50000     0.0600000   -0.0600000   2.494471e-04  1.671101e-07
     39     46   2   0.50000     0.0600000   -0.1200000   2.494471e-04  1.671101e-07
     39     47   2   0.50000     0.0600000    0.0600000   6.128906e-05  1.496315e-08
     27     42   2   0.50000    -0.1200000   -0.1200000   1.015252e-03  1.866303e-06
     27     45   2   0.50000    -0.1200000   -0.1200000   1.015252e-03  1.866303e-06
     27     48   2   0.50000    -0.1200000    0.0600000   2.494471e-04  1.671101e-07
     46     42   2   0.50000    -0.1200000   -0.1200000   1.015252e-03  1.866303e-06
     46     45   2   0.50000    -0.1200000   -0.1200000   1.015252e-03  1.866303e-06
     46     48   2   0.50000    -0.1200000    0.0600000   2.494471e-04  1.671101e-07
     47     42   2   0.50000     0.0600000   -0.1200000   2.494471e-04  1.671101e-07
     47     45   2   0.50000     0.0600000   -0.1200000   2.494471e-04  1.671101e-07
     47     48   2   0.50000     0.0600000    0.0600000   6.128906e-05  1.496315e-08
     27     57   2   0.50000    -0.1200000    0.0600000   2.494471e-04  1.671101e-07
     27     58   2   0.50000    -0.1200000    0.0600000   2.494471e-04  1.671101e-07
     27     59   2   0.50000    -0.1200000   -0.0600000   1.015252e-03  1.866303e-06
     41     57   2   0.50000    -0.0600000    0.0600000   2.494471e-04  1.671101e-07
     41     58   2   0.50000    -0.0600000    0.0600000   2.494471e-04  1.671101e-07
     41     59   2   0.50000    -0.0600000   -0.0600000   1.015252e-03  1.866303e-06
     47     57   2   0.50000     0.0600000    0.0600000   6.128906e-05  1.496315e-08
     47     58   2   0.50000     0.0600000    0.0600000   6.128906e-05  1.496315e-08
     47     59   2   0.50000     0.0600000   -0.0600000   2.494471e-04  1.671101e-07
     40     43   2   0.50000    -0.0600000   -0.1200000   1.015252e-03  1.866303e-06
     40     49   2   0.50000    -0.0600000    0.0600000   2.494471e-04  1.671101e-07
     40     50   2   0.50000    -0.0600000    0.0600000   2.494471e-04  1.671101e-07
     45     49   2   0.50000    -0.1200000    0.0600000   2.494471e-04  1.671101e-07
     45     50   2   0.50000    -0.1200000    0.0600000   2.494471e-04  1.671101e-07
     48     43   2   0.50000     0.0600000   -0.1200000   2.494471e-04  1.671101e-07
     48     49   2   0.50000     0.0600000    0.0600000   6.128906e-05  1.496315e-08
     48     50   2   0.50000     0.0600000    0.0600000   6.128906e-05  1.496315e-08
     40     44   2   0.50000    -0.0600000   -0.1200000   1.015252e-03  1.866303e-06
     40     55   2   0.50000    -0.0600000    0.0600000   2.494471e-04  1.671101e-07
     40     56   2   0.50000    -0.0600000    0.0600000   2.494471e-04  1.671101e-07
     42     55   2   0.50000    -0.1200000    0.0600000   2.494471e-04  1.671101e-07
     42     56   2   0.50000    -0.1200000    0.0600000   2.494471e-04  1.671101e-07
     48     44   2   0.50000     0.0600000   -0.1200000   2.494471e-04  1.671101e-07
     48     55   2   0.50000     0.0600000    0.0600000   6.128906e-05  1.496315e-08
     48     56   2   0.50000     0.0600000    0.0600000   6.128906e-05  1.496315e-08
     41     51   2   0.50000    -0.0600000    0.0600000   2.494471e-04  1.671101e-07
     41     52   2   0.50000    -0.0600000    0.0600000   2.494471e-04  1.671101e-07
     49     44   2   0.50000     0.0600000   -0.1200000   2.494471e-04  1.671101e-07
     49     51   2   0.50000     0.0600000    0.0600000   6.128906e-05  1.496315e-08
     49     52   2   0.50000     0.0600000    0.0600000   6.128906e-05  1.496315e-08
     50     44   2   0.50000     0.0600000   -0.1200000   2.494471e-04  1.671101e-07
     50     51   2   0.50000     0.0600000    0.0600000   6.128906e-05  1.496315e-08
     50     52   2   0.50000     0.0600000    0.0600000   6.128906e-05  1.496315e-08
     42     53   2   0.50000    -0.1200000    0.0600000   2.494471e-04  1.671101e-07
     42     54   2   0.50000    -0.1200000    0.0600000   2.494471e-04  1.671101e-07
     51     45   2   0.50000     0.0600000   -0.1200000   2.494471e-04  1.671101e-07
     51     53   2   0.50000     0.0600000    0.0600000   6.128906e-05  1.496315e-08
     51     54   2   0.50000     0.0600000    0.0600000   6.128906e-05  1.496315e-08
     52     45   2   0.50000     0.0600000   -0.1200000   2.494471e-04  1.671101e-07
     52     53   2   0.50000     0.0600000    0.0600000   6.128906e-05  1.496315e-08
     52     54   2   0.50000     0.0600000    0.0600000   6.128906e-05  1.496315e-08
     43     55   2   0.50000    -0.1200000    0.0600000   2.494471e-04  1.671101e-07
     43     56   2   0.50000    -0.1200000    0.0600000   2.494471e-04  1.671101e-07
     53     41   2   0.50000     0.0600000   -0.0600000   2.494471e-04  1.671101e-07
     53     55   2   0.50000     0.0600000    0.0600000   6.128906e-05  1.496315e-08
     53     56   2   0.50000     0.0600000    0.0600000   6.128906e-05  1.496315e-08
     54     41   2   0.50000     0.0600000   -0.0600000   2.494471e-04  1.671101e-07
     54     55   2   0.50000     0.0600000    0.0600000   6.128906e-05  1.496315e-08
     54     56   2   0.50000     0.0600000    0.0600000   6.128906e-05  1.496315e-08
     40     60   2   0.50000    -0.0600000   -0.0600000   1.015252e-03  1.866303e-06
     40     65   2   0.50000    -0.0600000   -0.1200000   1.015252e-03  1.866303e-06
     40     66   2   0.50000    -0.0600000    0.0600000   2.494471e-04  1.671101e-07
     57     60   2   0.50000     0.0600000   -0.0600000   2.494471e-04  1.671101e-07
     57     65   2   0.50000     0.0600000   -0.1200000   2.494471e-04  1.671101e-07
     57     66   2   0.50000     0.0600000    0.0600000   6.128906e-05  1.496315e-08
     58     60   2   0.50000     0.0600000   -0.0600000   2.494471e-04  1.671101e-07
     58     65   2   0.50000     0.0600000   -0.1200000   2.494471e-04  1.671101e-07
     58     66   2   0.50000     0.0600000    0.0600000   6.128906e-05  1.496315e-08
     46     61   2   0.50000    -0.1200000   -0.1200000   1.015252e-03  1.866303e-06
     46     64   2   0.50000    -0.1200000   -0.1200000   1.015252e-03  1.866303e-06
     46     67   2   0.50000    -0.1200000    0.0600000   2.494471e-04  1.671101e-07
     65     61   2   0.50000    -0.1200000   -0.1200000   1.015252e-03  1.866303e-06
     65     64   2   0.50000    -0.1200000   -0.1200000   1.015252e-03  1.866303e-06
     65     67   2   0.50000    -0.1200000    0.0600000   2.494471e-04  1.671101e-07
     66     61   2   0.50000     0.0600000   -0.1200000   2.494471e-04  1.671101e-07
     66     64   2   0.50000     0.0600000   -0.1200000   2.494471e-04  1.671101e-07
     66     67   2   0.50000     0.0600000    0.0600000   6.128906e-05  1.496315e-08
     46     76   2   0.50000    -0.1200000    0.0600000   2.494471e-04  1.671101e-07
     46     77   2   0.50000    -0.1200000    0.0600000   2.494471e-04  1.671101e-07
     46     78   2   0.50000    -0.1200000   -0.0600000   1.015252e-03  1.866303e-06
     60     76   2   0.50000    -0.0600000    0.0600000   2.494471e-04  1.671101e-07
     60     77   2   0.50000    -0.0600000    0.0600000   2.494471e-04  1.671101e-07
     60     78   2   0.50000    -0.0600000   -0.0600000   1.015252e-03  1.866303e-06
     66     76   2   0.50000     0.0600000    0.0600000   6.128906e-05  1.496315e-08
     66     77   2   0.50000     0.0600000    0.0600000   6.128906e-05  1.496315e-08
     66     78   2   0.50000     0.0600000   -0.0600000   2.494471e-04  1.671101e-07
     59     62   2   0.50000    -0.0600000   -0.1200000   1.015252e-03  1.866303e-06
     59     68   2   0.50000    -0.0600000    0.0600000   2.494471e-04  1.671101e-07
     59     69   2   0.50000    -0.0600000    0.0600000   2.494471e-04  1.671101e-07
     64     68   2   0.50000    -0.1200000    0.0600000   2.494471e-04  1.671101e-07
     64     69   2   0.50000    -0.1200000    0.0600000   2.494471e-04  1.671101e-07
     67     62   2   0.50000     0.0600000   -0.1200000   2.494471e-04  1.671101e-07
     67     68   2   0.50000     0.0600000    0.0600000   6.128906e-05  1.496315e-08
     67     69   2   0.50000     0.0600000    0.0600000   6.128906e-05  1.496315e-08
     59     63   2   0.50000    -0.0600000   -0.1200000   1.015252e-03  1.866303e-06
     59     74   2   0.50000    -0.0600000    0.0600000   2.494471e-04  1.671101e-07
     59     75   2   0.50000    -0.0600000    0.0600000   2.494471e-04  1.671101e-07
     61     74   2   0.50000    -0.1200000    0.0600000   2.494471e-04  1.671101e-07
     61     75   2   0.50000    -0.1200000    0.0600000   2.494471e-04  1.671101e-07
     67     63   2   0.50000     0.0600000   -0.1200000   2.494471e-04  1.671101e-07
     67     74   2   0.50000     0.0600000    0.0600000   6.128906e-05  1.496315e-08
     67     75   2   0.50000     0.0600000    0.0600000   6.128906e-05  1.496315e-08
     60     70   2   0.50000    -0.0600000    0.0600000   2.494471e-04  1.671101e-07
     60     71   2   0.50000    -0.0600000    0.0600000   2.494471e-04  1.671101e-07
     68     63   2   0.50000     0.0600000   -0.1200000   2.494471e-04  1.671101e-07
     68     70   2   0.50000     0.0600000    0.0600000   6.128906e-05  1.496315e-08
     68     71   2   0.50000     0.0600000    0.0600000   6.128906e-05  1.496315e-08
     69     63   2   0.50000     0.0600000   -0.1200000   2.494471e-04  1.671101e-07
     69     70   2   0.50000     0.0600000    0.0600000   6.128906e-05  1.496315e-08
     69     71   2   0.50000     0.0600000    0.0600000   6.128906e-05  1.496315e-08
     61     72   2   0.50000    -0.1200000    0.0600000   2.494471e-04  1.671101e-07
     61     73   2   0.50000    -0.1200000    0.0600000   2.494471e-04  1.671101e-07
     70     64   2   0.50000     0.0600000   -0.1200000   2.494471e-04  1.671101e-07
     70     72   2   0.50000     0.0600000    0.0600000   6.128906e-05  1.496315e-08
     70     73   2   0.50000     0.0600000    0.0600000   6.128906e-05  1.496315e-08
     71     64   2   0.50000     0.0600000   -0.1200000   2.494471e-04  1.671101e-07
     71     72   2   0.50000     0.0600000    0.0600000   6.128906e-05  1.496315e-08
     71     73   2   0.50000     0.0600000    0.0600000   6.128906e-05  1.496315e-08
     62     74   2   0.50000    -0.1200000    0.0600000   2.494471e-04  1.671101e-07
     62     75   2   0.50000    -0.1200000    0.0600000   2.494471e-04  1.671101e-07
     72     60   2   0.50000     0.0600000   -0.0600000   2.494471e-04  1.671101e-07
     72     74   2   0.50000     0.0600000    0.0600000   6.128906e-05  1.496315e-08
     72     75   2   0.50000     0.0600000    0.0600000   6.128906e-05  1.496315e-08
     73     60   2   0.50000     0.0600000   -0.0600000   2.494471e-04  1.671101e-07
     73     74   2   0.50000     0.0600000    0.0600000   6.128906e-05  1.496315e-08
     73     75   2   0.50000     0.0600000    0.0600000   6.128906e-05  1.496315e-08
     59     79   2   0.50000    -0.0600000   -0.0600000   1.015252e-03  1.866303e-06
     59     84   2   0.50000    -0.0600000   -0.1200000   1.015252e-03  1.866303e-06
     59     85   2   0.50000    -0.0600000    0.0600000   2.494471e-04  1.671101e-07
     76     79   2   0.50000     0.0600000   -0.0600000   2.494471e-04  1.671101e-07
     76     84   2   0.50000     0.0600000   -0.1200000   2.494471e-04  1.671101e-07
     76     85   2   0.50000     0.0600000    0.0600000   6.128906e-05  1.496315e-08
     77     79   2   0.50000     0.0600000   -0.0600000   2.494471e-04  1.671101e-07
     77     84   2   0.50000     0.0600000   -0.1200000   2.494471e-04  1.671101e-07
     77     85   2   0.50000     0.0600000    0.0600000   6.128906e-05  1.496315e-08
     65     80   2   0.50000    -0.1200000   -0.1200000   1.015252e-03  1.866303e-06
     65     83   2   0.50000    -0.1200000   -0.1200000   1.015252e-03  1.866303e-06
     65     86   2   0.50000    -0.1200000    0.0600000   2.494471e-04  1.671101e-07
     84     80   2   0.50000    -0.1200000   -0.1200000   1.015252e-03  1.866303e-06
     84     83   2   0.50000    -0.1200000   -0.1200000   1.015252e-03  1.866303e-06
     84     86   2   0.50000    -0.1200000    0.0600000   2.494471e-04  1.671101e-07
     85     80   2   0.50000     0.0600000   -0.1200000   2.494471e-04  1.671101e-07
     85     83   2   0.50000     0.0600000   -0.1200000   2.494471e-04  1.671101e-07
     85     86   2   0.50000     0.0600000    0.0600000   6.128906e-05  1.496315e-08
     65     95   2   0.50000    -0.1200000    0.0600000   2.494471e-04  1.671101e-07
     65     96   2   0.50000    -0.1200000    0.0600000   2.494471e-04  1.671101e-07
     65     97   2   0.50000    -0.1200000   -0.0600000   1.015252e-03  1.866303e-06
     79     95   2   0.50000    -0.0600000    0.0600000   2.494471e-04  1.671101e-07
     79     96   2   0.50000    -0.0600000    0.0600000   2.494471e-04  1.671101e-07
     79     97   2   0.50000    -0.0600000   -0.0600000   1.015252e-03  1.866303e-06
     85     95   2   0.50000     0.0600000    0.0600000   6.128906e-05  1.496315e-08
     85     96   2   0.50000     0.0600000    0.0600000   6.128906e-05  1.496315e-08
     85     97   2   0.50000     0.0600000   -0.0600000   2.494471e-04  1.671101e-07
     78     81   2   0.50000    -0.0600000   -0.1200000   1.015252e-03  1.866303e-06
     78     87   2   0.50000    -0.0600000    0.0600000   2.494471e-04  1.671101e-07
     78     88   2   0.50000    -0.0600000    0.0600000   2.494471e-04  1.671101e-07
     83     87   2   0.50000    -0.1200000    0.0600000   2.494471e-04  1.671101e-07
     83     88   2   0.50000    -0.1200000    0.0600000   2.494471e-04  1.671101e-07
     86     81   2   0.50000     0.0600000   -0.1200000   2.494471e-04  1.671101e-07
     86     87   2   0.50000     0.0600000    0.0600000   6.128906e-05  1.496315e-08
     86     88   2   0.50000     0.0600000    0.0600000   6.128906e-05  1.496315e-08
     78     82   2   0.50000    -0.0600000   -0.1200000   1.015252e-03  1.866303e-06
     78     93   2   0.50000    -0.0600000    0.0600000   2.494471e-04  1.671101e-07
     78     94   2   0.50000    -0.0600000    0.0600000   2.494471e-04  1.671101e-07
     80     93   2   0.50000    -0.1200000    0.0600000   2.494471e-04  1.671101e-07
     80     94   2   0.50000    -0.1200000    0.0600000   2.494471e-04  1.671101e-07
     86     82   2   0.50000     0.0600000   -0.1200000   2.494471e-04  1.671101e-07
     86     93   2   0.50000     0.0600000    0.0600000   6.128906e-05  1.496315e-08
     86     94   2   0.50000     0.0600000    0.0600000   6.128906e-05  1.496315e-08
     79     89   2   0.50000    -0.0600000    0.0600000   2.494471e-04  1.671101e-07
     79     90   2   0.50000    -0.0600000    0.0600000   2.494471e-04  1.671101e-07
     87     82   2   0.50000     0.0600000   -0.1200000   2.494471e-04  1.671101e-07
     87     89   2   0.50000     0.0600000    0.0600000   6.128906e-05  1.496315e-08
     87     90   2   0.50000     0.0600000    0.0600000   6.128906e-05  1.496315e-08
     88     82   2   0.50000     0.0600000   -0.1200000   2.494471e-04  1.671101e-07
     88     89   2   0.50000     0.0600000    0.0600000   6.128906e-05  1.496315e-08
     88     90   2   0.50000     0.0600000    0.0600000   6.128906e-05  1.496315e-08
     80     91   2   0.50000    -0.1200000    0.0600000   2.494471e-04  1.671101e-07
     80     92   2   0.50000    -0.1200000    0.0600000   2.494471e-04  1.671101e-07
     89     83   2   0.50000     0.0600000   -0.1200000   2.494471e-04  1.671101e-07
     89     91   2   0.50000     0.0600000    0.0600000   6.128906e-05  1.496315e-08
     89     92   2   0.50000     0.0600000    0.0600000   6.128906e-05  1.496315e-08
     90     83   2   0.50000     0.0600000   -0.1200000   2.494471e-04  1.671101e-07
     90     91   2   0.50000     0.0600000    0.0600000   6.128906e-05  1.496315e-08
     90     92   2   0.50000     0.0600000    0.0600000   6.128906e-05  1.496315e-08
     81     93   2   0.50000    -0.1200000    0.0600000   2.494471e-04  1.671101e-07
     81     94   2   0.50000    -0.1200000    0.0600000   2.494471e-04  1.671101e-07
     91     79   2   0.50000     0.0600000   -0.0600000   2.494471e-04  1.671101e-07
     91     93   2   0.50000     0.0600000    0.0600000   6.128906e-05  1.496315e-08
     91     94   2   0.50000     0.0600000    0.0600000   6.128906e-05  1.496315e-08
     92     79   2   0.50000     0.0600000   -0.0600000   2.494471e-04  1.671101e-07
     92     93   2   0.50000     0.0600000    0.0600000   6.128906e-05  1.496315e-08
     92     94   2   0.50000     0.0600000    0.0600000   6.128906e-05  1.496315e-08
     78     98   2   0.50000    -0.0600000   -0.0600000   1.015252e-03  1.866303e-06
     78    103   2   0.50000    -0.0600000   -0.1200000   1.015252e-03  1.866303e-06
     78    104   2   0.50000    -0.0600000    0.0600000   2.494471e-04  1.671101e-07
     95     98   2   0.50000     0.0600000   -0.0600000   2.494471e-04  1.671101e-07
     95    103   2   0.50000     0.0600000   -0.1200000   2.494471e-04  1.671101e-07
     95    104   2   0.50000     0.0600000    0.0600000   6.128906e-05  1.496315e-08
     96     98   2   0.50000     0.0600000   -0.0600000   2.494471e-04  1.671101e-07
     96    103   2   0.50000     0.0600000   -0.1200000   2.494471e-04  1.671101e-07
     96    104   2   0.50000     0.0600000    0.0600000   6.128906e-05  1.496315e-08
     84     99   2   0.50000    -0.1200000   -0.1200000   1.015252e-03  1.866303e-06
     84    102   2   0.50000    -0.1200000   -0.1200000   1.015252e-03  1.866303e-06
     84    105   2   0.50000    -0.1200000    0.0600000   2.494471e-04  1.671101e-07
    103     99   2   0.50000    -0.1200000   -0.1200000   1.015252e-03  1.866303e-06
    103    102   2   0.50000    -0.1200000   -0.1200000   1.015252e-03  1.866303e-06
    103    105   2   0.50000    -0.1200000    0.0600000   2.494471e-04  1.671101e-07
    104     99   2   0.50000     0.0600000   -0.1200000   2.494471e-04  1.671101e-07
    104    102   2   0.50000     0.0600000   -0.1200000   2.494471e-04  1.671101e-07
    104    105   2   0.50000     0.0600000    0.0600000   6.128906e-05  1.496315e-08
     84    114   2   0.50000    -0.1200000    0.0600000   2.494471e-04  1.671101e-07
     84    115   2   0.50000    -0.1200000    0.0600000   2.494471e-04  1.671101e-07
     84    116   2   0.50000    -0.1200000   -0.0600000   1.015252e-03  1.866303e-06
     98    114   2   0.50000    -0.0600000    0.0600000   2.494471e-04  1.671101e-07
     98    115   2   0.50000    -0.0600000    0.0600000   2.494471e-04  1.671101e-07
     98    116   2   0.50000    -0.0600000   -0.0600000   1.015252e-03  1.866303e-06
    104    114   2   0.50000     0.0600000    0.0600000   6.128906e-05  1.496315e-08
    104    115   2   0.50000     0.0600000    0.0600000   6.128906e-05  1.496315e-08
    104    116   2   0.50000     0.0600000   -0.0600000   2.494471e-04  1.671101e-07
     97    100   2   0.50000    -0.0600000   -0.1200000   1.015252e-03  1.866303e-06
     97    106   2   0.50000    -0.0600000    0.0600000   2.494471e-04  1.671101e-07
     97    107   2   0.50000    -0.0600000    0.0600000   2.494471e-04  1.671101e-07
    102    106   2   0.50000    -0.1200000    0.0600000   2.494471e-04  1.671101e-07
    102    107   2   0.50000    -0.1200000    0.0600000   2.494471e-04  1.671101e-07
    105    100   2   0.50000     0.0600000   -0.1200000   2.494471e-04  1.671101e-07
    105    106   2   0.50000     0.0600000    0.0600000   6.128906e-05  1.496315e-08
    105    107   2   0.50000     0.0600000    0.0600000   6.128906e-05  1.496315e-08
     97    101   2   0.50000    -0.0600000   -0.1200000   1.015252e-03  1.866303e-06
     97    112   2   0.50000    -0.0600000    0.0600000   2.494471e-04  1.671101e-07
     97    113   2   0.50000    -0.0600000    0.0600000   2.494471e-04  1.671101e-07
     99    112   2   0.50000    -0.1200000    0.0600000   2.494471e-04  1.671101e-07
     99    113   2   0.50000    -0.1200000    0.0600000   2.494471e-04  1.671101e-07
    105    101   2   0.50000     0.0600000   -0.1200000   2.494471e-04  1.671101e-07
    105    112   2   0.50000     0.0600000    0.0600000   6.128906e-05  1.496315e-08
    105    113   2   0.50000     0.0600000    0.0600000   6.128906e-05  1.496315e-08
     98    108   2   0.50000    -0.0600000    0.0600000   2.494471e-04  1.671101e-07
     98    109   2   0.50000    -0.0600000    0.0600000   2.494471e-04  1.671101e-07
    106    101   2   0.50000     0.0600000   -0.1200000   2.494471e-04  1.671101e-07
    106    108   2   0.50000     0.0600000    0.0600000   6.128906e-05  1.496315e-08
    106    109   2   0.50000     0.0600000    0.0600000   6.128906e-05  1.496315e-08
    107    101   2   0.50000     0.0600000   -0.1200000   2.494471e-04  1.671101e-07
    107    108   2   0.50000     0.0600000    0.0600000   6.128906e-05  1.496315e-08
    107    109   2   0.50000     0.0600000    0.0600000   6.128906e-05  1.496315e-08
     99    110   2   0.50000    -0.1200000    0.0600000   2.494471e-04  1.671101e-07
     99    111   2   0.50000    -0.1200000    0.0600000   2.494471e-04  1.671101e-07
    108    102   2   0.50000     0.0600000   -0.1200000   2.494471e-04  1.671101e-07
    108    110   2   0.50000     0.0600000    0.0600000   6.128906e-05  1.496315e-08
    108    111   2   0.50000     0.0600000    0.0600000   6.128906e-05  1.496315e-08
    109    102   2   0.50000     0.0600000   -0.1200000   2.494471e-04  1.671101e-07
    109    110   2   0.50000     0.0600000    0.0600000   6.128906e-05  1.496315e-08
    109    111   2   0.50000     0.0600000    0.0600000   6.128906e-05  1.496315e-08
    100    112   2   0.50000    -0.1200000    0.0600000   2.494471e-04  1.671101e-07
    100    113   2   0.50000    -0.1200000    0.0600000   2.494471e-04  1.671101e-07
    110     98   2   0.50000     0.0600000   -0.0600000   2.494471e-04  1.671101e-07
    110    112   2   0.50000     0.0600000    0.0600000   6.128906e-05  1.496315e-08
    110    113   2   0.50000     0.0600000    0.0600000   6.128906e-05  1.496315e-08
    111     98   2   0.50000     0.0600000   -0.0600000   2.494471e-04  1.671101e-07
    111    112   2   0.50000     0.0600000    0.0600000   6.128906e-05  1.496315e-08
    111    113   2   0.50000     0.0600000    0.0600000   6.128906e-05  1.496315e-08
     97    117   2   0.50000    -0.0600000   -0.0600000   1.015252e-03  1.866303e-06
     97    122   2   0.50000    -0.0600000   -0.1200000   1.015252e-03  1.866303e-06
     97    123   2   0.50000    -0.0600000    0.0600000   2.494471e-04  1.671101e-07
    114    117   2   0.50000     0.0600000   -0.0600000   2.494471e-04  1.671101e-07
    114    122   2   0.50000     0.0600000   -0.1200000   2.494471e-04  1.671101e-07
    114    123   2   0.50000     0.0600000    0.0600000   6.128906e-05  1.496315e-08
    115    117   2   0.50000     0.0600000   -0.0600000   2.494471e-04  1.671101e-07
    115    122   2   0.50000     0.0600000   -0.1200000   2.494471e-04  1.671101e-07
    115    123   2   0.50000     0.0600000    0.0600000   6.128906e-05  1.496315e-08
    103    118   2   0.50000    -0.1200000   -0.1200000   1.015252e-03  1.866303e-06
    103    121   2   0.50000    -0.1200000   -0.1200000   1.015252e-03  1.866303e-06
    103    124   2   0.50000    -0.1200000    0.0600000   2.494471e-04  1.671101e-07
    122    118   2   0.50000    -0.1200000   -0.1200000   1.015252e-03  1.866303e-06
    122    121   2   0.50000    -0.1200000   -0.1200000   1.015252e-03  1.866303e-06
    122    124   2   0.50000    -0.1200000    0.0600000   2.494471e-04  1.671101e-07
    123    118   2   0.50000     0.0600000   -0.1200000   2.494471e-04  1.671101e-07
    123    121   2   0.50000     0.0600000   -0.1200000   2.494471e-04  1.671101e-07
    123    124   2   0.50000     0.0600000    0.0600000   6.128906e-05  1.496315e-08
    103    133   2   0.50000    -0.1200000    0.0600000   2.494471e-04  1.671101e-07
    103    134   2   0.50000    -0.1200000    0.0600000   2.494471e-04  1.671101e-07
    103    135   2   0.50000    -0.1200000   -0.0600000   1.015252e-03  1.866303e-06
    117    133   2   0.50000    -0.0600000    0.0600000   2.494471e-04  1.671101e-07
    117    134   2   0.50000    -0.0600000    0.0600000   2.494471e-04  1.671101e-07
    117    135   2   0.50000    -0.0600000   -0.0600000   1.015252e-03  1.866303e-06
    123    133   2   0.50000     0.0600000    0.0600000   6.128906e-05  1.496315e-08
    123    134   2   0.50000     0.0600000    0.0600000   6.128906e-05  1.496315e-08
    123    135   2   0.50000     0.0600000   -0.0600000   2.494471e-04  1.671101e-07
    116    119   2   0.50000    -0.0600000   -0.1200000   1.015252e-03  1.866303e-06
    116    125   2   0.50000    -0.0600000    0.0600000   2.494471e-04  1.671101e-07
    116    126   2   0.50000    -0.0600000    0.0600000   2.494471e-04  1.671101e-07
    121    125   2   0.50000    -0.1200000    0.0600000   2.494471e-04  1.671101e-07
    121    126   2   0.50000    -0.1200000    0.0600000   2.494471e-04  1.671101e-07
    124    119   2   0.50000     0.0600000   -0.1200000   2.494471e-04  1.671101e-07
    124    125   2   0.50000     0.0600000    0.0600000   6.128906e-05  1.496315e-08
    124    126   2   0.50000     0.0600000    0.0600000   6.128906e-05  1.496315e-08
    116    120   2   0.50000    -0.0600000   -0.1200000   1.015252e-03  1.866303e-06
    116    131   2   0.50000    -0.0600000    0.0600000   2.494471e-04  1.671101e-07
    116    132   2   0.50000    -0.0600000    0.0600000   2.494471e-04  1.671101e-07
    118    131   2   0.50000    -0.1200000    0.0600000   2.494471e-04  1.671101e-07
    118    132   2   0.50000    -0.1200000    0.0600000   2.494471e-04  1.671101e-07
    124    120   2   0.50000     0.0600000   -0.1200000   2.494471e-04  1.671101e-07
    124    131   2   0.50000     0.0600000    0.0600000   6.128906e-05  1.496315e-08
    124    132   2   0.50000     0.0600000    0.0600000   6.128906e-05  1.496315e-08
    117    127   2   0.50000    -0.0600000    0.0600000   2.494471e-04  1.671101e-07
    117    128   2   0.50000    -0.0600000    0.0600000   2.494471e-04  1.671101e-07
    125    120   2   0.50000     0.0600000   -0.1200000   2.494471e-04  1.671101e-07
    125    127   2   0.50000     0.0600000    0.0600000   6.128906e-05  1.496315e-08
    125    128   2   0.50000     0.0600000    0.0600000   6.128906e-05  1.496315e-08
    126    120   2   0.50000     0.0600000   -0.1200000   2.494471e-04  1.671101e-07
    126    127   2   0.50000     0.0600000    0.0600000   6.128906e-05  1.496315e-08
    126    128   2   0.50000     0.0600000    0.0600000   6.128906e-05  1.496315e-08
    118    129   2   0.50000    -0.1200000    0.0600000   2.494471e-04  1.671101e-07
    118    130   2   0.50000    -0.1200000    0.0600000   2.494471e-04  1.671101e-07
    127    121   2   0.50000     0.0600000   -0.1200000   2.494471e-04  1.671101e-07
    127    129   2   0.50000     0.0600000    0.0600000   6.128906e-05  1.496315e-08
    127    130   2   0.50000     0.0600000    0.0600000   6.128906e-05  1.496315e-08
    128    121   2   0.50000     0.0600000   -0.1200000   2.494471e-04  1.671101e-07
    128    129   2   0.50000     0.0600000    0.0600000   6.128906e-05  1.496315e-08
    128    130   2   0.50000     0.0600000    0.0600000   6.128906e-05  1.496315e-08
    119    131   2   0.50000    -0.1200000    0.0600000   2.494471e-04  1.671101e-07
    119    132   2   0.50000    -0.1200000    0.0600000   2.494471e-04  1.671101e-07
    129    117   2   0.50000     0.0600000   -0.0600000   2.494471e-04  1.671101e-07
    129    131   2   0.50000     0.0600000    0.0600000   6.128906e-05  1.496315e-08
    129    132   2   0.50000     0.0600000    0.0600000   6.128906e-05  1.496315e-08
    130    117   2   0.50000     0.0600000   -0.0600000   2.494471e-04  1.671101e-07
    130    131   2   0.50000     0.0600000    0.0600000   6.128906e-05  1.496315e-08
    130    132   2   0.50000     0.0600000    0.0600000   6.128906e-05  1.496315e-08
    116    136   2   0.50000    -0.0600000   -0.0600000   1.015252e-03  1.866303e-06
    116    141   2   0.50000    -0.0600000   -0.1200000   1.015252e-03  1.866303e-06
    116    142   2   0.50000    -0.0600000    0.0600000   2.494471e-04  1.671101e-07
    133    136   2   0.50000     0.0600000   -0.0600000   2.494471e-04  1.671101e-07
    133    141   2   0.50000     0.0600000   -0.1200000   2.494471e-04  1.671101e-07
    133    142   2   0.50000     0.0600000    0.0600000   6.128906e-05  1.496315e-08
    134    136   2   0.50000     0.0600000   -0.0600000   2.494471e-04  1.671101e-07
    134    141   2   0.50000     0.0600000   -0.1200000   2.494471e-04  1.671101e-07
    134    142   2   0.50000     0.0600000    0.0600000   6.128906e-05  1.496315e-08
    122    137   2   0.50000    -0.1200000   -0.1200000   1.015252e-03  1.866303e-06
    122    140   2   0.50000    -0.1200000   -0.1200000   1.015252e-03  1.866303e-06
    122    143   2   0.50000    -0.1200000    0.0600000   2.494471e-04  1.671101e-07
    141    137   2   0.50000    -0.1200000   -0.1200000   1.015252e-03  1.866303e-06
    141    140   2   0.50000    -0.1200000   -0.1200000   1.015252e-03  1.866303e-06
    141    143   2   0.50000    -0.1200000    0.0600000   2.494471e-04  1.671101e-07
    142    137   2   0.50000     0.0600000   -0.1200000   2.494471e-04  1.671101e-07
    142    140   2   0.50000     0.0600000   -0.1200000   2.494471e-04  1.671101e-07
    142    143   2   0.50000     0.0600000    0.0600000   6.128906e-05  1.496315e-08
    122    152   2   0.50000    -0.1200000    0.0600000   2.494471e-04  1.671101e-07
    122    153   2   0.50000    -0.1200000    0.0600000   2.494471e-04  1.671101e-07
    122    154   2   0.50000    -0.1200000   -0.0600000   1.015252e-03  1.866303e-06
    136    152   2   0.50000    -0.0600000    0.0600000   2.494471e-04  1.671101e-07
    136    153   2   0.50000    -0.0600000    0.0600000   2.494471e-04  1.671101e-07
    136    154   2   0.50000    -0.0600000   -0.0600000   1.015252e-03  1.866303e-06
    142    152   2   0.50000     0.0600000    0.0600000   6.128906e-05  1.496315e-08
    142    153   2   0.50000     0.0600000    0.0600000   6.128906e-05  1.496315e-08
    142    154   2   0.50000     0.0600000   -0.0600000   2.494471e-04  1.671101e-07
    135    138   2   0.50000    -0.0600000   -0.1200000   1.015252e-03  1.866303e-06
    135    144   2   0.50000    -0.0600000    0.0600000   2.494471e-04  1.671101e-07
    135    145   2   0.50000    -0.0600000    0.0600000   2.494471e-04  1.671101e-07
    140    144   2   0.50000    -0.1200000    0.0600000   2.494471e-04  1.671101e-07
    140    145   2   0.50000    -0.1200000    0.0600000   2.494471e-04  1.671101e-07
    143    138   2   0.50000     0.0600000   -0.1200000   2.494471e-04  1.671101e-07
    143    144   2   0.50000     0.0600000    0.0600000   6.128906e-05  1.496315e-08
    143    145   2   0.50000     0.0600000    0.0600000   6.128906e-05  1.496315e-08
    135    139   2   0.50000    -0.0600000   -0.1200000   1.015252e-03  1.866303e-06
    135    150   2   0.50000    -0.0600000    0.0600000   2.494471e-04  1.671101e-07
    135    151   2   0.50000    -0.0600000    0.0600000   2.494471e-04  1.671101e-07
    137    150   2   0.50000    -0.1200000    0.0600000   2.494471e-04  1.671101e-07
    137    151   2   0.50000    -0.1200000    0.0600000   2.494471e-04  1.671101e-07
    143    139   2   0.50000     0.0600000   -0.1200000   2.494471e-04  1.671101e-07
    143    150   2   0.50000     0.0600000    0.0600000   6.128906e-05  1.496315e-08
    143    151   2   0.50000     0.0600000    0.0600000   6.128906e-05  1.496315e-08
    136    146   2   0.50000    -0.0600000    0.0600000   2.494471e-04  1.671101e-07
    136    147   2   0.50000    -0.0600000    0.0600000   2.494471e-04  1.671101e-07
    144    139   2   0.50000     0.0600000   -0.1200000   2.494471e-04  1.671101e-07
    144    146   2   0.50000     0.0600000    0.0600000   6.128906e-05  1.496315e-08
    144    147   2   0.50000     0.0600000    0.0600000   6.128906e-05  1.496315e-08
    145    139   2   0.50000     0.0600000   -0.1200000   2.494471e-04  1.671101e-07
    145    146   2   0.50000     0.0600000    0.0600000   6.128906e-05  1.496315e-08
    145    147   2   0.50000     0.0600000    0.0600000   6.128906e-05  1.496315e-08
    137    148   2   0.50000    -0.1200000    0.0600000   2.494471e-04  1.671101e-07
    137    149   2   0.50000    -0.1200000    0.0600000   2.494471e-04  1.671101e-07
    146    140   2   0.50000     0.0600000   -0.1200000   2.494471e-04  1.671101e-07
    146    148   2   0.50000     0.0600000    0.0600000   6.128906e-05  1.496315e-08
    146    149   2   0.50000     0.0600000    0.0600000   6.128906e-05  1.496315e-08
    147    140   2   0.50000     0.0600000   -0.1200000   2.494471e-04  1.671101e-07
    147    148   2   0.50000     0.0600000    0.0600000   6.128906e-05  1.496315e-08
    147    149   2   0.50000     0.0600000    0.0600000   6.128906e-05  1.496315e-08
    138    150   2   0.50000    -0.1200000    0.0600000   2.494471e-04  1.671101e-07
    138    151   2   0.50000    -0.1200000    0.0600000   2.494471e-04  1.671101e-07
    148    136   2   0.50000     0.0600000   -0.0600000   2.494471e-04  1.671101e-07
    148    150   2   0.50000     0.0600000    0.0600000   6.128906e-05  1.496315e-08
    148    151   2   0.50000     0.0600000    0.0600000   6.128906e-05  1.496315e-08
    149    136   2   0.50000     0.0600000   -0.0600000   2.494471e-04  1.671101e-07
    149    150   2   0.50000     0.0600000    0.0600000   6.128906e-05  1.496315e-08
    149    151   2   0.50000     0.0600000    0.0600000   6.128906e-05  1.496315e-08
    135    155   2   0.50000    -0.0600000   -0.0600000   1.015252e-03  1.866303e-06
    135    160   2   0.50000    -0.0600000   -0.1200000   1.015252e-03  1.866303e-06
    135    161   2   0.50000    -0.0600000    0.0600000   2.494471e-04  1.671101e-07
    152    155   2   0.50000     0.0600000   -0.0600000   2.494471e-04  1.671101e-07
    152    160   2   0.50000     0.0600000   -0.1200000   2.494471e-04  1.671101e-07
    152    161   2   0.50000     0.0600000    0.0600000   6.128906e-05  1.496315e-08
    153    155   2   0.50000     0.0600000   -0.0600000   2.494471e-04  1.671101e-07
    153    160   2   0.50000     0.0600000   -0.1200000   2.494471e-04  1.671101e-07
    153    161   2   0.50000     0.0600000    0.0600000   6.128906e-05  1.496315e-08
    141    156   2   0.50000    -0.1200000   -0.1200000   1.015252e-03  1.866303e-06
    141    159   2   0.50000    -0.1200000   -0.1200000   1.015252e-03  1.866303e-06
    141    162   2   0.50000    -0.1200000    0.0600000   2.494471e-04  1.671101e-07
    160    156   2   0.50000    -0.1200000   -0.1200000   1.015252e-03  1.866303e-06
    160    159   2   0.50000    -0.1200000   -0.1200000   1.015252e-03  1.866303e-06
    160    162   2   0.50000    -0.1200000    0.0600000   2.494471e-04  1.671101e-07
    161    156   2   0.50000     0.0600000   -0.1200000   2.494471e-04  1.671101e-07
    161    159   2   0.50000     0.0600000   -0.1200000   2.494471e-04  1.671101e-07
    161    162   2   0.50000     0.0600000    0.0600000   6.128906e-05  1.496315e-08
    141    171   2   0.50000    -0.1200000    0.0600000   2.494471e-04  1.671101e-07
    141    172   2   0.50000    -0.1200000    0.0600000   2.494471e-04  1.671101e-07
    141    173   2   0.50000    -0.1200000   -0.0600000   1.015252e-03  1.866303e-06
    155    171   2   0.50000    -0.0600000    0.0600000   2.494471e-04  1.671101e-07
    155    172   2   0.50000    -0.0600000    0.0600000   2.494471e-04  1.671101e-07
    155    173   2   0.50000    -0.0600000   -0.0600000   1.015252e-03  1.866303e-06
    161    171   2   0.50000     0.0600000    0.0600000   6.128906e-05  1.496315e-08
    161    172   2   0.50000     0.0600000    0.0600000   6.128906e-05  1.496315e-08
    161    173   2   0.50000     0.0600000   -0.0600000   2.494471e-04  1.671101e-07
    154    157   2   0.50000    -0.0600000   -0.1200000   1.015252e-03  1.866303e-06
    154    163   2   0.50000    -0.0600000    0.0600000   2.494471e-04  1.671101e-07
    154    164   2   0.50000    -0.0600000    0.0600000   2.494471e-04  1.671101e-07
    159    163   2   0.50000    -0.1200000    0.0600000   2.494471e-04  1.671101e-07
    159    164   2   0.50000    -0.1200000    0.0600000   2.494471e-04  1.671101e-07
    162    157   2   0.50000     0.0600000   -0.1200000   2.494471e-04  1.671101e-07
    162    163   2   0.50000     0.0600000    0.0600000   6.128906e-05  1.496315e-08
    162    164   2   0.50000     0.0600000    0.0600000   6.128906e-05  1.496315e-08
    154    158   2   0.50000    -0.0600000   -0.1200000   1.015252e-03  1.866303e-06
    154    169   2   0.50000    -0.0600000    0.0600000   2.494471e-04  1.671101e-07
    154    170   2   0.50000    -0.0600000    0.0600000   2.494471e-04  1.671101e-07
    156    169   2   0.50000    -0.1200000    0.0600000   2.494471e-04  1.671101e-07
    156    170   2   0.50000    -0.1200000    0.0600000   2.494471e-04  1.671101e-07
    162    158   2   0.50000     0.0600000   -0.1200000   2.494471e-04  1.671101e-07
    162    169   2   0.50000     0.0600000    0.0600000   6.128906e-05  1.496315e-08
    162    170   2   0.50000     0.0600000    0.0600000   6.128906e-05  1.496315e-08
    155    165   2   0.50000    -0.0600000    0.0600000   2.494471e-04  1.671101e-07
    155    166   2   0.50000    -0.0600000    0.0600000   2.494471e-04  1.671101e-07
    163    158   2   0.50000     0.0600000   -0.1200000   2.494471e-04  1.671101e-07
    163    165   2   0.50000     0.0600000    0.0600000   6.128906e-05  1.496315e-08
    163    166   2   0.50000     0.0600000    0.0600000   6.128906e-05  1.496315e-08
    164    158   2   0.50000     0.0600000   -0.1200000   2.494471e-04  1.671101e-07
    164    165   2   0.50000     0.0600000    0.0600000   6.128906e-05  1.496315e-08
    164    166   2   0.50000     0.0600000    0.0600000   6.128906e-05  1.496315e-08
    156    167   2   0.50000    -0.1200000    0.0600000   2.494471e-04  1.671101e-07
    156    168   2   0.50000    -0.1200000    0.0600000   2.494471e-04  1.671101e-07
    165    159   2   0.50000     0.0600000   -0.1200000   2.494471e-04  1.671101e-07
    165    167   2   0.50000     0.0600000    0.0600000   6.128906e-05  1.496315e-08
    165    168   2   0.50000     0.0600000    0.0600000   6.128906e-05  1.496315e-08
    166    159   2   0.50000     0.0600000   -0.1200000   2.494471e-04  1.671101e-07
    166    167   2   0.50000     0.0600000    0.0600000   6.128906e-05  1.496315e-08
    166    168   2   0.50000     0.0600000    0.0600000   6.128906e-05  1.496315e-08
    157    169   2   0.50000    -0.1200000    0.0600000   2.494471e-04  1.671101e-07
    157    170   2   0.50000    -0.1200000    0.0600000   2.494471e-04  1.671101e-07
    167    155   2   0.50000     0.0600000   -0.0600000   2.494471e-04  1.671101e-07
    167    169   2   0.50000     0.0600000    0.0600000   6.128906e-05  1.496315e-08
    167    170   2   0.50000     0.0600000    0.0600000   6.128906e-05  1.496315e-08
    168    155   2   0.50000     0.0600000   -0.0600000   2.494471e-04  1.671101e-07
    168    169   2   0.50000     0.0600000    0.0600000   6.128906e-05  1.496315e-08
    168    170   2   0.50000     0.0600000    0.0600000   6.128906e-05  1.496315e-08
    154    174   2   0.50000    -0.0600000   -0.0600000   1.015252e-03  1.866303e-06
    154    179   2   0.50000    -0.0600000   -0.1200000   1.015252e-03  1.866303e-06
    154    180   2   0.50000    -0.0600000    0.0600000   2.494471e-04  1.671101e-07
    171    174   2   0.50000     0.0600000   -0.0600000   2.494471e-04  1.671101e-07
    171    179   2   0.50000     0.0600000   -0.1200000   2.494471e-04  1.671101e-07
    171    180   2   0.50000     0.0600000    0.0600000   6.128906e-05  1.496315e-08
    172    174   2   0.50000     0.0600000   -0.0600000   2.494471e-04  1.671101e-07
    172    179   2   0.50000     0.0600000   -0.1200000   2.494471e-04  1.671101e-07
    172    180   2   0.50000     0.0600000    0.0600000   6.128906e-05  1.496315e-08
    160    175   2   0.50000    -0.1200000   -0.1200000   1.015252e-03  1.866303e-06
    160    178   2   0.50000    -0.1200000   -0.1200000   1.015252e-03  1.866303e-06
    160    181   2   0.50000    -0.1200000    0.0600000   2.494471e-04  1.671101e-07
    179    175   2   0.50000    -0.1200000   -0.1200000   1.015252e-03  1.866303e-06
    179    178   2   0.50000    -0.1200000   -0.1200000   1.015252e-03  1.866303e-06
    179    181   2   0.50000    -0.1200000    0.0600000   2.494471e-04  1.671101e-07
    180    175   2   0.50000     0.0600000   -0.1200000   2.494471e-04  1.671101e-07
    180    178   2   0.50000     0.0600000   -0.1200000   2.494471e-04  1.671101e-07
    180    181   2   0.50000     0.0600000    0.0600000   6.128906e-05  1.496315e-08
    160    190   2   0.50000    -0.1200000    0.0600000   2.494471e-04  1.671101e-07
    160    191   2   0.50000    -0.1200000    0.0600000   2.494471e-04  1.671101e-07
    160    192   2   0.50000    -0.1200000   -0.0600000   1.015252e-03  1.866303e-06
    174    190   2   0.50000    -0.0600000    0.0600000   2.494471e-04  1.671101e-07
    174    191   2   0.50000    -0.0600000    0.0600000   2.494471e-04  1.671101e-07
    174    192   2   0.50000    -0.0600000   -0.0600000   1.015252e-03  1.866303e-06
    180    190   2   0.50000     0.0600000    0.0600000   6.128906e-05  1.496315e-08
    180    191   2   0.50000     0.0600000    0.0600000   6.128906e-05  1.496315e-08
    180    192   2   0.50000     0.0600000   -0.0600000   2.494471e-04  1.671101e-07
    173    176   2   0.50000    -0.0600000   -0.1200000   1.015252e-03  1.866303e-06
    173    182   2   0.50000    -0.0600000    0.0600000   2.494471e-04  1.671101e-07
    173    183   2   0.50000    -0.0600000    0.0600000   2.494471e-04  1.671101e-07
    178    182   2   0.50000    -0.1200000    0.0600000   2.494471e-04  1.671101e-07
    178    183   2   0.50000    -0.1200000    0.0600000   2.494471e-04  1.671101e-07
    181    176   2   0.50000     0.0600000   -0.1200000   2.494471e-04  1.671101e-07
    181    182   2   0.50000     0.0600000    0.0600000   6.128906e-05  1.496315e-08
    181    183   2   0.50000     0.0600000    0.0600000   6.128906e-05  1.496315e-08
    173    177   2   0.50000    -0.0600000   -0.1200000   1.015252e-03  1.866303e-06
    173    188   2   0.50000    -0.0600000    0.0600000   2.494471e-04  1.671101e-07
    173    189   2   0.50000    -0.0600000    0.0600000   2.494471e-04  1.671101e-07
    175    188   2   0.50000    -0.1200000    0.0600000   2.494471e-04  1.671101e-07
    175    189   2   0.50000    -0.1200000    0.0600000   2.494471e-04  1.671101e-07
    181    177   2   0.50000     0.0600000   -0.1200000   2.494471e-04  1.671101e-07
    181    188   2   0.50000     0.0600000    0.0600000   6.128906e-05  1.496315e-08
    181    189   2   0.50000     0.0600000    0.0600000   6.128906e-05  1.496315e-08
    174    184   2   0.50000    -0.0600000    0.0600000   2.494471e-04  1.671101e-07
    174    185   2   0.50000    -0.0600000    0.0600000   2.494471e-04  1.671101e-07
    182    177   2   0.50000     0.0600000   -0.1200000   2.494471e-04  1.671101e-07
    182    184   2   0.50000     0.0600000    0.0600000   6.128906e-05  1.496315e-08
    182    185   2   0.50000     0.0600000    0.0600000   6.128906e-05  1.496315e-08
    183    177   2   0.50000     0.0600000   -0.1200000   2.494471e-04  1.671101e-07
    183    184   2   0.50000     0.0600000    0.0600000   6.128906e-05  1.496315e-08
    183    185   2   0.50000     0.0600000    0.0600000   6.128906e-05  1.496315e-08
    175    186   2   0.50000    -0.1200000    0.0600000   2.494471e-04  1.671101e-07
    175    187   2   0.50000    -0.1200000    0.0600000   2.494471e-04  1.671101e-07
    184    178   2   0.50000     0.0600000   -0.1200000   2.494471e-04  1.671101e-07
    184    186   2   0.50000     0.0600000    0.0600000   6.128906e-05  1.496315e-08
    184    187   2   0.50000     0.0600000    0.0600000   6.128906e-05  1.496315e-08
    185    178   2   0.50000     0.0600000   -0.1200000   2.494471e-04  1.671101e-07
    185    186   2   0.50000     0.0600000    0.0600000   6.128906e-05  1.496315e-08
    185    187   2   0.50000     0.0600000    0.0600000   6.128906e-05  1.496315e-08
    176    188   2   0.50000    -0.1200000    0.0600000   2.494471e-04  1.671101e-07
    176    189   2   0.50000    -0.1200000    0.0600000   2.494471e-04  1.671101e-07
    186    174   2   0.50000     0.0600000   -0.0600000   2.494471e-04  1.671101e-07
    186    188   2   0.50000     0.0600000    0.0600000   6.128906e-05  1.496315e-08
    186    189   2   0.50000     0.0600000    0.0600000   6.128906e-05  1.496315e-08
    187    174   2   0.50000     0.0600000   -0.0600000   2.494471e-04  1.671101e-07
    187    188   2   0.50000     0.0600000    0.0600000   6.128906e-05  1.496315e-08
    187    189   2   0.50000     0.0600000    0.0600000   6.128906e-05  1.496315e-08
    173    193   2   0.50000    -0.0600000   -0.0600000   1.015252e-03  1.866303e-06
    173    198   2   0.50000    -0.0600000   -0.1200000   1.015252e-03  1.866303e-06
    173    199   2   0.50000    -0.0600000    0.0600000   2.494471e-04  1.671101e-07
    190    193   2   0.50000     0.0600000   -0.0600000   2.494471e-04  1.671101e-07
    190    198   2   0.50000     0.0600000   -0.1200000   2.494471e-04  1.671101e-07
    190    199   2   0.50000     0.0600000    0.0600000   6.128906e-05  1.496315e-08
    191    193   2   0.50000     0.0600000   -0.0600000   2.494471e-04  1.671101e-07
    191    198   2   0.50000     0.0600000   -0.1200000   2.494471e-04  1.671101e-07
    191    199   2   0.50000     0.0600000    0.0600000   6.128906e-05  1.496315e-08
    179    194   2   0.50000    -0.1200000   -0.1200000   1.015252e-03  1.866303e-06
    179    197   2   0.50000    -0.1200000   -0.1200000   1.015252e-03  1.866303e-06
    179    200   2   0.50000    -0.1200000    0.0600000   2.494471e-04  1.671101e-07
    198    194   2   0.50000    -0.1200000   -0.1200000   1.015252e-03  1.866303e-06
    198    197   2   0.50000    -0.1200000   -0.1200000   1.015252e-03  1.866303e-06
    198    200   2   0.50000    -0.1200000    0.0600000   2.494471e-04  1.671101e-07
    199    194   2   0.50000     0.0600000   -0.1200000   2.494471e-04  1.671101e-07
    199    197   2   0.50000     0.0600000   -0.1200000   2.494471e-04  1.671101e-07
    199    200   2   0.50000     0.0600000    0.0600000   6.128906e-05  1.496315e-08
    179    209   2   0.50000    -0.1200000    0.0600000   2.494471e-04  1.671101e-07
    179    210   2   0.50000    -0.1200000    0.0600000   2.494471e-04  1.671101e-07
    179    211   2   0.50000    -0.1200000   -0.0600000   1.015252e-03  1.866303e-06
    193    209   2   0.50000    -0.0600000    0.0600000   2.494471e-04  1.671101e-07
    193    210   2   0.50000    -0.0600000    0.0600000   2.494471e-04  1.671101e-07
    193    211   2   0.50000    -0.0600000   -0.0600000   1.015252e-03  1.866303e-06
    199    209   2   0.50000     0.0600000    0.0600000   6.128906e-05  1.496315e-08
    199    210   2   0.50000     0.0600000    0.0600000   6.128906e-05  1.496315e-08
    199    211   2   0.50000     0.0600000   -0.0600000   2.494471e-04  1.671101e-07
    192    195   2   0.50000    -0.0600000   -0.1200000   1.015252e-03  1.866303e-06
    192    201   2   0.50000    -0.0600000    0.0600000   2.494471e-04  1.671101e-07
    192    202   2   0.50000    -0.0600000    0.0600000   2.494471e-04  1.671101e-07
    197    201   2   0.50000    -0.1200000    0.0600000   2.494471e-04  1.671101e-07
    197    202   2   0.50000    -0.1200000    0.0600000   2.494471e-04  1.671101e-07
    200    195   2   0.50000     0.0600000   -0.1200000   2.494471e-04  1.671101e-07
    200    201   2   0.50000     0.0600000    0.0600000   6.128906e-05  1.496315e-08
    200    202   2   0.50000     0.0600000    0.0600000   6.128906e-05  1.496315e-08
    192    196   2   0.50000    -0.0600000   -0.1200000   1.015252e-03  1.866303e-06
    192    207   2   0.50000    -0.0600000    0.0600000   2.494471e-04  1.671101e-07
    192    208   2   0.50000    -0.0600000    0.0600000   2.494471e-04  1.671101e-07
    194    207   2   0.50000    -0.1200000    0.0600000   2.494471e-04  1.671101e-07
    194    208   2   0.50000    -0.1200000    0.0600000   2.494471e-04  1.671101e-07
    200    196   2   0.50000     0.0600000   -0.1200000   2.494471e-04  1.671101e-07
    200    207   2   0.50000     0.0600000    0.0600000   6.128906e-05  1.496315e-08
    200    208   2   0.50000     0.0600000    0.0600000   6.128906e-05  1.496315e-08
    193    203   2   0.50000    -0.0600000    0.0600000   2.494471e-04  1.671101e-07
    193    204   2   0.50000    -0.0600000    0.0600000   2.494471e-04  1.671101e-07
    201    196   2   0.50000     0.0600000   -0.1200000   2.494471e-04  1.671101e-07
    201    203   2   0.50000     0.0600000    0.0600000   6.128906e-05  1.496315e-08
    201    204   2   0.50000     0.0600000    0.0600000   6.128906e-05  1.496315e-08
    202    196   2   0.50000     0.0600000   -0.1200000   2.494471e-04  1.671101e-07
    202    203   2   0.50000     0.0600000    0.0600000   6.128906e-05  1.496315e-08
    202    204   2   0.50000     0.0600000    0.0600000   6.128906e-05  1.496315e-08
    194    205   2   0.50000    -0.1200000    0.0600000   2.494471e-04  1.671101e-07
    194    206   2   0.50000    -0.1200000    0.0600000   2.494471e-04  1.671101e-07
    203    197   2   0.50000     0.0600000   -0.1200000   2.494471e-04  1.671101e-07
    203    205   2   0.50000     0.0600000    0.0600000   6.128906e-05  1.496315e-08
    203    206   2   0.50000     0.0600000    0.0600000   6.128906e-05  1.496315e-08
    204    197   2   0.50000     0.0600000   -0.1200000   2.494471e-04  1.671101e-07
    204    205   2   0.50000     0.0600000    0.0600000   6.128906e-05  1.496315e-08
    204    206   2   0.50000     0.0600000    0.0600000   6.128906e-05  1.496315e-08
    195    207   2   0.50000    -0.1200000    0.0600000   2.494471e-04  1.671101e-07
    195    208   2   0.50000    -0.1200000    0.0600000   2.494471e-04  1.671101e-07
    205    193   2   0.50000     0.0600000   -0.0600000   2.494471e-04  1.671101e-07
    205    207   2   0.50000     0.0600000    0.0600000   6.128906e-05  1.496315e-08
    205    208   2   0.50000     0.0600000    0.0600000   6.128906e-05  1.496315e-08
    206    193   2   0.50000     0.0600000   -0.0600000   2.494471e-04  1.671101e-07
    206    207   2   0.50000     0.0600000    0.0600000   6.128906e-05  1.496315e-08
    206    208   2   0.50000     0.0600000    0.0600000   6.128906e-05  1.496315e-08
    192    212   2   0.50000    -0.0600000   -0.0600000   1.015252e-03  1.866303e-06
    192    217   2   0.50000    -0.0600000   -0.1200000   1.015252e-03  1.866303e-06
    192    218   2   0.50000    -0.0600000    0.0600000   2.494471e-04  1.671101e-07
    209    212   2   0.50000     0.0600000   -0.0600000   2.494471e-04  1.671101e-07
    209    217   2   0.50000     0.0600000   -0.1200000   2.494471e-04  1.671101e-07
    209    218   2   0.50000     0.0600000    0.0600000   6.128906e-05  1.496315e-08
    210    212   2   0.50000     0.0600000   -0.0600000   2.494471e-04  1.671101e-07
    210    217   2   0.50000     0.0600000   -0.1200000   2.494471e-04  1.671101e-07
    210    218   2   0.50000     0.0600000    0.0600000   6.128906e-05  1.496315e-08
    198    213   2   0.50000    -0.1200000   -0.1200000   1.015252e-03  1.866303e-06
    198    216   2   0.50000    -0.1200000   -0.1200000   1.015252e-03  1.866303e-06
    198    219   2   0.50000    -0.1200000    0.0600000   2.494471e-04  1.671101e-07
    217    213   2   0.50000    -0.1200000   -0.1200000   1.015252e-03  1.866303e-06
    217    216   2   0.50000    -0.1200000   -0.1200000   1.015252e-03  1.866303e-06
    217    219   2   0.50000    -0.1200000    0.0600000   2.494471e-04  1.671101e-07
    218    213   2   0.50000     0.0600000   -0.1200000   2.494471e-04  1.671101e-07
    218    216   2   0.50000     0.0600000   -0.1200000   2.494471e-04  1.671101e-07
    218    219   2   0.50000     0.0600000    0.0600000   6.128906e-05  1.496315e-08
    198    228   2   0.50000    -0.1200000    0.0600000   2.494471e-04  1.671101e-07
    198    229   2   0.50000    -0.1200000    0.0600000   2.494471e-04  1.671101e-07
    198    230   2   0.50000    -0.1200000   -0.0600000   1.015252e-03  1.866303e-06
    212    228   2   0.50000    -0.0600000    0.0600000   2.494471e-04  1.671101e-07
    212    229   2   0.50000    -0.0600000    0.0600000   2.494471e-04  1.671101e-07
    212    230   2   0.50000    -0.0600000   -0.0600000   1.015252e-03  1.866303e-06
    218    228   2   0.50000     0.0600000    0.0600000   6.128906e-05  1.496315e-08
    218    229   2   0.50000     0.0600000    0.0600000   6.128906e-05  1.496315e-08
    218    230   2   0.50000     0.0600000   -0.0600000   2.494471e-04  1.671101e-07
    211    214   2   0.50000    -0.0600000   -0.1200000   1.015252e-03  1.866303e-06
    211    220   2   0.50000    -0.0600000    0.0600000   2.494471e-04  1.671101e-07
    211    221   2   0.50000    -0.0600000    0.0600000   2.494471e-04  1.671101e-07
    216    220   2   0.50000    -0.1200000    0.0600000   2.494471e-04  1.671101e-07
    216    221   2   0.50000    -0.1200000    0.0600000   2.494471e-04  1.671101e-07
    219    214   2   0.50000     0.0600000   -0.1200000   2.494471e-04  1.671101e-07
    219    220   2   0.50000     0.0600000    0.0600000   6.128906e-05  1.496315e-08
    219    221   2   0.50000     0.0600000    0.0600000   6.128906e-05  1.496315e-08
    211    215   2   0.50000    -0.0600000   -0.1200000   1.015252e-03  1.866303e-06
    211    226   2   0.50000    -0.0600000    0.0600000   2.494471e-04  1.671101e-07
    211    227   2   0.50000    -0.0600000    0.0600000   2.494471e-04  1.671101e-07
    213    226   2   0.50000    -0.1200000    0.0600000   2.494471e-04  1.671101e-07
    213    227   2   0.50000    -0.1200000    0.0600000   2.494471e-04  1.671101e-07
    219    215   2   0.50000     0.0600000   -0.1200000   2.494471e-04  1.671101e-07
    219    226   2   0.50000     0.0600000    0.0600000   6.128906e-05  1.496315e-08
    219    227   2   0.50000     0.0600000    0.0600000   6.128906e-05  1.496315e-08
    212    222   2   0.50000    -0.0600000    0.0600000   2.494471e-04  1.671101e-07
    212    223   2   0.50000    -0.0600000    0.0600000   2.494471e-04  1.671101e-07
    220    215   2   0.50000     0.0600000   -0.1200000   2.494471e-04  1.671101e-07
    220    222   2   0.50000     0.0600000    0.0600000   6.128906e-05  1.496315e-08
    220    223   2   0.50000     0.0600000    0.0600000   6.128906e-05  1.496315e-08
    221    215   2   0.50000     0.0600000   -0.1200000   2.494471e-04  1.671101e-07
    221    222   2   0.50000     0.0600000    0.0600000   6.128906e-05  1.496315e-08
    221    223   2   0.50000     0.0600000    0.0600000   6.128906e-05  1.496315e-08
    213    224   2   0.50000    -0.1200000    0.0600000   2.494471e-04  1.671101e-07
    213    225   2   0.50000    -0.1200000    0.0600000   2.494471e-04  1.671101e-07
    222    216   2   0.50000     0.0600000   -0.1200000   2.494471e-04  1.671101e-07
    222    224   2   0.50000     0.0600000    0.0600000   6.128906e-05  1.496315e-08
    222    225   2   0.50000     0.0600000    0.0600000   6.128906e-05  1.496315e-08
    223    216   2   0.50000     0.0600000   -0.1200000   2.494471e-04  1.671101e-07
    223    224   2   0.50000     0.0600000    0.0600000   6.128906e-05  1.496315e-08
    223    225   2   0.50000     0.0600000    0.0600000   6.128906e-05  1.496315e-08
    214    226   2   0.50000    -0.1200000    0.0600000   2.494471e-04  1.671101e-07
    214    227   2   0.50000    -0.1200000    0.0600000   2.494471e-04  1.671101e-07
    224    212   2   0.50000     0.0600000   -0.0600000   2.494471e-04  1.671101e-07
    224    226   2   0.50000     0.0600000    0.0600000   6.128906e-05  1.496315e-08
    224    227   2   0.50000     0.0600000    0.0600000   6.128906e-05  1.496315e-08
    225    212   2   0.50000     0.0600000   -0.0600000   2.494471e-04  1.671101e-07
    225    226   2   0.50000     0.0600000    0.0600000   6.128906e-05  1.496315e-08
    225    227   2   0.50000     0.0600000    0.0600000   6.128906e-05  1.496315e-08
    211    231   2   0.50000    -0.0600000   -0.0600000   1.015252e-03  1.866303e-06
    211    236   2   0.50000    -0.0600000   -0.1200000   1.015252e-03  1.866303e-06
    211    237   2   0.50000    -0.0600000    0.0600000   2.494471e-04  1.671101e-07
    228    231   2   0.50000     0.0600000   -0.0600000   2.494471e-04  1.671101e-07
    228    236   2   0.50000     0.0600000   -0.1200000   2.494471e-04  1.671101e-07
    228    237   2   0.50000     0.0600000    0.0600000   6.128906e-05  1.496315e-08
    229    231   2   0.50000     0.0600000   -0.0600000   2.494471e-04  1.671101e-07
    229    236   2   0.50000     0.0600000   -0.1200000   2.494471e-04  1.671101e-07
    229    237   2   0.50000     0.0600000    0.0600000   6.128906e-05  1.496315e-08
    217    232   2   0.50000    -0.1200000   -0.1200000   1.015252e-03  1.866303e-06
    217    235   2   0.50000    -0.1200000   -0.1200000   1.015252e-03  1.866303e-06
    217    238   2   0.50000    -0.1200000    0.0600000   2.494471e-04  1.671101e-07
    236    232   2   0.50000    -0.1200000   -0.1200000   1.015252e-03  1.866303e-06
    236    235   2   0.50000    -0.1200000   -0.1200000   1.015252e-03  1.866303e-06
    236    238   2   0.50000    -0.1200000    0.0600000   2.494471e-04  1.671101e-07
    237    232   2   0.50000     0.0600000   -0.1200000   2.494471e-04  1.671101e-07
    237    235   2   0.50000     0.0600000   -0.1200000   2.494471e-04  1.671101e-07
    237    238   2   0.50000     0.0600000    0.0600000   6.128906e-05  1.496315e-08
    217    247   2   0.50000    -0.1200000    0.0600000   2.494471e-04  1.671101e-07
    217    248   2   0.50000    -0.1200000    0.0600000   2.494471e-04  1.671101e-07
    217    249   2   0.50000    -0.1200000   -0.0600000   1.015252e-03  1.866303e-06
    231    247   2   0.50000    -0.0600000    0.0600000   2.494471e-04  1.671101e-07
    231    248   2   0.50000    -0.0600000    0.0600000   2.494471e-04  1.671101e-07
    231    249   2   0.50000    -0.0600000   -0.0600000   1.015252e-03  1.866303e-06
    237    247   2   0.50000     0.0600000    0.0600000   6.128906e-05  1.496315e-08
    237    248   2   0.50000     0.0600000    0.0600000   6.128906e-05  1.496315e-08
    237    249   2   0.50000     0.0600000   -0.0600000   2.494471e-04  1.671101e-07
    230    233   2   0.50000    -0.0600000   -0.1200000   1.015252e-03  1.866303e-06
    230    239   2   0.50000    -0.0600000    0.0600000   2.494471e-04  1.671101e-07
    230    240   2   0.50000    -0.0600000    0.0600000   2.494471e-04  1.671101e-07
    235    239   2   0.50000    -0.1200000    0.0600000   2.494471e-04  1.671101e-07
    235    240   2   0.50000    -0.1200000    0.0600000   2.494471e-04  1.671101e-07
    238    233   2   0.50000     0.0600000   -0.1200000   2.494471e-04  1.671101e-07
    238    239   2   0.50000     0.0600000    0.0600000   6.128906e-05  1.496315e-08
    238    240   2   0.50000     0.0600000    0.0600000   6.128906e-05  1.496315e-08
    230    234   2   0.50000    -0.0600000   -0.1200000   1.015252e-03  1.866303e-06
    230    245   2   0.50000    -0.0600000    0.0600000   2.494471e-04  1.671101e-07
    230    246   2   0.50000    -0.0600000    0.0600000   2.494471e-04  1.671101e-07
    232    245   2   0.50000    -0.1200000    0.0600000   2.494471e-04  1.671101e-07
    232    246   2   0.50000    -0.1200000    0.0600000   2.494471e-04  1.671101e-07
    238    234   2   0.50000     0.0600000   -0.1200000   2.494471e-04  1.671101e-07
    238    245   2   0.50000     0.0600000    0.0600000   6.128906e-05  1.496315e-08
    238    246   2   0.50000     0.0600000    0.0600000   6.128906e-05  1.496315e-08
    231    241   2   0.50000    -0.0600000    0.0600000   2.494471e-04  1.671101e-07
    231    242   2   0.50000    -0.0600000    0.0600000   2.494471e-04  1.671101e-07
    239    234   2   0.50000     0.0600000   -0.1200000   2.494471e-04  1.671101e-07
    239    241   2   0.50000     0.0600000    0.0600000   6.128906e-05  1.496315e-08
    239    242   2   0.50000     0.0600000    0.0600000   6.128906e-05  1.496315e-08
    240    234   2   0.50000     0.0600000   -0.1200000   2.494471e-04  1.671101e-07
    240    241   2   0.50000     0.0600000    0.0600000   6.128906e-05  1.496315e-08
    240    242   2   0.50000     0.0600000    0.0600000   6.128906e-05  1.496315e-08
    232    243   2   0.50000    -0.1200000    0.0600000   2.494471e-04  1.671101e-07
    232    244   2   0.50000    -0.1200000    0.0600000   2.494471e-04  1.671101e-07
    241    235   2   0.50000     0.0600000   -0.1200000   2.494471e-04  1.671101e-07
    241    243   2   0.50000     0.0600000    0.0600000   6.128906e-05  1.496315e-08
    241    244   2   0.50000     0.0600000    0.0600000   6.128906e-05  1.496315e-08
    242    235   2   0.50000     0.0600000   -0.1200000   2.494471e-04  1.671101e-07
    242    243   2   0.50000     0.0600000    0.0600000   6.128906e-05  1.496315e-08
    242    244   2   0.50000     0.0600000    0.0600000   6.128906e-05  1.496315e-08
    233    245   2   0.50000    -0.1200000    0.0600000   2.494471e-04  1.671101e-07
    233    246   2   0.50000    -0.1200000    0.0600000   2.494471e-04  1.671101e-07
    243    231   2   0.50000     0.0600000   -0.0600000   2.494471e-04  1.671101e-07
    243    245   2   0.50000     0.0600000    0.0600000   6.128906e-05  1.496315e-08
    243    246   2   0.50000     0.0600000    0.0600000   6.128906e-05  1.496315e-08
    244    231   2   0.50000     0.0600000   -0.0600000   2.494471e-04  1.671101e-07
    244    245   2   0.50000     0.0600000    0.0600000   6.128906e-05  1.496315e-08
    244    246   2   0.50000     0.0600000    0.0600000   6.128906e-05  1.496315e-08
    230    250   2   0.50000    -0.0600000   -0.0600000   1.015252e-03  1.866303e-06
    230    255   2   0.50000    -0.0600000   -0.1200000   1.015252e-03  1.866303e-06
    230    256   2   0.50000    -0.0600000    0.0600000   2.494471e-04  1.671101e-07
    247    250   2   0.50000     0.0600000   -0.0600000   2.494471e-04  1.671101e-07
    247    255   2   0.50000     0.0600000   -0.1200000   2.494471e-04  1.671101e-07
    247    256   2   0.50000     0.0600000    0.0600000   6.128906e-05  1.496315e-08
    248    250   2   0.50000     0.0600000   -0.0600000   2.494471e-04  1.671101e-07
    248    255   2   0.50000     0.0600000   -0.1200000   2.494471e-04  1.671101e-07
    248    256   2   0.50000     0.0600000    0.0600000   6.128906e-05  1.496315e-08
    236    251   2   0.50000    -0.1200000   -0.1200000   1.015252e-03  1.866303e-06
    236    254   2   0.50000    -0.1200000   -0.1200000   1.015252e-03  1.866303e-06
    236    257   2   0.50000    -0.1200000    0.0600000   2.494471e-04  1.671101e-07
    255    251   2   0.50000    -0.1200000   -0.1200000   1.015252e-03  1.866303e-06
    255    254   2   0.50000    -0.1200000   -0.1200000   1.015252e-03  1.866303e-06
    255    257   2   0.50000    -0.1200000    0.0600000   2.494471e-04  1.671101e-07
    256    251   2   0.50000     0.0600000   -0.1200000   2.494471e-04  1.671101e-07
    256    254   2   0.50000     0.0600000   -0.1200000   2.494471e-04  1.671101e-07
    256    257   2   0.50000     0.0600000    0.0600000   6.128906e-05  1.496315e-08
    236    266   2   0.50000    -0.1200000    0.0600000   2.494471e-04  1.671101e-07
    236    267   2   0.50000    -0.1200000    0.0600000   2.494471e-04  1.671101e-07
    236    268   2   0.50000    -0.1200000   -0.0600000   1.015252e-03  1.866303e-06
    250    266   2   0.50000    -0.0600000    0.0600000   2.494471e-04  1.671101e-07
    250    267   2   0.50000    -0.0600000    0.0600000   2.494471e-04  1.671101e-07
    250    268   2   0.50000    -0.0600000   -0.0600000   1.015252e-03  1.866303e-06
    256    266   2   0.50000     0.0600000    0.0600000   6.128906e-05  1.496315e-08
    256    267   2   0.50000     0.0600000    0.0600000   6.128906e-05  1.496315e-08
    256    268   2   0.50000     0.0600000   -0.0600000   2.494471e-04  1.671101e-07
    249    252   2   0.50000    -0.0600000   -0.1200000   1.015252e-03  1.866303e-06
    249    258   2   0.50000    -0.0600000    0.0600000   2.494471e-04  1.671101e-07
    249    259   2   0.50000    -0.0600000    0.0600000   2.494471e-04  1.671101e-07
    254    258   2   0.50000    -0.1200000    0.0600000   2.494471e-04  1.671101e-07
    254    259   2   0.50000    -0.1200000    0.0600000   2.494471e-04  1.671101e-07
    257    252   2   0.50000     0.0600000   -0.1200000   2.494471e-04  1.671101e-07
    257    258   2   0.50000     0.0600000    0.0600000   6.128906e-05  1.496315e-08
    257    259   2   0.50000     0.0600000    0.0600000   6.128906e-05  1.496315e-08
    249    253   2   0.50000    -0.0600000   -0.1200000   1.015252e-03  1.866303e-06
    249    264   2   0.50000    -0.0600000    0.0600000   2.494471e-04  1.671101e-07
    249    265   2   0.50000    -0.0600000    0.0600000   2.494471e-04  1.671101e-07
    251    264   2   0.50000    -0.1200000    0.0600000   2.494471e-04  1.671101e-07
    251    265   2   0.50000    -0.1200000    0.0600000   2.494471e-04  1.671101e-07
    257    253   2   0.50000     0.0600000   -0.1200000   2.494471e-04  1.671101e-07
    257    264   2   0.50000     0.0600000    0.0600000   6.128906e-05  1.496315e-08
    257    265   2   0.50000     0.0600000    0.0600000   6.128906e-05  1.496315e-08
    250    260   2   0.50000    -0.0600000    0.0600000   2.494471e-04  1.671101e-07
    250    261   2   0.50000    -0.0600000    0.0600000   2.494471e-04  1.671101e-07
    258    253   2   0.50000     0.0600000   -0.1200000   2.494471e-04  1.671101e-07
    258    260   2   0.50000     0.0600000    0.0600000   6.128906e-05  1.496315e-08
    258    261   2   0.50000     0.0600000    0.0600000   6.128906e-05  1.496315e-08
    259    253   2   0.50000     0.0600000   -0.1200000   2.494471e-04  1.671101e-07
    259    260   2   0.50000     0.0600000    0.0600000   6.128906e-05  1.496315e-08
    259    261   2   0.50000     0.0600000    0.0600000   6.128906e-05  1.496315e-08
    251    262   2   0.50000    -0.1200000    0.0600000   2.494471e-04  1.671101e-07
    251    263   2   0.50000    -0.1200000    0.0600000   2.494471e-04  1.671101e-07
    260    254   2   0.50000     0.0600000   -0.1200000   2.494471e-04  1.671101e-07
    260    262   2   0.50000     0.0600000    0.0600000   6.128906e-05  1.496315e-08
    260    263   2   0.50000     0.0600000    0.0600000   6.128906e-05  1.496315e-08
    261    254   2   0.50000     0.0600000   -0.1200000   2.494471e-04  1.671101e-07
    261    262   2   0.50000     0.0600000    0.0600000   6.128906e-05  1.496315e-08
    261    263   2   0.50000     0.0600000    0.0600000   6.128906e-05  1.496315e-08
    252    264   2   0.50000    -0.1200000    0.0600000   2.494471e-04  1.671101e-07
    252    265   2   0.50000    -0.1200000    0.0600000   2.494471e-04  1.671101e-07
    262    250   2   0.50000     0.0600000   -0.0600000   2.494471e-04  1.671101e-07
    262    264   2   0.50000     0.0600000    0.0600000   6.128906e-05  1.496315e-08
    262    265   2   0.50000     0.0600000    0.0600000   6.128906e-05  1.496315e-08
    263    250   2   0.50000     0.0600000   -0.0600000   2.494471e-04  1.671101e-07
    263    264   2   0.50000     0.0600000    0.0600000   6.128906e-05  1.496315e-08
    263    265   2   0.50000     0.0600000    0.0600000   6.128906e-05  1.496315e-08
    249    269   2   0.50000    -0.0600000   -0.0600000   1.015252e-03  1.866303e-06
    249    274   2   0.50000    -0.0600000   -0.1200000   1.015252e-03  1.866303e-06
    249    275   2   0.50000    -0.0600000    0.0600000   2.494471e-04  1.671101e-07
    266    269   2   0.50000     0.0600000   -0.0600000   2.494471e-04  1.671101e-07
    266    274   2   0.50000     0.0600000   -0.1200000   2.494471e-04  1.671101e-07
    266    275   2   0.50000     0.0600000    0.0600000   6.128906e-05  1.496315e-08
    267    269   2   0.50000     0.0600000   -0.0600000   2.494471e-04  1.671101e-07
    267    274   2   0.50000     0.0600000   -0.1200000   2.494471e-04  1.671101e-07
    267    275   2   0.50000     0.0600000    0.0600000   6.128906e-05  1.496315e-08
    255    270   2   0.50000    -0.1200000   -0.1200000   1.015252e-03  1.866303e-06
    255    273   2   0.50000    -0.1200000   -0.1200000   1.015252e-03  1.866303e-06
    255    276   2   0.50000    -0.1200000    0.0600000   2.494471e-04  1.671101e-07
    274    270   2   0.50000    -0.1200000   -0.1200000   1.015252e-03  1.866303e-06
    274    273   2   0.50000    -0.1200000   -0.1200000   1.015252e-03  1.866303e-06
    274    276   2   0.50000    -0.1200000    0.0600000   2.494471e-04  1.671101e-07
    275    270   2   0.50000     0.0600000   -0.1200000   2.494471e-04  1.671101e-07
    275    273   2   0.50000     0.0600000   -0.1200000   2.494471e-04  1.671101e-07
    275    276   2   0.50000     0.0600000    0.0600000   6.128906e-05  1.496315e-08
    255    285   2   0.50000    -0.1200000    0.0600000   2.494471e-04  1.671101e-07
    255    286   2   0.50000    -0.1200000    0.0600000   2.494471e-04  1.671101e-07
    255    287   2   0.50000    -0.1200000   -0.0600000   1.015252e-03  1.866303e-06
    269    285   2   0.50000    -0.0600000    0.0600000   2.494471e-04  1.671101e-07
    269    286   2   0.50000    -0.0600000    0.0600000   2.494471e-04  1.671101e-07
    269    287   2   0.50000    -0.0600000   -0.0600000   1.015252e-03  1.866303e-06
    275    285   2   0.50000     0.0600000    0.0600000   6.128906e-05  1.496315e-08
    275    286   2   0.50000     0.0600000    0.0600000   6.128906e-05  1.496315e-08
    275    287   2   0.50000     0.0600000   -0.0600000   2.494471e-04  1.671101e-07
    268    271   2   0.50000    -0.0600000   -0.1200000   1.015252e-03  1.866303e-06
    268    277   2   0.50000    -0.0600000    0.0600000   2.494471e-04  1.671101e-07
    268    278   2   0.50000    -0.0600000    0.0600000   2.494471e-04  1.671101e-07
    273    277   2   0.50000    -0.1200000    0.0600000   2.494471e-04  1.671101e-07
    273    278   2   0.50000    -0.1200000    0.0600000   2.494471e-04  1.671101e-07
    276    271   2   0.50000     0.0600000   -0.1200000   2.494471e-04  1.671101e-07
    276    277   2   0.50000     0.0600000    0.0600000   6.128906e-05  1.496315e-08
    276    278   2   0.50000     0.0600000    0.0600000   6.128906e-05  1.496315e-08
    268    272   2   0.50000    -0.0600000   -0.1200000   1.015252e-03  1.866303e-06
    268    283   2   0.50000    -0.0600000    0.0600000   2.494471e-04  1.671101e-07
    268    284   2   0.50000    -0.0600000    0.0600000   2.494471e-04  1.671101e-07
    270    283   2   0.50000    -0.1200000    0.0600000   2.494471e-04  1.671101e-07
    270    284   2   0.50000    -0.1200000    0.0600000   2.494471e-04  1.671101e-07
    276    272   2   0.50000     0.0600000   -0.1200000   2.494471e-04  1.671101e-07
    276    283   2   0.50000     0.0600000    0.0600000   6.128906e-05  1.496315e-08
    276    284   2   0.50000     0.0600000    0.0600000   6.128906e-05  1.496315e-08
    269    279   2   0.50000    -0.0600000    0.0600000   2.494471e-04  1.671101e-07
    269    280   2   0.50000    -0.0600000    0.0600000   2.494471e-04  1.671101e-07
    277    272   2   0.50000     0.0600000   -0.1200000   2.494471e-04  1.671101e-07
    277    279   2   0.50000     0.0600000    0.0600000   6.128906e-05  1.496315e-08
    277    280   2   0.50000     0.0600000    0.0600000   6.128906e-05  1.496315e-08
    278    272   2   0.50000     0.0600000   -0.1200000   2.494471e-04  1.671101e-07
    278    279   2   0.50000     0.0600000    0.0600000   6.128906e-05  1.496315e-08
    278    280   2   0.50000     0.0600000    0.0600000   6.128906e-05  1.496315e-08
    270    281   2   0.50000    -0.1200000    0.0600000   2.494471e-04  1.671101e-07
    270    282   2   0.50000    -0.1200000    0.0600000   2.494471e-04  1.671101e-07
    279    273   2   0.50000     0.0600000   -0.1200000   2.494471e-04  1.671101e-07
    279    281   2   0.50000     0.0600000    0.0600000   6.128906e-05  1.496315e-08
    279    282   2   0.50000     0.0600000    0.0600000   6.128906e-05  1.496315e-08
    280    273   2   0.50000     0.0600000   -0.1200000   2.494471e-04  1.671101e-07
    280    281   2   0.50000     0.0600000    0.0600000   6.128906e-05  1.496315e-08
    280    282   2   0.50000     0.0600000    0.0600000   6.128906e-05  1.496315e-08
    271    283   2   0.50000    -0.1200000    0.0600000   2.494471e-04  1.671101e-07
    271    284   2   0.50000    -0.1200000    0.0600000   2.494471e-04  1.671101e-07
    281    269   2   0.50000     0.0600000   -0.0600000   2.494471e-04  1.671101e-07
    281    283   2   0.50000     0.0600000    0.0600000   6.128906e-05  1.496315e-08
    281    284   2   0.50000     0.0600000    0.0600000   6.128906e-05  1.496315e-08
    282    269   2   0.50000     0.0600000   -0.0600000   2.494471e-04  1.671101e-07
    282    283   2   0.50000     0.0600000    0.0600000   6.128906e-05  1.496315e-08
    282    284   2   0.50000     0.0600000    0.0600000   6.128906e-05  1.496315e-08
    268    288   2   0.50000    -0.0600000   -0.0600000   1.015252e-03  1.866303e-06
    268    293   2   0.50000    -0.0600000   -0.1200000   1.015252e-03  1.866303e-06
    268    294   2   0.50000    -0.0600000    0.0600000   2.494471e-04  1.671101e-07
    285    288   2   0.50000     0.0600000   -0.0600000   2.494471e-04  1.671101e-07
    285    293   2   0.50000     0.0600000   -0.1200000   2.494471e-04  1.671101e-07
    285    294   2   0.50000     0.0600000    0.0600000   6.128906e-05  1.496315e-08
    286    288   2   0.50000     0.0600000   -0.0600000   2.494471e-04  1.671101e-07
    286    293   2   0.50000     0.0600000   -0.1200000   2.494471e-04  1.671101e-07
    286    294   2   0.50000     0.0600000    0.0600000   6.128906e-05  1.496315e-08
    274    289   2   0.50000    -0.1200000   -0.1200000   1.015252e-03  1.866303e-06
    274    292   2   0.50000    -0.1200000   -0.1200000   1.015252e-03  1.866303e-06
    274    295   2   0.50000    -0.1200000    0.0600000   2.494471e-04  1.671101e-07
    293    289   2   0.50000    -0.1200000   -0.1200000   1.015252e-03  1.866303e-06
    293    292   2   0.50000    -0.1200000   -0.1200000   1.015252e-03  1.866303e-06
    293    295   2   0.50000    -0.1200000    0.0600000   2.494471e-04  1.671101e-07
    294    289   2   0.50000     0.0600000   -0.1200000   2.494471e-04  1.671101e-07
    294    292   2   0.50000     0.0600000   -0.1200000   2.494471e-04  1.671101e-07
    294    295   2   0.50000     0.0600000    0.0600000   6.128906e-05  1.496315e-08
    274    304   2   0.50000    -0.1200000    0.0600000   2.494471e-04  1.671101e-07
    274    305   2   0.50000    -0.1200000    0.0600000   2.494471e-04  1.671101e-07
    274    306   2   0.50000    -0.1200000   -0.0600000   1.015252e-03  1.866303e-06
    288    304   2   0.50000    -0.0600000    0.0600000   2.494471e-04  1.671101e-07
    288    305   2   0.50000    -0.0600000    0.0600000   2.494471e-04  1.671101e-07
    288    306   2   0.50000    -0.0600000   -0.0600000   1.015252e-03  1.866303e-06
    294    304   2   0.50000     0.0600000    0.0600000   6.128906e-05  1.496315e-08
    294    305   2   0.50000     0.0600000    0.0600000   6.128906e-05  1.496315e-08
    294    306   2   0.50000     0.0600000   -0.0600000   2.494471e-04  1.671101e-07
    287    290   2   0.50000    -0.0600000   -0.1200000   1.015252e-03  1.866303e-06
    287    296   2   0.50000    -0.0600000    0.0600000   2.494471e-04  1.671101e-07
    287    297   2   0.50000    -0.0600000    0.0600000   2.494471e-04  1.671101e-07
    292    296   2   0.50000    -0.1200000    0.0600000   2.494471e-04  1.671101e-07
    292    297   2   0.50000    -0.1200000    0.0600000   2.494471e-04  1.671101e-07
    295    290   2   0.50000     0.0600000   -0.1200000   2.494471e-04  1.671101e-07
    295    296   2   0.50000     0.0600000    0.0600000   6.128906e-05  1.496315e-08
    295    297   2   0.50000     0.0600000    0.0600000   6.128906e-05  1.496315e-08
    287    291   2   0.50000    -0.0600000   -0.1200000   1.015252e-03  1.866303e-06
    287    302   2   0.50000    -0.0600000    0.0600000   2.494471e-04  1.671101e-07
    287    303   2   0.50000    -0.0600000    0.0600000   2.494471e-04  1.671101e-07
    289    302   2   0.50000    -0.1200000    0.0600000   2.494471e-04  1.671101e-07
    289    303   2   0.50000    -0.1200000    0.0600000   2.494471e-04  1.671101e-07
    295    291   2   0.50000     0.0600000   -0.1200000   2.494471e-04  1.671101e-07
    295    302   2   0.50000     0.0600000    0.0600000   6.128906e-05  1.496315e-08
    295    303   2   0.50000     0.0600000    0.0600000   6.128906e-05  1.496315e-08
    288    298   2   0.50000    -0.0600000    0.0600000   2.494471e-04  1.671101e-07
    288    299   2   0.50000    -0.0600000    0.0600000   2.494471e-04  1.671101e-07
    296    291   2   0.50000     0.0600000   -0.1200000   2.494471e-04  1.671101e-07
    296    298   2   0.50000     0.0600000    0.0600000   6.128906e-05  1.496315e-08
    296    299   2   0.50000     0.0600000    0.0600000   6.128906e-05  1.496315e-08
    297    291   2   0.50000     0.0600000   -0.1200000   2.494471e-04  1.671101e-07
    297    298   2   0.50000     0.0600000    0.0600000   6.128906e-05  1.496315e-08
    297    299   2   0.50000     0.0600000    0.0600000   6.128906e-05  1.496315e-08
    289    300   2   0.50000    -0.1200000    0.0600000   2.494471e-04  1.671101e-07
    289    301   2   0.50000    -0.1200000    0.0600000   2.494471e-04  1.671101e-07
    298    292   2   0.50000     0.0600000   -0.1200000   2.494471e-04  1.671101e-07
    298    300   2   0.50000     0.0600000    0.0600000   6.128906e-05  1.496315e-08
    298    301   2   0.50000     0.0600000    0.0600000   6.128906e-05  1.496315e-08
    299    292   2   0.50000     0.0600000   -0.1200000   2.494471e-04  1.671101e-07
    299    300   2   0.50000     0.0600000    0.0600000   6.128906e-05  1.496315e-08
    299    301   2   0.50000     0.0600000    0.0600000   6.128906e-05  1.496315e-08
    290    302   2   0.50000    -0.1200000    0.0600000   2.494471e-04  1.671101e-07
    290    303   2   0.50000    -0.1200000    0.0600000   2.494471e-04  1.671101e-07
    300    288   2   0.50000     0.0600000   -0.0600000   2.494471e-04  1.671101e-07
    300    302   2   0.50000     0.0600000    0.0600000   6.128906e-05  1.496315e-08
    300    303   2   0.50000     0.0600000    0.0600000   6.128906e-05  1.496315e-08
    301    288   2   0.50000     0.0600000   -0.0600000   2.494471e-04  1.671101e-07
    301    302   2   0.50000     0.0600000    0.0600000   6.128906e-05  1.496315e-08
    301    303   2   0.50000     0.0600000    0.0600000   6.128906e-05  1.496315e-08
    287    307   2   0.50000    -0.0600000   -0.0600000   1.015252e-03  1.866303e-06
    287    312   2   0.50000    -0.0600000   -0.1200000   1.015252e-03  1.866303e-06
    287    313   2   0.50000    -0.0600000    0.0600000   2.494471e-04  1.671101e-07
    304    307   2   0.50000     0.0600000   -0.0600000   2.494471e-04  1.671101e-07
    304    312   2   0.50000     0.0600000   -0.1200000   2.494471e-04  1.671101e-07
    304    313   2   0.50000     0.0600000    0.0600000   6.128906e-05  1.496315e-08
    305    307   2   0.50000     0.0600000   -0.0600000   2.494471e-04  1.671101e-07
    305    312   2   0.50000     0.0600000   -0.1200000   2.494471e-04  1.671101e-07
    305    313   2   0.50000     0.0600000    0.0600000   6.128906e-05  1.496315e-08
    293    308   2   0.50000    -0.1200000   -0.1200000   1.015252e-03  1.866303e-06
    293    311   2   0.50000    -0.1200000   -0.1200000   1.015252e-03  1.866303e-06
    293    314   2   0.50000    -0.1200000    0.0600000   2.494471e-04  1.671101e-07
    312    308   2   0.50000    -0.1200000   -0.1200000   1.015252e-03  1.866303e-06
    312    311   2   0.50000    -0.1200000   -0.1200000   1.015252e-03  1.866303e-06
    312    314   2   0.50000    -0.1200000    0.0600000   2.494471e-04  1.671101e-07
    313    308   2   0.50000     0.0600000   -0.1200000   2.494471e-04  1.671101e-07
    313    311   2   0.50000     0.0600000   -0.1200000   2.494471e-04  1.671101e-07
    313    314   2   0.50000     0.0600000    0.0600000   6.128906e-05  1.496315e-08
    293    323   2   0.50000    -0.1200000    0.0600000   2.494471e-04  1.671101e-07
    293    324   2   0.50000    -0.1200000    0.0600000   2.494471e-04  1.671101e-07
    293    325   2   0.50000    -0.1200000   -0.0600000   1.015252e-03  1.866303e-06
    307    323   2   0.50000    -0.0600000    0.0600000   2.494471e-04  1.671101e-07
    307    324   2   0.50000    -0.0600000    0.0600000   2.494471e-04  1.671101e-07
    307    325   2   0.50000    -0.0600000   -0.0600000   1.015252e-03  1.866303e-06
    313    323   2   0.50000     0.0600000    0.0600000   6.128906e-05  1.496315e-08
    313    324   2   0.50000     0.0600000    0.0600000   6.128906e-05  1.496315e-08
    313    325   2   0.50000     0.0600000   -0.0600000   2.494471e-04  1.671101e-07
    306    309   2   0.50000    -0.0600000   -0.1200000   1.015252e-03  1.866303e-06
    306    315   2   0.50000    -0.0600000    0.0600000   2.494471e-04  1.671101e-07
    306    316   2   0.50000    -0.0600000    0.0600000   2.494471e-04  1.671101e-07
    311    315   2   0.50000    -0.1200000    0.0600000   2.494471e-04  1.671101e-07
    311    316   2   0.50000    -0.1200000    0.0600000   2.494471e-04  1.671101e-07
    314    309   2   0.50000     0.0600000   -0.1200000   2.494471e-04  1.671101e-07
    314    315   2   0.50000     0.0600000    0.0600000   6.128906e-05  1.496315e-08
    314    316   2   0.50000     0.0600000    0.0600000   6.128906e-05  1.496315e-08
    306    310   2   0.50000    -0.0600000   -0.1200000   1.015252e-03  1.866303e-06
    306    321   2   0.50000    -0.0600000    0.0600000   2.494471e-04  1.671101e-07
    306    322   2   0.50000    -0.0600000    0.0600000   2.494471e-04  1.671101e-07
    308    321   2   0.50000    -0.1200000    0.0600000   2.494471e-04  1.671101e-07
    308    322   2   0.50000    -0.1200000    0.0600000   2.494471e-04  1.671101e-07
    314    310   2   0.50000     0.0600000   -0.1200000   2.494471e-04  1.671101e-07
    314    321   2   0.50000     0.0600000    0.0600000   6.128906e-05  1.496315e-08
    314    322   2   0.50000     0.0600000    0.0600000   6.128906e-05  1.496315e-08
    307    317   2   0.50000    -0.0600000    0.0600000   2.494471e-04  1.671101e-07
    307    318   2   0.50000    -0.0600000    0.0600000   2.494471e-04  1.671101e-07
    315    310   2   0.50000     0.0600000   -0.1200000   2.494471e-04  1.671101e-07
    315    317   2   0.50000     0.0600000    0.0600000   6.128906e-05  1.496315e-08
    315    318   2   0.50000     0.0600000    0.0600000   6.128906e-05  1.496315e-08
    316    310   2   0.50000     0.0600000   -0.1200000   2.494471e-04  1.671101e-07
    316    317   2   0.50000     0.0600000    0.0600000   6.128906e-05  1.496315e-08
    316    318   2   0.50000     0.0600000    0.0600000   6.128906e-05  1.496315e-08
    308    319   2   0.50000    -0.1200000    0.0600000   2.494471e-04  1.671101e-07
    308    320   2   0.50000    -0.1200000    0.0600000   2.494471e-04  1.671101e-07
    317    311   2   0.50000     0.0600000   -0.1200000   2.494471e-04  1.671101e-07
    317    319   2   0.50000     0.0600000    0.0600000   6.128906e-05  1.496315e-08
    317    320   2   0.50000     0.0600000    0.0600000   6.128906e-05  1.496315e-08
    318    311   2   0.50000     0.0600000   -0.1200000   2.494471e-04  1.671101e-07
    318    319   2   0.50000     0.0600000    0.0600000   6.128906e-05  1.496315e-08
    318    320   2   0.50000     0.0600000    0.0600000   6.128906e-05  1.496315e-08
    309    321   2   0.50000    -0.1200000    0.0600000   2.494471e-04  1.671101e-07
    309    322   2   0.50000    -0.1200000    0.0600000   2.494471e-04  1.671101e-07
    319    307   2   0.50000     0.0600000   -0.0600000   2.494471e-04  1.671101e-07
    319    321   2   0.50000     0.0600000    0.0600000   6.128906e-05  1.496315e-08
    319    322   2   0.50000     0.0600000    0.0600000   6.128906e-05  1.496315e-08
    320    307   2   0.50000     0.0600000   -0.0600000   2.494471e-04  1.671101e-07
    320    321   2   0.50000     0.0600000    0.0600000   6.128906e-05  1.496315e-08
    320    322   2   0.50000     0.0600000    0.0600000   6.128906e-05  1.496315e-08
    306    326   2   0.50000    -0.0600000   -0.0600000   1.015252e-03  1.866303e-06
    306    331   2   0.50000    -0.0600000   -0.1200000   1.015252e-03  1.866303e-06
    306    332   2   0.50000    -0.0600000    0.0600000   2.494471e-04  1.671101e-07
    323    326   2   0.50000     0.0600000   -0.0600000   2.494471e-04  1.671101e-07
    323    331   2   0.50000     0.0600000   -0.1200000   2.494471e-04  1.671101e-07
    323    332   2   0.50000     0.0600000    0.0600000   6.128906e-05  1.496315e-08
    324    326   2   0.50000     0.0600000   -0.0600000   2.494471e-04  1.671101e-07
    324    331   2   0.50000     0.0600000   -0.1200000   2.494471e-04  1.671101e-07
    324    332   2   0.50000     0.0600000    0.0600000   6.128906e-05  1.496315e-08
    312    327   2   0.50000    -0.1200000   -0.1200000   1.015252e-03  1.866303e-06
    312    330   2   0.50000    -0.1200000   -0.1200000   1.015252e-03  1.866303e-06
    312    333   2   0.50000    -0.1200000    0.0600000   2.494471e-04  1.671101e-07
    331    327   2   0.50000    -0.1200000   -0.1200000   1.015252e-03  1.866303e-06
    331    330   2   0.50000    -0.1200000   -0.1200000   1.015252e-03  1.866303e-06
    331    333   2   0.50000    -0.1200000    0.0600000   2.494471e-04  1.671101e-07
    332    327   2   0.50000     0.0600000   -0.1200000   2.494471e-04  1.671101e-07
    332    330   2   0.50000     0.0600000   -0.1200000   2.494471e-04  1.671101e-07
    332    333   2   0.50000     0.0600000    0.0600000   6.128906e-05  1.496315e-08
    312    342   2   0.50000    -0.1200000    0.0600000   2.494471e-04  1.671101e-07
    312    343   2   0.50000    -0.1200000    0.0600000   2.494471e-04  1.671101e-07
    312    344   2   0.50000    -0.1200000   -0.0600000   1.015252e-03  1.866303e-06
    326    342   2   0.50000    -0.0600000    0.0600000   2.494471e-04  1.671101e-07
    326    343   2   0.50000    -0.0600000    0.0600000   2.494471e-04  1.671101e-07
    326    344   2   0.50000    -0.0600000   -0.0600000   1.015252e-03  1.866303e-06
    332    342   2   0.50000     0.0600000    0.0600000   6.128906e-05  1.496315e-08
    332    343   2   0.50000     0.0600000    0.0600000   6.128906e-05  1.496315e-08
    332    344   2   0.50000     0.0600000   -0.0600000   2.494471e-04  1.671101e-07
    325    328   2   0.50000    -0.0600000   -0.1200000   1.015252e-03  1.866303e-06
    325    334   2   0.50000    -0.0600000    0.0600000   2.494471e-04  1.671101e-07
    325    335   2   0.50000    -0.0600000    0.0600000   2.494471e-04  1.671101e-07
    330    334   2   0.50000    -0.1200000    0.0600000   2.494471e-04  1.671101e-07
    330    335   2   0.50000    -0.1200000    0.0600000   2.494471e-04  1.671101e-07
    333    328   2   0.50000     0.0600000   -0.1200000   2.494471e-04  1.671101e-07
    333    334   2   0.50000     0.0600000    0.0600000   6.128906e-05  1.496315e-08
    333    335   2   0.50000     0.0600000    0.0600000   6.128906e-05  1.496315e-08
    325    329   2   0.50000    -0.0600000   -0.1200000   1.015252e-03  1.866303e-06
    325    340   2   0.50000    -0.0600000    0.0600000   2.494471e-04  1.671101e-07
    325    341   2   0.50000    -0.0600000    0.0600000   2.494471e-04  1.671101e-07
    327    340   2   0.50000    -0.1200000    0.0600000   2.494471e-04  1.671101e-07
    327    341   2   0.50000    -0.1200000    0.0600000   2.494471e-04  1.671101e-07
    333    329   2   0.50000     0.0600000   -0.1200000   2.494471e-04  1.671101e-07
    333    340   2   0.50000     0.0600000    0.0600000   6.128906e-05  1.496315e-08
    333    341   2   0.50000     0.0600000    0.0600000   6.128906e-05  1.496315e-08
    326    336   2   0.50000    -0.0600000    0.0600000   2.494471e-04  1.671101e-07
    326    337   2   0.50000    -0.0600000    0.0600000   2.494471e-04  1.671101e-07
    334    329   2   0.50000     0.0600000   -0.1200000   2.494471e-04  1.671101e-07
    334    336   2   0.50000     0.0600000    0.0600000   6.128906e-05  1.496315e-08
    334    337   2   0.50000     0.0600000    0.0600000   6.128906e-05  1.496315e-08
    335    329   2   0.50000     0.0600000   -0.1200000   2.494471e-04  1.671101e-07
    335    336   2   0.50000     0.0600000    0.0600000   6.128906e-05  1.496315e-08
    335    337   2   0.50000     0.0600000    0.0600000   6.128906e-05  1.496315e-08
    327    338   2   0.50000    -0.1200000    0.0600000   2.494471e-04  1.671101e-07
    327    339   2   0.50000    -0.1200000    0.0600000   2.494471e-04  1.671101e-07
    336    330   2   0.50000     0.0600000   -0.1200000   2.494471e-04  1.671101e-07
    336    338   2   0.50000     0.0600000    0.0600000   6.128906e-05  1.496315e-08
    336    339   2   0.50000     0.0600000    0.0600000   6.128906e-05  1.496315e-08
    337    330   2   0.50000     0.0600000   -0.1200000   2.494471e-04  1.671101e-07
    337    338   2   0.50000     0.0600000    0.0600000   6.128906e-05  1.496315e-08
    337    339   2   0.50000     0.0600000    0.0600000   6.128906e-05  1.496315e-08
    328    340   2   0.50000    -0.1200000    0.0600000   2.494471e-04  1.671101e-07
    328    341   2   0.50000    -0.1200000    0.0600000   2.494471e-04  1.671101e-07
    338    326   2   0.50000     0.0600000   -0.0600000   2.494471e-04  1.671101e-07
    338    340   2   0.50000     0.0600000    0.0600000   6.128906e-05  1.496315e-08
    338    341   2   0.50000     0.0600000    0.0600000   6.128906e-05  1.496315e-08
    339    326   2   0.50000     0.0600000   -0.0600000   2.494471e-04  1.671101e-07
    339    340   2   0.50000     0.0600000    0.0600000   6.128906e-05  1.496315e-08
    339    341   2   0.50000     0.0600000    0.0600000   6.128906e-05  1.496315e-08
    325    345   2   0.50000    -0.0600000   -0.0600000   1.015252e-03  1.866303e-06
    325    350   2   0.50000    -0.0600000   -0.1200000   1.015252e-03  1.866303e-06
    325    351   2   0.50000    -0.0600000    0.0600000   2.494471e-04  1.671101e-07
    342    345   2   0.50000     0.0600000   -0.0600000   2.494471e-04  1.671101e-07
    342    350   2   0.50000     0.0600000   -0.1200000   2.494471e-04  1.671101e-07
    342    351   2   0.50000     0.0600000    0.0600000   6.128906e-05  1.496315e-08
    343    345   2   0.50000     0.0600000   -0.0600000   2.494471e-04  1.671101e-07
    343    350   2   0.50000     0.0600000   -0.1200000   2.494471e-04  1.671101e-07
    343    351   2   0.50000     0.0600000    0.0600000   6.128906e-05  1.496315e-08
    331    346   2   0.50000    -0.1200000   -0.1200000   1.015252e-03  1.866303e-06
    331    349   2   0.50000    -0.1200000   -0.1200000   1.015252e-03  1.866303e-06
    331    352   2   0.50000    -0.1200000    0.0600000   2.494471e-04  1.671101e-07
    350    346   2   0.50000    -0.1200000   -0.1200000   1.015252e-03  1.866303e-06
    350    349   2   0.50000    -0.1200000   -0.1200000   1.015252e-03  1.866303e-06
    350    352   2   0.50000    -0.1200000    0.0600000   2.494471e-04  1.671101e-07
    351    346   2   0.50000     0.0600000   -0.1200000   2.494471e-04  1.671101e-07
    351    349   2   0.50000     0.0600000   -0.1200000   2.494471e-04  1.671101e-07
    351    352   2   0.50000     0.0600000    0.0600000   6.128906e-05  1.496315e-08
    331    361   2   0.50000    -0.1200000    0.0600000   2.494471e-04  1.671101e-07
    331    362   2   0.50000    -0.1200000    0.0600000   2.494471e-04  1.671101e-07
    331    363   2   0.50000    -0.1200000   -0.0600000   1.015252e-03  1.866303e-06
    345    361   2   0.50000    -0.0600000    0.0600000   2.494471e-04  1.671101e-07
    345    362   2   0.50000    -0.0600000    0.0600000   2.494471e-04  1.671101e-07
    345    363   2   0.50000    -0.0600000   -0.0600000   1.015252e-03  1.866303e-06
    351    361   2   0.50000     0.0600000    0.0600000   6.128906e-05  1.496315e-08
    351    362   2   0.50000     0.0600000    0.0600000   6.128906e-05  1.496315e-08
    351    363   2   0.50000     0.0600000   -0.0600000   2.494471e-04  1.671101e-07
    344    347   2   0.50000    -0.0600000   -0.1200000   1.015252e-03  1.866303e-06
    344    353   2   0.50000    -0.0600000    0.0600000   2.494471e-04  1.671101e-07
    344    354   2   0.50000    -0.0600000    0.0600000   2.494471e-04  1.671101e-07
    349    353   2   0.50000    -0.1200000    0.0600000   2.494471e-04  1.671101e-07
    349    354   2   0.50000    -0.1200000    0.0600000   2.494471e-04  1.671101e-07
    352    347   2   0.50000     0.0600000   -0.1200000   2.494471e-04  1.671101e-07
    352    353   2   0.50000     0.0600000    0.0600000   6.128906e-05  1.496315e-08
    352    354   2   0.50000     0.0600000    0.0600000   6.128906e-05  1.496315e-08
    344    348   2   0.50000    -0.0600000   -0.1200000   1.015252e-03  1.866303e-06
    344    359   2   0.50000    -0.0600000    0.0600000   2.494471e-04  1.671101e-07
    344    360   2   0.50000    -0.0600000    0.0600000   2.494471e-04  1.671101e-07
    346    359   2   0.50000    -0.1200000    0.0600000   2.494471e-04  1.671101e-07
    346    360   2   0.50000    -0.1200000    0.0600000   2.494471e-04  1.671101e-07
    352    348   2   0.50000     0.0600000   -0.1200000   2.494471e-04  1.671101e-07
    352    359   2   0.50000     0.0600000    0.0600000   6.128906e-05  1.496315e-08
    352    360   2   0.50000     0.0600000    0.0600000   6.128906e-05  1.496315e-08
    345    355   2   0.50000    -0.0600000    0.0600000   2.494471e-04  1.671101e-07
    345    356   2   0.50000    -0.0600000    0.0600000   2.494471e-04  1.671101e-07
    353    348   2   0.50000     0.0600000   -0.1200000   2.494471e-04  1.671101e-07
    353    355   2   0.50000     0.0600000    0.0600000   6.128906e-05  1.496315e-08
    353    356   2   0.50000     0.0600000    0.0600000   6.128906e-05  1.496315e-08
    354    348   2   0.50000     0.0600000   -0.1200000   2.494471e-04  1.671101e-07
    354    355   2   0.50000     0.0600000    0.0600000   6.128906e-05  1.496315e-08
    354    356   2   0.50000     0.0600000    0.0600000   6.128906e-05  1.496315e-08
    346    357   2   0.50000    -0.1200000    0.0600000   2.494471e-04  1.671101e-07
    346    358   2   0.50000    -0.1200000    0.0600000   2.494471e-04  1.671101e-07
    355    349   2   0.50000     0.0600000   -0.1200000   2.494471e-04  1.671101e-07
    355    357   2   0.50000     0.0600000    0.0600000   6.128906e-05  1.496315e-08
    355    358   2   0.50000     0.0600000    0.0600000   6.128906e-05  1.496315e-08
    356    349   2   0.50000     0.0600000   -0.1200000   2.494471e-04  1.671101e-07
    356    357   2   0.50000     0.0600000    0.0600000   6.128906e-05  1.496315e-08
    356    358   2   0.50000     0.0600000    0.0600000   6.128906e-05  1.496315e-08
    347    359   2   0.50000    -0.1200000    0.0600000   2.494471e-04  1.671101e-07
    347    360   2   0.50000    -0.1200000    0.0600000   2.494471e-04  1.671101e-07
    357    345   2   0.50000     0.0600000   -0.0600000   2.494471e-04  1.671101e-07
    357    359   2   0.50000     0.0600000    0.0600000   6.128906e-05  1.496315e-08
    357    360   2   0.50000     0.0600000    0.0600000   6.128906e-05  1.496315e-08
    358    345   2   0.50000     0.0600000   -0.0600000   2.494471e-04  1.671101e-07
    358    359   2   0.50000     0.0600000    0.0600000   6.128906e-05  1.496315e-08
    358    360   2   0.50000     0.0600000    0.0600000   6.128906e-05  1.496315e-08
    344    364   2   0.50000    -0.0600000   -0.0600000   1.015252e-03  1.866303e-06
    344    369   2   0.50000    -0.0600000   -0.1800000   1.015252e-03  1.866303e-06
    344    370   2   0.50000    -0.0600000    0.0600000   2.494471e-04  1.671101e-07
    361    364   2   0.50000     0.0600000   -0.0600000   2.494471e-04  1.671101e-07
    361    369   2   0.50000     0.0600000   -0.1800000   2.494471e-04  1.671101e-07
    361    370   2   0.50000     0.0600000    0.0600000   6.128906e-05  1.496315e-08
    362    364   2   0.50000     0.0600000   -0.0600000   2.494471e-04  1.671101e-07
    362    369   2   0.50000     0.0600000   -0.1800000   2.494471e-04  1.671101e-07
    362    370   2   0.50000     0.0600000    0.0600000   6.128906e-05  1.496315e-08
    350    365   2   0.50000    -0.1200000   -0.1200000   1.015252e-03  1.866303e-06
    350    368   2   0.50000    -0.1200000   -0.1200000   1.015252e-03  1.866303e-06
    350    371   2   0.50000    -0.1200000    0.0600000   2.494471e-04  1.671101e-07
    369    365   2   0.50000    -0.1800000   -0.1200000   1.015252e-03  1.866303e-06
    369    368   2   0.50000    -0.1800000   -0.1200000   1.015252e-03  1.866303e-06
    369    371   2   0.50000    -0.1800000    0.0600000   2.494471e-04  1.671101e-07
    370    365   2   0.50000     0.0600000   -0.1200000   2.494471e-04  1.671101e-07
    370    368   2   0.50000     0.0600000   -0.1200000   2.494471e-04  1.671101e-07
    370    371   2   0.50000     0.0600000    0.0600000   6.128906e-05  1.496315e-08
    350    380   2   0.50000    -0.1200000    0.0600000   2.494471e-04  1.671101e-07
    350    381   2   0.50000    -0.1200000    0.0600000   2.494471e-04  1.671101e-07
    350    382   2   0.50000    -0.1200000    0.0600000   2.494471e-04  1.671101e-07
    364    380   2   0.50000    -0.0600000    0.0600000   2.494471e-04  1.671101e-07
    364    381   2   0.50000    -0.0600000    0.0600000   2.494471e-04  1.671101e-07
    364    382   2   0.50000    -0.0600000    0.0600000   2.494471e-04  1.671101e-07
    370    380   2   0.50000     0.0600000    0.0600000   6.128906e-05  1.496315e-08
    370    381   2   0.50000     0.0600000    0.0600000   6.128906e-05  1.496315e-08
    370    382   2   0.50000     0.0600000    0.0600000   6.128906e-05  1.496315e-08
    363    366   2   0.50000    -0.0600000   -0.1200000   1.015252e-03  1.866303e-06
    363    372   2   0.50000    -0.0600000    0.0600000   2.494471e-04  1.671101e-07
    363    373   2   0.50000    -0.0600000    0.0600000   2.494471e-04  1.671101e-07
    368    372   2   0.50000    -0.1200000    0.0600000   2.494471e-04  1.671101e-07
    368    373   2   0.50000    -0.1200000    0.0600000   2.494471e-04  1.671101e-07
    371    366   2   0.50000     0.0600000   -0.1200000   2.494471e-04  1.671101e-07
    371    372   2   0.50000     0.0600000    0.0600000   6.128906e-05  1.496315e-08
    371    373   2   0.50000     0.0600000    0.0600000   6.128906e-05  1.496315e-08
    363    367   2   0.50000    -0.0600000   -0.1200000   1.015252e-03  1.866303e-06
    363    378   2   0.50000    -0.0600000    0.0600000   2.494471e-04  1.671101e-07
    363    379   2   0.50000    -0.0600000    0.0600000   2.494471e-04  1.671101e-07
    365    378   2   0.50000    -0.1200000    0.0600000   2.494471e-04  1.671101e-07
    365    379   2   0.50000    -0.1200000    0.0600000   2.494471e-04  1.671101e-07
    371    367   2   0.50000     0.0600000   -0.1200000   2.494471e-04  1.671101e-07
    371    378   2   0.50000     0.0600000    0.0600000   6.128906e-05  1.496315e-08
    371    379   2   0.50000     0.0600000    0.0600000   6.128906e-05  1.496315e-08
    364    374   2   0.50000    -0.0600000    0.0600000   2.494471e-04  1.671101e-07
    364    375   2   0.50000    -0.0600000    0.0600000   2.494471e-04  1.671101e-07
    372    367   2   0.50000     0.0600000   -0.1200000   2.494471e-04  1.671101e-07
    372    374   2   0.50000     0.0600000    0.0600000   6.128906e-05  1.496315e-08
    372    375   2   0.50000     0.0600000    0.0600000   6.128906e-05  1.496315e-08
    373    367   2   0.50000     0.0600000   -0.1200000   2.494471e-04  1.671101e-07
    373    374   2   0.50000     0.0600000    0.0600000   6.128906e-05  1.496315e-08
    373    375   2   0.50000     0.0600000    0.0600000   6.128906e-05  1.496315e-08
    365    376   2   0.50000    -0.1200000    0.0600000   2.494471e-04  1.671101e-07
    365    377   2   0.50000    -0.1200000    0.0600000   2.494471e-04  1.671101e-07
    374    368   2   0.50000     0.0600000   -0.1200000   2.494471e-04  1.671101e-07
    374    376   2   0.50000     0.0600000    0.0600000   6.128906e-05  1.496315e-08
    374    377   2   0.50000     0.0600000    0.0600000   6.128906e-05  1.496315e-08
    375    368   2   0.50000     0.0600000   -0.1200000   2.494471e-04  1.671101e-07
    375    376   2   0.50000     0.0600000    0.0600000   6.128906e-05  1.496315e-08
    375    377   2   0.50000     0.0600000    0.0600000   6.128906e-05  1.496315e-08
    366    378   2   0.50000    -0.1200000    0.0600000   2.494471e-04  1.671101e-07
    366    379   2   0.50000    -0.1200000    0.0600000   2.494471e-04  1.671101e-07
    376    364   2   0.50000     0.0600000   -0.0600000   2.494471e-04  1.671101e-07
    376    378   2   0.50000     0.0600000    0.0600000   6.128906e-05  1.496315e-08
    376    379   2   0.50000     0.0600000    0.0600000   6.128906e-05  1.496315e-08
    377    364   2   0.50000     0.0600000   -0.0600000   2.494471e-04  1.671101e-07
    377    378   2   0.50000     0.0600000    0.0600000   6.128906e-05  1.496315e-08
    377    379   2   0.50000     0.0600000    0.0600000   6.128906e-05  1.496315e-08

[ angles ]
; ai  aj  ak
      2      1      7   1    112.7000    488.2728
      2      1      8   1    110.7000    313.8000
      2      1     20   1    110.7000    313.8000
      7      1      8   1    110.7000    313.8000
      7      1     20   1    110.7000    313.8000
      8      1     20   1    107.8000    276.1440
      1      2      3   1    112.7000    488.2728
      1      2      6   1    112.7000    488.2728
      1      2      9   1    110.7000    313.8000
      3      2      6   1    112.7000    488.2728
      3      2      9   1    110.7000    313.8000
      6      2      9   1    110.7000    313.8000
      2      3      4   1    112.7000    488.2728
      2      3     10   1    110.7000    313.8000
      2      3     11   1    110.7000    313.8000
      4      3     10   1    110.7000    313.8000
      4      3     11   1    110.7000    313.8000
     10      3     11   1    107.8000    276.1440
      3      4      5   1    112.7000    488.2728
      3      4     12   1    110.7000    313.8000
      3      4     13   1    110.7000    313.8000
      5      4     12   1    110.7000    313.8000
      5      4     13   1    110.7000    313.8000
     12      4     13   1    107.8000    276.1440
      4      5      6   1    112.7000    488.2728
      4      5     14   1    110.7000    313.8000
      4      5     15   1    110.7000    313.8000
      6      5     14   1    110.7000    313.8000
      6      5     15   1    110.7000    313.8000
     14      5     15   1    107.8000    276.1440
      2      6      5   1    112.7000    488.2728
      2      6     16   1    110.7000    313.8000
      2      6     17   1    110.7000    313.8000
      5      6     16   1    110.7000    313.8000
      5      6     17   1    110.7000    313.8000
     16      6     17   1    107.8000    276.1440
      1      7     18   1    110.7000    313.8000
      1      7     19   1    110.7000    313.8000
      1      7     21   1    112.7000    488.2728
     18      7     19   1    107.8000    276.1440
     18      7     21   1    110.7000    313.8000
     19      7     21   1    110.7000    313.8000
      7     21     22   1    112.7000    488.2728
      7     21     27   1    112.7000    488.2728
      7     21     28   1    110.7000    313.8000
     22     21     27   1    112.7000    488.2728
     22     21     28   1    110.7000    313.8000
     27     21     28   1    110.7000    313.8000
     21     22     23   1    112.7000    488.2728
     21     22     26   1    112.7000    488.2728
     21     22     29   1    110.7000    313.8000
     23     22     26   1    112.7000    488.2728
     23     22     29   1    110.7000    313.8000
     26     22     29   1    110.7000    313.8000
     22     23     24   1    112.7000    488.2728
     22     23     30   1    110.7000    313.8000
     22     23     31   1    110.7000    313.8000
     24     23     30   1    110.7000    313.8000
     24     23     31   1    110.7000    313.8000
     30     23     31   1    107.8000    276.1440
     23     24     25   1    112.7000    488.2728
     23     24     32   1    110.7000    313.8000
     23     24     33   1    110.7000    313.8000
     25     24     32   1    110.7000    313.8000
     25     24     33   1    110.7000    313.8000
     32     24     33   1    107.8000    276.1440
     24     25     26   1    112.7000    488.2728
     24     25     34   1    110.7000    313.8000
     24     25     35   1    110.7000    313.8000
     26     25     34   1    110.7000    313.8000
     26     25     35   1    110.7000    313.8000
     34     25     35   1    107.8000    276.1440
     22     26     25   1    112.7000    488.2728
     22     26     36   1    110.7000    313.8000
     22     26     37   1    110.7000    313.8000
     25     26     36   1    110.7000    313.8000
     25     26     37   1    110.7000    313.8000
     36     26     37   1    107.8000    276.1440
     21     27     38   1    110.7000    313.8000
     21     27     39   1    110.7000    313.8000
     21     27     40   1    112.7000    488.2728
     38     27     39   1    107.8000    276.1440
     38     27     40   1    110.7000    313.8000
     39     27     40   1    110.7000    313.8000
     27     40     41   1    112.7000    488.2728
     27     40     46   1    112.7000    488.2728
     27     40     47   1    110.7000    313.8000
     41     40     46   1    112.7000    488.2728
     41     40     47   1    110.7000    313.8000
     46     40     47   1    110.7000    313.8000
     40     41     42   1    112.7000    488.2728
     40     41     45   1    112.7000    488.2728
     40     41     48   1    110.7000    313.8000
     42     41     45   1    112.7000    488.2728
     42     41     48   1    110.7000    313.8000
     45     41     48   1    110.7000    313.8000
     41     42     43   1    112.7000    488.2728
     41     42     49   1    110.7000    313.8000
     41     42     50   1    110.7000    313.8000
     43     42     49   1    110.7000    313.8000
     43     42     50   1    110.7000    313.8000
     49     42     50   1    107.8000    276.1440
     42     43     44   1    112.7000    488.2728
     42     43     51   1    110.7000    313.8000
     42     43     52   1    110.7000    313.8000
     44     43     51   1    110.7000    313.8000
     44     43     52   1    110.7000    313.8000
     51     43     52   1    107.8000    276.1440
     43     44     45   1    112.7000    488.2728
     43     44     53   1    110.7000    313.8000
     43     44     54   1    110.7000    313.8000
     45     44     53   1    110.7000    313.8000
     45     44     54   1    110.7000    313.8000
     53     44     54   1    107.8000    276.1440
     41     45     44   1    112.7000    488.2728
     41     45     55   1    110.7000    313.8000
     41     45     56   1    110.7000    313.8000
     44     45     55   1    110.7000    313.8000
     44     45     56   1    110.7000    313.8000
     55     45     56   1    107.8000    276.1440
     40     46     57   1    110.7000    313.8000
     40     46     58   1    110.7000    313.8000
     40     46     59   1    112.7000    488.2728
     57     46     58   1    107.8000    276.1440
     57     46     59   1    110.7000    313.8000
     58     46     59   1    110.7000    313.8000
     46     59     60   1    112.7000    488.2728
     46     59     65   1    112.7000    488.2728
     46     59     66   1    110.7000    313.8000
     60     59     65   1    112.7000    488.2728
     60     59     66   1    110.7000    313.8000
     65     59     66   1    110.7000    313.8000
     59     60     61   1    112.7000    488.2728
     59     60     64   1    112.7000    488.2728
     59     60     67   1    110.7000    313.8000
     61     60     64   1    112.7000    488.2728
     61     60     67   1    110.7000    313.8000
     64     60     67   1    110.7000    313.8000
     60     61     62   1    112.7000    488.2728
     60     61     68   1    110.7000    313.8000
     60     61     69   1    110.7000    313.8000
     62     61     68   1    110.7000    313.8000
     62     61     69   1    110.7000    313.8000
     68     61     69   1    107.8000    276.1440
     61     62     63   1    112.7000    488.2728
     61     62     70   1    110.7000    313.8000
     61     62     71   1    110.7000    313.8000
     63     62     70   1    110.7000    313.8000
     63     62     71   1    110.7000    313.8000
     70     62     71   1    107.8000    276.1440
     62     63     64   1    112.7000    488.2728
     62     63     72   1    110.7000    313.8000
     62     63     73   1    110.7000    313.8000
     64     63     72   1    110.7000    313.8000
     64     63     73   1    110.7000    313.8000
     72     63     73   1    107.8000    276.1440
     60     64     63   1    112.7000    488.2728
     60     64     74   1    110.7000    313.8000
     60     64     75   1    110.7000    313.8000
     63     64     74   1    110.7000    313.8000
     63     64     75   1    110.7000    313.8000
     74     64     75   1    107.8000    276.1440
     59     65     76   1    110.7000    313.8000
     59     65     77   1    110.7000    313.8000
     59     65     78   1    112.7000    488.2728
     76     65     77   1    107.8000    276.1440
     76     65     78   1    110.7000    313.8000
     77     65     78   1    110.7000    313.8000
     65     78     79   1    112.7000    488.2728
     65     78     84   1    112.7000    488.2728
     65     78     85   1    110.7000    313.8000
     79     78     84   1    112.7000    488.2728
     79     78     85   1    110.7000    313.8000
     84     78     85   1    110.7000    313.8000
     78     79     80   1    112.7000    488.2728
     78     79     83   1    112.7000    488.2728
     78     79     86   1    110.7000    313.8000
     80     79     83   1    112.7000    488.2728
     80     79     86   1    110.7000    313.8000
     83     79     86   1    110.7000    313.8000
     79     80     81   1    112.7000    488.2728
     79     80     87   1    110.7000    313.8000
     79     80     88   1    110.7000    313.8000
     81     80     87   1    110.7000    313.8000
     81     80     88   1    110.7000    313.8000
     87     80     88   1    107.8000    276.1440
     80     81     82   1    112.7000    488.2728
     80     81     89   1    110.7000    313.8000
     80     81     90   1    110.7000    313.8000
     82     81     89   1    110.7000    313.8000
     82     81     90   1    110.7000    313.8000
     89     81     90   1    107.8000    276.1440
     81     82     83   1    112.7000    488.2728
     81     82     91   1    110.7000    313.8000
     81     82     92   1    110.7000    313.8000
     83     82     91   1    110.7000    313.8000
     83     82     92   1    110.7000    313.8000
     91     82     92   1    107.8000    276.1440
     79     83     82   1    112.7000    488.2728
     79     83     93   1    110.7000    313.8000
     79     83     94   1    110.7000    313.8000
     82     83     93   1    110.7000    313.8000
     82     83     94   1    110.7000    313.8000
     93     83     94   1    107.8000    276.1440
     78     84     95   1    110.7000    313.8000
     78     84     96   1    110.7000    313.8000
     78     84     97   1    112.7000    488.2728
     95     84     96   1    107.8000    276.1440
     95     84     97   1    110.7000    313.8000
     96     84     97   1    110.7000    313.8000
     84     97     98   1    112.7000    488.2728
     84     97    103   1    112.7000    488.2728
     84     97    104   1    110.7000    313.8000
     98     97    103   1    112.7000    488.2728
     98     97    104   1    110.7000    313.8000
    103     97    104   1    110.7000    313.8000
     97     98     99   1    112.7000    488.2728
     97     98    102   1    112.7000    488.2728
     97     98    105   1    110.7000    313.8000
     99     98    102   1    112.7000    488.2728
     99     98    105   1    110.7000    313.8000
    102     98    105   1    110.7000    313.8000
     98     99    100   1    112.7000    488.2728
     98     99    106   1    110.7000    313.8000
     98     99    107   1    110.7000    313.8000
    100     99    106   1    110.7000    313.8000
    100     99    107   1    110.7000    313.8000
    106     99    107   1    107.8000    276.1440
     99    100    101   1    112.7000    488.2728
     99    100    108   1    110.7000    313.8000
     99    100    109   1    110.7000    313.8000
    101    100    108   1    110.7000    313.8000
    101    100    109   1    110.7000    313.8000
    108    100    109   1    107.8000    276.1440
    100    101    102   1    112.7000    488.2728
    100    101    110   1    110.7000    313.8000
    100    101    111   1    110.7000    313.8000
    102    101    110   1    110.7000    313.8000
    102    101    111   1    110.7000    313.8000
    110    101    111   1    107.8000    276.1440
     98    102    101   1    112.7000    488.2728
     98    102    112   1    110.7000    313.8000
     98    102    113   1    110.7000    313.8000
    101    102    112   1    110.7000    313.8000
    101    102    113   1    110.7000    313.8000
    112    102    113   1    107.8000    276.1440
     97    103    114   1    110.7000    313.8000
     97    103    115   1    110.7000    313.8000
     97    103    116   1    112.7000    488.2728
    114    103    115   1    107.8000    276.1440
    114    103    116   1    110.7000    313.8000
    115    103    116   1    110.7000    313.8000
    103    116    117   1    112.7000    488.2728
    103    116    122   1    112.7000    488.2728
    103    116    123   1    110.7000    313.8000
    117    116    122   1    112.7000    488.2728
    117    116    123   1    110.7000    313.8000
    122    116    123   1    110.7000    313.8000
    116    117    118   1    112.7000    488.2728
    116    117    121   1    112.7000    488.2728
    116    117    124   1    110.7000    313.8000
    118    117    121   1    112.7000    488.2728
    118    117    124   1    110.7000    313.8000
    121    117    124   1    110.7000    313.8000
    117    118    119   1    112.7000    488.2728
    117    118    125   1    110.7000    313.8000
    117    118    126   1    110.7000    313.8000
    119    118    125   1    110.7000    313.8000
    119    118    126   1    110.7000    313.8000
    125    118    126   1    107.8000    276.1440
    118    119    120   1    112.7000    488.2728
    118    119    127   1    110.7000    313.8000
    118    119    128   1    110.7000    313.8000
    120    119    127   1    110.7000    313.8000
    120    119    128   1    110.7000    313.8000
    127    119    128   1    107.8000    276.1440
    119    120    121   1    112.7000    488.2728
    119    120    129   1    110.7000    313.8000
    119    120    130   1    110.7000    313.8000
    121    120    129   1    110.7000    313.8000
    121    120    130   1    110.7000    313.8000
    129    120    130   1    107.8000    276.1440
    117    121    120   1    112.7000    488.2728
    117    121    131   1    110.7000    313.8000
    117    121    132   1    110.7000    313.8000
    120    121    131   1    110.7000    313.8000
    120    121    132   1    110.7000    313.8000
    131    121    132   1    107.8000    276.1440
    116    122    133   1    110.7000    313.8000
    116    122    134   1    110.7000    313.8000
    116    122    135   1    112.7000    488.2728
    133    122    134   1    107.8000    276.1440
    133    122    135   1    110.7000    313.8000
    134    122    135   1    110.7000    313.8000
    122    135    136   1    112.7000    488.2728
    122    135    141   1    112.7000    488.2728
    122    135    142   1    110.7000    313.8000
    136    135    141   1    112.7000    488.2728
    136    135    142   1    110.7000    313.8000
    141    135    142   1    110.7000    313.8000
    135    136    137   1    112.7000    488.2728
    135    136    140   1    112.7000    488.2728
    135    136    143   1    110.7000    313.8000
    137    136    140   1    112.7000    488.2728
    137    136    143   1    110.7000    313.8000
    140    136    143   1    110.7000    313.8000
    136    137    138   1    112.7000    488.2728
    136    137    144   1    110.7000    313.8000
    136    137    145   1    110.7000    313.8000
    138    137    144   1    110.7000    313.8000
    138    137    145   1    110.7000    313.8000
    144    137    145   1    107.8000    276.1440
    137    138    139   1    112.7000    488.2728
    137    138    146   1    110.7000    313.8000
    137    138    147   1    110.7000    313.8000
    139    138    146   1    110.7000    313.8000
    139    138    147   1    110.7000    313.8000
    146    138    147   1    107.8000    276.1440
    138    139    140   1    112.7000    488.2728
    138    139    148   1    110.7000    313.8000
    138    139    149   1    110.7000    313.8000
    140    139    148   1    110.7000    313.8000
    140    139    149   1    110.7000    313.8000
    148    139    149   1    107.8000    276.1440
    136    140    139   1    112.7000    488.2728
    136    140    150   1    110.7000    313.8000
    136    140    151   1    110.7000    313.8000
    139    140    150   1    110.7000    313.8000
    139    140    151   1    110.7000    313.8000
    150    140    151   1    107.8000    276.1440
    135    141    152   1    110.7000    313.8000
    135    141    153   1    110.7000    313.8000
    135    141    154   1    112.7000    488.2728
    152    141    153   1    107.8000    276.1440
    152    141    154   1    110.7000    313.8000
    153    141    154   1    110.7000    313.8000
    141    154    155   1    112.7000    488.2728
    141    154    160   1    112.7000    488.2728
    141    154    161   1    110.7000    313.8000
    155    154    160   1    112.7000    488.2728
    155    154    161   1    110.7000    313.8000
    160    154    161   1    110.7000    313.8000
    154    155    156   1    112.7000    488.2728
    154    155    159   1    112.7000    488.2728
    154    155    162   1    110.7000    313.8000
    156    155    159   1    112.7000    488.2728
    156    155    162   1    110.7000    313.8000
    159    155    162   1    110.7000    313.8000
    155    156    157   1    112.7000    488.2728
    155    156    163   1    110.7000    313.8000
    155    156    164   1    110.7000    313.8000
    157    156    163   1    110.7000    313.8000
    157    156    164   1    110.7000    313.8000
    163    156    164   1    107.8000    276.1440
    156    157    158   1    112.7000    488.2728
    156    157    165   1    110.7000    313.8000
    156    157    166   1    110.7000    313.8000
    158    157    165   1    110.7000    313.8000
    158    157    166   1    110.7000    313.8000
    165    157    166   1    107.8000    276.1440
    157    158    159   1    112.7000    488.2728
    157    158    167   1    110.7000    313.8000
    157    158    168   1    110.7000    313.8000
    159    158    167   1    110.7000    313.8000
    159    158    168   1    110.7000    313.8000
    167    158    168   1    107.8000    276.1440
    155    159    158   1    112.7000    488.2728
    155    159    169   1    110.7000    313.8000
    155    159    170   1    110.7000    313.8000
    158    159    169   1    110.7000    313.8000
    158    159    170   1    110.7000    313.8000
    169    159    170   1    107.8000    276.1440
    154    160    171   1    110.7000    313.8000
    154    160    172   1    110.7000    313.8000
    154    160    173   1    112.7000    488.2728
    171    160    172   1    107.8000    276.1440
    171    160    173   1    110.7000    313.8000
    172    160    173   1    110.7000    313.8000
    160    173    174   1    112.7000    488.2728
    160    173    179   1    112.7000    488.2728
    160    173    180   1    110.7000    313.8000
    174    173    179   1    112.7000    488.2728
    174    173    180   1    110.7000    313.8000
    179    173    180   1    110.7000    313.8000
    173    174    175   1    112.7000    488.2728
    173    174    178   1    112.7000    488.2728
    173    174    181   1    110.7000    313.8000
    175    174    178   1    112.7000    488.2728
    175    174    181   1    110.7000    313.8000
    178    174    181   1    110.7000    313.8000
    174    175    176   1    112.7000    488.2728
    174    175    182   1    110.7000    313.8000
    174    175    183   1    110.7000    313.8000
    176    175    182   1    110.7000    313.8000
    176    175    183   1    110.7000    313.8000
    182    175    183   1    107.8000    276.1440
    175    176    177   1    112.7000    488.2728
    175    176    184   1    110.7000    313.8000
    175    176    185   1    110.7000    313.8000
    177    176    184   1    110.7000    313.8000
    177    176    185   1    110.7000    313.8000
    184    176    185   1    107.8000    276.1440
    176    177    178   1    112.7000    488.2728
    176    177    186   1    110.7000    313.8000
    176    177    187   1    110.7000    313.8000
    178    177    186   1    110.7000    313.8000
    178    177    187   1    110.7000    313.8000
    186    177    187   1    107.8000    276.1440
    174    178    177   1    112.7000    488.2728
    174    178    188   1    110.7000    313.8000
    174    178    189   1    110.7000    313.8000
    177    178    188   1    110.7000    313.8000
    177    178    189   1    110.7000    313.8000
    188    178    189   1    107.8000    276.1440
    173    179    190   1    110.7000    313.8000
    173    179    191   1    110.7000    313.8000
    173    179    192   1    112.7000    488.2728
    190    179    191   1    107.8000    276.1440
    190    179    192   1    110.7000    313.8000
    191    179    192   1    110.7000    313.8000
    179    192    193   1    112.7000    488.2728
    179    192    198   1    112.7000    488.2728
    179    192    199   1    110.7000    313.8000
    193    192    198   1    112.7000    488.2728
    193    192    199   1    110.7000    313.8000
    198    192    199   1    110.7000    313.8000
    192    193    194   1    112.7000    488.2728
    192    193    197   1    112.7000    488.2728
    192    193    200   1    110.7000    313.8000
    194    193    197   1    112.7000    488.2728
    194    193    200   1    110.7000    313.8000
    197    193    200   1    110.7000    313.8000
    193    194    195   1    112.7000    488.2728
    193    194    201   1    110.7000    313.8000
    193    194    202   1    110.7000    313.8000
    195    194    201   1    110.7000    313.8000
    195    194    202   1    110.7000    313.8000
    201    194    202   1    107.8000    276.1440
    194    195    196   1    112.7000    488.2728
    194    195    203   1    110.7000    313.8000
    194    195    204   1    110.7000    313.8000
    196    195    203   1    110.7000    313.8000
    196    195    204   1    110.7000    313.8000
    203    195    204   1    107.8000    276.1440
    195    196    197   1    112.7000    488.2728
    195    196    205   1    110.7000    313.8000
    195    196    206   1    110.7000    313.8000
    197    196    205   1    110.7000    313.8000
    197    196    206   1    110.7000    313.8000
    205    196    206   1    107.8000    276.1440
    193    197    196   1    112.7000    488.2728
    193    197    207   1    110.7000    313.8000
    193    197    208   1    110.7000    313.8000
    196    197    207   1    110.7000    313.8000
    196    197    208   1    110.7000    313.8000
    207    197    208   1    107.8000    276.1440
    192    198    209   1    110.7000    313.8000
    192    198    210   1    110.7000    313.8000
    192    198    211   1    112.7000    488.2728
    209    198    210   1    107.8000    276.1440
    209    198    211   1    110.7000    313.8000
    210    198    211   1    110.7000    313.8000
    198    211    212   1    112.7000    488.2728
    198    211    217   1    112.7000    488.2728
    198    211    218   1    110.7000    313.8000
    212    211    217   1    112.7000    488.2728
    212    211    218   1    110.7000    313.8000
    217    211    218   1    110.7000    313.8000
    211    212    213   1    112.7000    488.2728
    211    212    216   1    112.7000    488.2728
    211    212    219   1    110.7000    313.8000
    213    212    216   1    112.7000    488.2728
    213    212    219   1    110.7000    313.8000
    216    212    219   1    110.7000    313.8000
    212    213    214   1    112.7000    488.2728
    212    213    220   1    110.7000    313.8000
    212    213    221   1    110.7000    313.8000
    214    213    220   1    110.7000    313.8000
    214    213    221   1    110.7000    313.8000
    220    213    221   1    107.8000    276.1440
    213    214    215   1    112.7000    488.2728
    213    214    222   1    110.7000    313.8000
    213    214    223   1    110.7000    313.8000
    215    214    222   1    110.7000    313.8000
    215    214    223   1    110.7000    313.8000
    222    214    223   1    107.8000    276.1440
    214    215    216   1    112.7000    488.2728
    214    215    224   1    110.7000    313.8000
    214    215    225   1    110.7000    313.8000
    216    215    224   1    110.7000    313.8000
    216    215    225   1    110.7000    313.8000
    224    215    225   1    107.8000    276.1440
    212    216    215   1    112.7000    488.2728
    212    216    226   1    110.7000    313.8000
    212    216    227   1    110.7000    313.8000
    215    216    226   1    110.7000    313.8000
    215    216    227   1    110.7000    313.8000
    226    216    227   1    107.8000    276.1440
    211    217    228   1    110.7000    313.8000
    211    217    229   1    110.7000    313.8000
    211    217    230   1    112.7000    488.2728
    228    217    229   1    107.8000    276.1440
    228    217    230   1    110.7000    313.8000
    229    217    230   1    110.7000    313.8000
    217    230    231   1    112.7000    488.2728
    217    230    236   1    112.7000    488.2728
    217    230    237   1    110.7000    313.8000
    231    230    236   1    112.7000    488.2728
    231    230    237   1    110.7000    313.8000
    236    230    237   1    110.7000    313.8000
    230    231    232   1    112.7000    488.2728
    230    231    235   1    112.7000    488.2728
    230    231    238   1    110.7000    313.8000
    232    231    235   1    112.7000    488.2728
    232    231    238   1    110.7000    313.8000
    235    231    238   1    110.7000    313.8000
    231    232    233   1    112.7000    488.2728
    231    232    239   1    110.7000    313.8000
    231    232    240   1    110.7000    313.8000
    233    232    239   1    110.7000    313.8000
    233    232    240   1    110.7000    313.8000
    239    232    240   1    107.8000    276.1440
    232    233    234   1    112.7000    488.2728
    232    233    241   1    110.7000    313.8000
    232    233    242   1    110.7000    313.8000
    234    233    241   1    110.7000    313.8000
    234    233    242   1    110.7000    313.8000
    241    233    242   1    107.8000    276.1440
    233    234    235   1    112.7000    488.2728
    233    234    243   1    110.7000    313.8000
    233    234    244   1    110.7000    313.8000
    235    234    243   1    110.7000    313.8000
    235    234    244   1    110.7000    313.8000
    243    234    244   1    107.8000    276.1440
    231    235    234   1    112.7000    488.2728
    231    235    245   1    110.7000    313.8000
    231    235    246   1    110.7000    313.8000
    234    235    245   1    110.7000    313.8000
    234    235    246   1    110.7000    313.8000
    245    235    246   1    107.8000    276.1440
    230    236    247   1    110.7000    313.8000
    230    236    248   1    110.7000    313.8000
    230    236    249   1    112.7000    488.2728
    247    236    248   1    107.8000    276.1440
    247    236    249   1    110.7000    313.8000
    248    236    249   1    110.7000    313.8000
    236    249    250   1    112.7000    488.2728
    236    249    255   1    112.7000    488.2728
    236    249    256   1    110.7000    313.8000
    250    249    255   1    112.7000    488.2728
    250    249    256   1    110.7000    313.8000
    255    249    256   1    110.7000    313.8000
    249    250    251   1    112.7000    488.2728
    249    250    254   1    112.7000    488.2728
    249    250    257   1    110.7000    313.8000
    251    250    254   1    112.7000    488.2728
    251    250    257   1    110.7000    313.8000
    254    250    257   1    110.7000    313.8000
    250    251    252   1    112.7000    488.2728
    250    251    258   1    110.7000    313.8000
    250    251    259   1    110.7000    313.8000
    252    251    258   1    110.7000    313.8000
    252    251    259   1    110.7000    313.8000
    258    251    259   1    107.8000    276.1440
    251    252    253   1    112.7000    488.2728
    251    252    260   1    110.7000    313.8000
    251    252    261   1    110.7000    313.8000
    253    252    260   1    110.7000    313.8000
    253    252    261   1    110.7000    313.8000
    260    252    261   1    107.8000    276.1440
    252    253    254   1    112.7000    488.2728
    252    253    262   1    110.7000    313.8000
    252    253    263   1    110.7000    313.8000
    254    253    262   1    110.7000    313.8000
    254    253    263   1    110.7000    313.8000
    262    253    263   1    107.8000    276.1440
    250    254    253   1    112.7000    488.2728
    250    254    264   1    110.7000    313.8000
    250    254    265   1    110.7000    313.8000
    253    254    264   1    110.7000    313.8000
    253    254    265   1    110.7000    313.8000
    264    254    265   1    107.8000    276.1440
    249    255    266   1    110.7000    313.8000
    249    255    267   1    110.7000    313.8000
    249    255    268   1    112.7000    488.2728
    266    255    267   1    107.8000    276.1440
    266    255    268   1    110.7000    313.8000
    267    255    268   1    110.7000    313.8000
    255    268    269   1    112.7000    488.2728
    255    268    274   1    112.7000    488.2728
    255    268    275   1    110.7000    313.8000
    269    268    274   1    112.7000    488.2728
    269    268    275   1    110.7000    313.8000
    274    268    275   1    110.7000    313.8000
    268    269    270   1    112.7000    488.2728
    268    269    273   1    112.7000    488.2728
    268    269    276   1    110.7000    313.8000
    270    269    273   1    112.7000    488.2728
    270    269    276   1    110.7000    313.8000
    273    269    276   1    110.7000    313.8000
    269    270    271   1    112.7000    488.2728
    269    270    277   1    110.7000    313.8000
    269    270    278   1    110.7000    313.8000
    271    270    277   1    110.7000    313.8000
    271    270    278   1    110.7000    313.8000
    277    270    278   1    107.8000    276.1440
    270    271    272   1    112.7000    488.2728
    270    271    279   1    110.7000    313.8000
    270    271    280   1    110.7000    313.8000
    272    271    279   1    110.7000    313.8000
    272    271    280   1    110.7000    313.8000
    279    271    280   1    107.8000    276.1440
    271    272    273   1    112.7000    488.2728
    271    272    281   1    110.7000    313.8000
    271    272    282   1    110.7000    313.8000
    273    272    281   1    110.7000    313.8000
    273    272    282   1    110.7000    313.8000
    281    272    282   1    107.8000    276.1440
    269    273    272   1    112.7000    488.2728
    269    273    283   1    110.7000    313.8000
    269    273    284   1    110.7000    313.8000
    272    273    283   1    110.7000    313.8000
    272    273    284   1    110.7000    313.8000
    283    273    284   1    107.8000    276.1440
    268    274    285   1    110.7000    313.8000
    268    274    286   1    110.7000    313.8000
    268    274    287   1    112.7000    488.2728
    285    274    286   1    107.8000    276.1440
    285    274    287   1    110.7000    313.8000
    286    274    287   1    110.7000    313.8000
    274    287    288   1    112.7000    488.2728
    274    287    293   1    112.7000    488.2728
    274    287    294   1    110.7000    313.8000
    288    287    293   1    112.7000    488.2728
    288    287    294   1    110.7000    313.8000
    293    287    294   1    110.7000    313.8000
    287    288    289   1    112.7000    488.2728
    287    288    292   1    112.7000    488.2728
    287    288    295   1    110.7000    313.8000
    289    288    292   1    112.7000    488.2728
    289    288    295   1    110.7000    313.8000
    292    288    295   1    110.7000    313.8000
    288    289    290   1    112.7000    488.2728
    288    289    296   1    110.7000    313.8000
    288    289    297   1    110.7000    313.8000
    290    289    296   1    110.7000    313.8000
    290    289    297   1    110.7000    313.8000
    296    289    297   1    107.8000    276.1440
    289    290    291   1    112.7000    488.2728
    289    290    298   1    110.7000    313.8000
    289    290    299   1    110.7000    313.8000
    291    290    298   1    110.7000    313.8000
    291    290    299   1    110.7000    313.8000
    298    290    299   1    107.8000    276.1440
    290    291    292   1    112.7000    488.2728
    290    291    300   1    110.7000    313.8000
    290    291    301   1    110.7000    313.8000
    292    291    300   1    110.7000    313.8000
    292    291    301   1    110.7000    313.8000
    300    291    301   1    107.8000    276.1440
    288    292    291   1    112.7000    488.2728
    288    292    302   1    110.7000    313.8000
    288    292    303   1    110.7000    313.8000
    291    292    302   1    110.7000    313.8000
    291    292    303   1    110.7000    313.8000
    302    292    303   1    107.8000    276.1440
    287    293    304   1    110.7000    313.8000
    287    293    305   1    110.7000    313.8000
    287    293    306   1    112.7000    488.2728
    304    293    305   1    107.8000    276.1440
    304    293    306   1    110.7000    313.8000
    305    293    306   1    110.7000    313.8000
    293    306    307   1    112.7000    488.2728
    293    306    312   1    112.7000    488.2728
    293    306    313   1    110.7000    313.8000
    307    306    312   1    112.7000    488.2728
    307    306    313   1    110.7000    313.8000
    312    306    313   1    110.7000    313.8000
    306    307    308   1    112.7000    488.2728
    306    307    311   1    112.7000    488.2728
    306    307    314   1    110.7000    313.8000
    308    307    311   1    112.7000    488.2728
    308    307    314   1    110.7000    313.8000
    311    307    314   1    110.7000    313.8000
    307    308    309   1    112.7000    488.2728
    307    308    315   1    110.7000    313.8000
    307    308    316   1    110.7000    313.8000
    309    308    315   1    110.7000    313.8000
    309    308    316   1    110.7000    313.8000
    315    308    316   1    107.8000    276.1440
    308    309    310   1    112.7000    488.2728
    308    309    317   1    110.7000    313.8000
    308    309    318   1    110.7000    313.8000
    310    309    317   1    110.7000    313.8000
    310    309    318   1    110.7000    313.8000
    317    309    318   1    107.8000    276.1440
    309    310    311   1    112.7000    488.2728
    309    310    319   1    110.7000    313.8000
    309    310    320   1    110.7000    313.8000
    311    310    319   1    110.7000    313.8000
    311    310    320   1    110.7000    313.8000
    319    310    320   1    107.8000    276.1440
    307    311    310   1    112.7000    488.2728
    307    311    321   1    110.7000    313.8000
    307    311    322   1    110.7000    313.8000
    310    311    321   1    110.7000    313.8000
    310    311    322   1    110.7000    313.8000
    321    311    322   1    107.8000    276.1440
    306    312    323   1    110.7000    313.8000
    306    312    324   1    110.7000    313.8000
    306    312    325   1    112.7000    488.2728
    323    312    324   1    107.8000    276.1440
    323    312    325   1    110.7000    313.8000
    324    312    325   1    110.7000    313.8000
    312    325    326   1    112.7000    488.2728
    312    325    331   1    112.7000    488.2728
    312    325    332   1    110.7000    313.8000
    326    325    331   1    112.7000    488.2728
    326    325    332   1    110.7000    313.8000
    331    325    332   1    110.7000    313.8000
    325    326    327   1    112.7000    488.2728
    325    326    330   1    112.7000    488.2728
    325    326    333   1    110.7000    313.8000
    327    326    330   1    112.7000    488.2728
    327    326    333   1    110.7000    313.8000
    330    326    333   1    110.7000    313.8000
    326    327    328   1    112.7000    488.2728
    326    327    334   1    110.7000    313.8000
    326    327    335   1    110.7000    313.8000
    328    327    334   1    110.7000    313.8000
    328    327    335   1    110.7000    313.8000
    334    327    335   1    107.8000    276.1440
    327    328    329   1    112.7000    488.2728
    327    328    336   1    110.7000    313.8000
    327    328    337   1    110.7000    313.8000
    329    328    336   1    110.7000    313.8000
    329    328    337   1    110.7000    313.8000
    336    328    337   1    107.8000    276.1440
    328    329    330   1    112.7000    488.2728
    328    329    338   1    110.7000    313.8000
    328    329    339   1    110.7000    313.8000
    330    329    338   1    110.7000    313.8000
    330    329    339   1    110.7000    313.8000
    338    329    339   1    107.8000    276.1440
    326    330    329   1    112.7000    488.2728
    326    330    340   1    110.7000    313.8000
    326    330    341   1    110.7000    313.8000
    329    330    340   1    110.7000    313.8000
    329    330    341   1    110.7000    313.8000
    340    330    341   1    107.8000    276.1440
    325    331    342   1    110.7000    313.8000
    325    331    343   1    110.7000    313.8000
    325    331    344   1    112.7000    488.2728
    342    331    343   1    107.8000    276.1440
    342    331    344   1    110.7000    313.8000
    343    331    344   1    110.7000    313.8000
    331    344    345   1    112.7000    488.2728
    331    344    350   1    112.7000    488.2728
    331    344    351   1    110.7000    313.8000
    345    344    350   1    112.7000    488.2728
    345    344    351   1    110.7000    313.8000
    350    344    351   1    110.7000    313.8000
    344    345    346   1    112.7000    488.2728
    344    345    349   1    112.7000    488.2728
    344    345    352   1    110.7000    313.8000
    346    345    349   1    112.7000    488.2728
    346    345    352   1    110.7000    313.8000
    349    345    352   1    110.7000    313.8000
    345    346    347   1    112.7000    488.2728
    345    346    353   1    110.7000    313.8000
    345    346    354   1    110.7000    313.8000
    347    346    353   1    110.7000    313.8000
    347    346    354   1    110.7000    313.8000
    353    346    354   1    107.8000    276.1440
    346    347    348   1    112.7000    488.2728
    346    347    355   1    110.7000    313.8000
    346    347    356   1    110.7000    313.8000
    348    347    355   1    110.7000    313.8000
    348    347    356   1    110.7000    313.8000
    355    347    356   1    107.8000    276.1440
    347    348    349   1    112.7000    488.2728
    347    348    357   1    110.7000    313.8000
    347    348    358   1    110.7000    313.8000
    349    348    357   1    110.7000    313.8000
    349    348    358   1    110.7000    313.8000
    357    348    358   1    107.8000    276.1440
    345    349    348   1    112.7000    488.2728
    345    349    359   1    110.7000    313.8000
    345    349    360   1    110.7000    313.8000
    348    349    359   1    110.7000    313.8000
    348    349    360   1    110.7000    313.8000
    359    349    360   1    107.8000    276.1440
    344    350    361   1    110.7000    313.8000
    344    350    362   1    110.7000    313.8000
    344    350    363   1    112.7000    488.2728
    361    350    362   1    107.8000    276.1440
    361    350    363   1    110.7000    313.8000
    362    350    363   1    110.7000    313.8000
    350    363    364   1    112.7000    488.2728
    350    363    369   1    112.7000    488.2728
    350    363    370   1    110.7000    313.8000
    364    363    369   1    112.7000    488.2728
    364    363    370   1    110.7000    313.8000
    369    363    370   1    110.7000    313.8000
    363    364    365   1    112.7000    488.2728
    363    364    368   1    112.7000    488.2728
    363    364    371   1    110.7000    313.8000
    365    364    368   1    112.7000    488.2728
    365    364    371   1    110.7000    313.8000
    368    364    371   1    110.7000    313.8000
    364    365    366   1    112.7000    488.2728
    364    365    372   1    110.7000    313.8000
    364    365    373   1    110.7000    313.8000
    366    365    372   1    110.7000    313.8000
    366    365    373   1    110.7000    313.8000
    372    365    373   1    107.8000    276.1440
    365    366    367   1    112.7000    488.2728
    365    366    374   1    110.7000    313.8000
    365    366    375   1    110.7000    313.8000
    367    366    374   1    110.7000    313.8000
    367    366    375   1    110.7000    313.8000
    374    366    375   1    107.8000    276.1440
    366    367    368   1    112.7000    488.2728
    366    367    376   1    110.7000    313.8000
    366    367    377   1    110.7000    313.8000
    368    367    376   1    110.7000    313.8000
    368    367    377   1    110.7000    313.8000
    376    367    377   1    107.8000    276.1440
    364    368    367   1    112.7000    488.2728
    364    368    378   1    110.7000    313.8000
    364    368    379   1    110.7000    313.8000
    367    368    378   1    110.7000    313.8000
    367    368    379   1    110.7000    313.8000
    378    368    379   1    107.8000    276.1440
    363    369    380   1    110.7000    313.8000
    363    369    381   1    110.7000    313.8000
    363    369    382   1    110.7000    313.8000
    380    369    381   1    107.8000    276.1440
    380    369    382   1    107.8000    276.1440
    381    369    382   1    107.8000    276.1440

[ dihedrals ]
; Proper dihedrals
      7      1      2      3   5     4.74884    -0.63178     1.67360  0.0
      7      1      2      6   5     4.74884    -0.63178     1.67360  0.0
      7      1      2      9   5     0.00000     0.00000     1.25520  0.0
      8      1      2      3   5     0.00000     0.00000     1.25520  0.0
      8      1      2      6   5     0.00000     0.00000     1.25520  0.0
      8      1      2      9   5     0.00000     0.00000     1.25520  0.0
     20      1      2      3   5     0.00000     0.00000     1.25520  0.0
     20      1      2      6   5     0.00000     0.00000     1.25520  0.0
     20      1      2      9   5     0.00000     0.00000     1.25520  0.0
      2      1      7     18   5     0.00000     0.00000     1.25520  0.0
      2      1      7     19   5     0.00000     0.00000     1.25520  0.0
      2      1      7     21   5     4.74884    -0.63178     1.67360  0.0
      8      1      7     18   5     0.00000     0.00000     1.25520  0.0
      8      1      7     19   5     0.00000     0.00000     1.25520  0.0
      8      1      7     21   5     0.00000     0.00000     1.25520  0.0
     20      1      7     18   5     0.00000     0.00000     1.25520  0.0
     20      1      7     19   5     0.00000     0.00000     1.25520  0.0
     20      1      7     21   5     0.00000     0.00000     1.25520  0.0
      1      2      3      4   5     4.74884    -0.63178     1.67360  0.0
      1      2      3     10   5     0.00000     0.00000     1.25520  0.0
      1      2      3     11   5     0.00000     0.00000     1.25520  0.0
      6      2      3      4   5     4.74884    -0.63178     1.67360  0.0
      6      2      3     10   5     0.00000     0.00000     1.25520  0.0
      6      2      3     11   5     0.00000     0.00000     1.25520  0.0
      9      2      3      4   5     0.00000     0.00000     1.25520  0.0
      9      2      3     10   5     0.00000     0.00000     1.25520  0.0
      9      2      3     11   5     0.00000     0.00000     1.25520  0.0
      1      2      6      5   5     4.74884    -0.63178     1.67360  0.0
      1      2      6     16   5     0.00000     0.00000     1.25520  0.0
      1      2      6     17   5     0.00000     0.00000     1.25520  0.0
      3      2      6      5   5     4.74884    -0.63178     1.67360  0.0
      3      2      6     16   5     0.00000     0.00000     1.25520  0.0
      3      2      6     17   5     0.00000     0.00000     1.25520  0.0
      9      2      6      5   5     0.00000     0.00000     1.25520  0.0
      9      2      6     16   5     0.00000     0.00000     1.25520  0.0
      9      2      6     17   5     0.00000     0.00000     1.25520  0.0
      2      3      4      5   5     4.74884    -0.63178     1.67360  0.0
      2      3      4     12   5     0.00000     0.00000     1.25520  0.0
      2      3      4     13   5     0.00000     0.00000     1.25520  0.0
     10      3      4      5   5     0.00000     0.00000     1.25520  0.0
     10      3      4     12   5     0.00000     0.00000     1.25520  0.0
     10      3      4     13   5     0.00000     0.00000     1.25520  0.0
     11      3      4      5   5     0.00000     0.00000     1.25520  0.0
     11      3      4     12   5     0.00000     0.00000     1.25520  0.0
     11      3      4     13   5     0.00000     0.00000     1.25520  0.0
      3      4      5      6   5     4.74884    -0.63178     1.67360  0.0
      3      4      5     14   5     0.00000     0.00000     1.25520  0.0
      3      4      5     15   5     0.00000     0.00000     1.25520  0.0
     12      4      5      6   5     0.00000     0.00000     1.25520  0.0
     12      4      5     14   5     0.00000     0.00000     1.25520  0.0
     12      4      5     15   5     0.00000     0.00000     1.25520  0.0
     13      4      5      6   5     0.00000     0.00000     1.25520  0.0
     13      4      5     14   5     0.00000     0.00000     1.25520  0.0
     13      4      5     15   5     0.00000     0.00000     1.25520  0.0
      4      5      6      2   5     4.74884    -0.63178     1.67360  0.0
      4      5      6     16   5     0.00000     0.00000     1.25520  0.0
      4      5      6     17   5     0.00000     0.00000     1.25520  0.0
     14      5      6      2   5     0.00000     0.00000     1.25520  0.0
     14      5      6     16   5     0.00000     0.00000     1.25520  0.0
     14      5      6     17   5     0.00000     0.00000     1.25520  0.0
     15      5      6      2   5     0.00000     0.00000     1.25520  0.0
     15      5      6     16   5     0.00000     0.00000     1.25520  0.0
     15      5      6     17   5     0.00000     0.00000     1.25520  0.0
      1      7     21     22   5     4.74884    -0.63178     1.67360  0.0
      1      7     21     27   5     4.74884    -0.63178     1.67360  0.0
      1      7     21     28   5     0.00000     0.00000     1.25520  0.0
     18      7     21     22   5     0.00000     0.00000     1.25520  0.0
     18      7     21     27   5     0.00000     0.00000     1.25520  0.0
     18      7     21     28   5     0.00000     0.00000     1.25520  0.0
     19      7     21     22   5     0.00000     0.00000     1.25520  0.0
     19      7     21     27   5     0.00000     0.00000     1.25520  0.0
     19      7     21     28   5     0.00000     0.00000     1.25520  0.0
      7     21     22     23   5     4.74884    -0.63178     1.67360  0.0
      7     21     22     26   5     4.74884    -0.63178     1.67360  0.0
      7     21     22     29   5     0.00000     0.00000     1.25520  0.0
     27     21     22     23   5     4.74884    -0.63178     1.67360  0.0
     27     21     22     26   5     4.74884    -0.63178     1.67360  0.0
     27     21     22     29   5     0.00000     0.00000     1.25520  0.0
     28     21     22     23   5     0.00000     0.00000     1.25520  0.0
     28     21     22     26   5     0.00000     0.00000     1.25520  0.0
     28     21     22     29   5     0.00000     0.00000     1.25520  0.0
      7     21     27     38   5     0.00000     0.00000     1.25520  0.0
      7     21     27     39   5     0.00000     0.00000     1.25520  0.0
      7     21     27     40   5     4.74884    -0.63178     1.67360  0.0
     22     21     27     38   5     0.00000     0.00000     1.25520  0.0
     22     21     27     39   5     0.00000     0.00000     1.25520  0.0
     22     21     27     40   5     4.74884    -0.63178     1.67360  0.0
     28     21     27     38   5     0.00000     0.00000     1.25520  0.0
     28     21     27     39   5     0.00000     0.00000     1.25520  0.0
     28     21     27     40   5     0.00000     0.00000     1.25520  0.0
     21     22     23     24   5     4.74884    -0.63178     1.67360  0.0
     21     22     23     30   5     0.00000     0.00000     1.25520  0.0
     21     22     23     31   5     0.00000     0.00000     1.25520  0.0
     26     22     23     24   5     4.74884    -0.63178     1.67360  0.0
     26     22     23     30   5     0.00000     0.00000     1.25520  0.0
     26     22     23     31   5     0.00000     0.00000     1.25520  0.0
     29     22     23     24   5     0.00000     0.00000     1.25520  0.0
     29     22     23     30   5     0.00000     0.00000     1.25520  0.0
     29     22     23     31   5     0.00000     0.00000     1.25520  0.0
     21     22     26     25   5     4.74884    -0.63178     1.67360  0.0
     21     22     26     36   5     0.00000     0.00000     1.25520  0.0
     21     22     26     37   5     0.00000     0.00000     1.25520  0.0
     23     22     26     25   5     4.74884    -0.63178     1.67360  0.0
     23     22     26     36   5     0.00000     0.00000     1.25520  0.0
     23     22     26     37   5     0.00000     0.00000     1.25520  0.0
     29     22     26     25   5     0.00000     0.00000     1.25520  0.0
     29     22     26     36   5     0.00000     0.00000     1.25520  0.0
     29     22     26     37   5     0.00000     0.00000     1.25520  0.0
     22     23     24     25   5     4.74884    -0.63178     1.67360  0.0
     22     23     24     32   5     0.00000     0.00000     1.25520  0.0
     22     23     24     33   5     0.00000     0.00000     1.25520  0.0
     30     23     24     25   5     0.00000     0.00000     1.25520  0.0
     30     23     24     32   5     0.00000     0.00000     1.25520  0.0
     30     23     24     33   5     0.00000     0.00000     1.25520  0.0
     31     23     24     25   5     0.00000     0.00000     1.25520  0.0
     31     23     24     32   5     0.00000     0.00000     1.25520  0.0
     31     23     24     33   5     0.00000     0.00000     1.25520  0.0
     23     24     25     26   5     4.74884    -0.63178     1.67360  0.0
     23     24     25     34   5     0.00000     0.00000     1.25520  0.0
     23     24     25     35   5     0.00000     0.00000     1.25520  0.0
     32     24     25     26   5     0.00000     0.00000     1.25520  0.0
     32     24     25     34   5     0.00000     0.00000     1.25520  0.0
     32     24     25     35   5     0.00000     0.00000     1.25520  0.0
     33     24     25     26   5     0.00000     0.00000     1.25520  0.0
     33     24     25     34   5     0.00000     0.00000     1.25520  0.0
     33     24     25     35   5     0.00000     0.00000     1.25520  0.0
     24     25     26     22   5     4.74884    -0.63178     1.67360  0.0
     24     25     26     36   5     0.00000     0.00000     1.25520  0.0
     24     25     26     37   5     0.00000     0.00000     1.25520  0.0
     34     25     26     22   5     0.00000     0.00000     1.25520  0.0
     34     25     26     36   5     0.00000     0.00000     1.25520  0.0
     34     25     26     37   5     0.00000     0.00000     1.25520  0.0
     35     25     26     22   5     0.00000     0.00000     1.25520  0.0
     35     25     26     36   5     0.00000     0.00000     1.25520  0.0
     35     25     26     37   5     0.00000     0.00000     1.25520  0.0
     21     27     40     41   5     4.74884    -0.63178     1.67360  0.0
     21     27     40     46   5     4.74884    -0.63178     1.67360  0.0
     21     27     40     47   5     0.00000     0.00000     1.25520  0.0
     38     27     40     41   5     0.00000     0.00000     1.25520  0.0
     38     27     40     46   5     0.00000     0.00000     1.25520  0.0
     38     27     40     47   5     0.00000     0.00000     1.25520  0.0
     39     27     40     41   5     0.00000     0.00000     1.25520  0.0
     39     27     40     46   5     0.00000     0.00000     1.25520  0.0
     39     27     40     47   5     0.00000     0.00000     1.25520  0.0
     27     40     41     42   5     4.74884    -0.63178     1.67360  0.0
     27     40     41     45   5     4.74884    -0.63178     1.67360  0.0
     27     40     41     48   5     0.00000     0.00000     1.25520  0.0
     46     40     41     42   5     4.74884    -0.63178     1.67360  0.0
     46     40     41     45   5     4.74884    -0.63178     1.67360  0.0
     46     40     41     48   5     0.00000     0.00000     1.25520  0.0
     47     40     41     42   5     0.00000     0.00000     1.25520  0.0
     47     40     41     45   5     0.00000     0.00000     1.25520  0.0
     47     40     41     48   5     0.00000     0.00000     1.25520  0.0
     27     40     46     57   5     0.00000     0.00000     1.25520  0.0
     27     40     46     58   5     0.00000     0.00000     1.25520  0.0
     27     40     46     59   5     4.74884    -0.63178     1.67360  0.0
     41     40     46     57   5     0.00000     0.00000     1.25520  0.0
     41     40     46     58   5     0.00000     0.00000     1.25520  0.0
     41     40     46     59   5     4.74884    -0.63178     1.67360  0.0
     47     40     46     57   5     0.00000     0.00000     1.25520  0.0
     47     40     46     58   5     0.00000     0.00000     1.25520  0.0
     47     40     46     59   5     0.00000     0.00000     1.25520  0.0
     40     41     42     43   5     4.74884    -0.63178     1.67360  0.0
     40     41     42     49   5     0.00000     0.00000     1.25520  0.0
     40     41     42     50   5     0.00000     0.00000     1.25520  0.0
     45     41     42     43   5     4.74884    -0.63178     1.67360  0.0
     45     41     42     49   5     0.00000     0.00000     1.25520  0.0
     45     41     42     50   5     0.00000     0.00000     1.25520  0.0
     48     41     42     43   5     0.00000     0.00000     1.25520  0.0
     48     41     42     49   5     0.00000     0.00000     1.25520  0.0
     48     41     42     50   5     0.00000     0.00000     1.25520  0.0
     40     41     45     44   5     4.74884    -0.63178     1.67360  0.0
     40     41     45     55   5     0.00000     0.00000     1.25520  0.0
     40     41     45     56   5     0.00000     0.00000     1.25520  0.0
     42     41     45     44   5     4.74884    -0.63178     1.67360  0.0
     42     41     45     55   5     0.00000     0.00000     1.25520  0.0
     42     41     45     56   5     0.00000     0.00000     1.25520  0.0
     48     41     45     44   5     0.00000     0.00000     1.25520  0.0
     48     41     45     55   5     0.00000     0.00000     1.25520  0.0
     48     41     45     56   5     0.00000     0.00000     1.25520  0.0
     41     42     43     44   5     4.74884    -0.63178     1.67360  0.0
     41     42     43     51   5     0.00000     0.00000     1.25520  0.0
     41     42     43     52   5     0.00000     0.00000     1.25520  0.0
     49     42     43     44   5     0.00000     0.00000     1.25520  0.0
     49     42     43     51   5     0.00000     0.00000     1.25520  0.0
     49     42     43     52   5     0.00000     0.00000     1.25520  0.0
     50     42     43     44   5     0.00000     0.00000     1.25520  0.0
     50     42     43     51   5     0.00000     0.00000     1.25520  0.0
     50     42     43     52   5     0.00000     0.00000     1.25520  0.0
     42     43     44     45   5     4.74884    -0.63178     1.67360  0.0
     42     43     44     53   5     0.00000     0.00000     1.25520  0.0
     42     43     44     54   5     0.00000     0.00000     1.25520  0.0
     51     43     44     45   5     0.00000     0.00000     1.25520  0.0
     51     43     44     53   5     0.00000     0.00000     1.25520  0.0
     51     43     44     54   5     0.00000     0.00000     1.25520  0.0
     52     43     44     45   5     0.00000     0.00000     1.25520  0.0
     52     43     44     53   5     0.00000     0.00000     1.25520  0.0
     52     43     44     54   5     0.00000     0.00000     1.25520  0.0
     43     44     45     41   5     4.74884    -0.63178     1.67360  0.0
     43     44     45     55   5     0.00000     0.00000     1.25520  0.0
     43     44     45     56   5     0.00000     0.00000     1.25520  0.0
     53     44     45     41   5     0.00000     0.00000     1.25520  0.0
     53     44     45     55   5     0.00000     0.00000     1.25520  0.0
     53     44     45     56   5     0.00000     0.00000     1.25520  0.0
     54     44     45     41   5     0.00000     0.00000     1.25520  0.0
     54     44     45     55   5     0.00000     0.00000     1.25520  0.0
     54     44     45     56   5     0.00000     0.00000     1.25520  0.0
     40     46     59     60   5     4.74884    -0.63178     1.67360  0.0
     40     46     59     65   5     4.74884    -0.63178     1.67360  0.0
     40     46     59     66   5     0.00000     0.00000     1.25520  0.0
     57     46     59     60   5     0.00000     0.00000     1.25520  0.0
     57     46     59     65   5     0.00000     0.00000     1.25520  0.0
     57     46     59     66   5     0.00000     0.00000     1.25520  0.0
     58     46     59     60   5     0.00000     0.00000     1.25520  0.0
     58     46     59     65   5     0.00000     0.00000     1.25520  0.0
     58     46     59     66   5     0.00000     0.00000     1.25520  0.0
     46     59     60     61   5     4.74884    -0.63178     1.67360  0.0
     46     59     60     64   5     4.74884    -0.63178     1.67360  0.0
     46     59     60     67   5     0.00000     0.00000     1.25520  0.0
     65     59     60     61   5     4.74884    -0.63178     1.67360  0.0
     65     59     60     64   5     4.74884    -0.63178     1.67360  0.0
     65     59     60     67   5     0.00000     0.00000     1.25520  0.0
     66     59     60     61   5     0.00000     0.00000     1.25520  0.0
     66     59     60     64   5     0.00000     0.00000     1.25520  0.0
     66     59     60     67   5     0.00000     0.00000     1.25520  0.0
     46     59     65     76   5     0.00000     0.00000     1.25520  0.0
     46     59     65     77   5     0.00000     0.00000     1.25520  0.0
     46     59     65     78   5     4.74884    -0.63178     1.67360  0.0
     60     59     65     76   5     0.00000     0.00000     1.25520  0.0
     60     59     65     77   5     0.00000     0.00000     1.25520  0.0
     60     59     65     78   5     4.74884    -0.63178     1.67360  0.0
     66     59     65     76   5     0.00000     0.00000     1.25520  0.0
     66     59     65     77   5     0.00000     0.00000     1.25520  0.0
     66     59     65     78   5     0.00000     0.00000     1.25520  0.0
     59     60     61     62   5     4.74884    -0.63178     1.67360  0.0
     59     60     61     68   5     0.00000     0.00000     1.25520  0.0
     59     60     61     69   5     0.00000     0.00000     1.25520  0.0
     64     60     61     62   5     4.74884    -0.63178     1.67360  0.0
     64     60     61     68   5     0.00000     0.00000     1.25520  0.0
     64     60     61     69   5     0.00000     0.00000     1.25520  0.0
     67     60     61     62   5     0.00000     0.00000     1.25520  0.0
     67     60     61     68   5     0.00000     0.00000     1.25520  0.0
     67     60     61     69   5     0.00000     0.00000     1.25520  0.0
     59     60     64     63   5     4.74884    -0.63178     1.67360  0.0
     59     60     64     74   5     0.00000     0.00000     1.25520  0.0
     59     60     64     75   5     0.00000     0.00000     1.25520  0.0
     61     60     64     63   5     4.74884    -0.63178     1.67360  0.0
     61     60     64     74   5     0.00000     0.00000     1.25520  0.0
     61     60     64     75   5     0.00000     0.00000     1.25520  0.0
     67     60     64     63   5     0.00000     0.00000     1.25520  0.0
     67     60     64     74   5     0.00000     0.00000     1.25520  0.0
     67     60     64     75   5     0.00000     0.00000     1.25520  0.0
     60     61     62     63   5     4.74884    -0.63178     1.67360  0.0
     60     61     62     70   5     0.00000     0.00000     1.25520  0.0
     60     61     62     71   5     0.00000     0.00000     1.25520  0.0
     68     61     62     63   5     0.00000     0.00000     1.25520  0.0
     68     61     62     70   5     0.00000     0.00000     1.25520  0.0
     68     61     62     71   5     0.00000     0.00000     1.25520  0.0
     69     61     62     63   5     0.00000     0.00000     1.25520  0.0
     69     61     62     70   5     0.00000     0.00000     1.25520  0.0
     69     61     62     71   5     0.00000     0.00000     1.25520  0.0
     61     62     63     64   5     4.74884    -0.63178     1.67360  0.0
     61     62     63     72   5     0.00000     0.00000     1.25520  0.0
     61     62     63     73   5     0.00000     0.00000     1.25520  0.0
     70     62     63     64   5     0.00000     0.00000     1.25520  0.0
     70     62     63     72   5     0.00000     0.00000     1.25520  0.0
     70     62     63     73   5     0.00000     0.00000     1.25520  0.0
     71     62     63     64   5     0.00000     0.00000     1.25520  0.0
     71     62     63     72   5     0.00000     0.00000     1.25520  0.0
     71     62     63     73   5     0.00000     0.00000     1.25520  0.0
     62     63     64     60   5     4.74884    -0.63178     1.67360  0.0
     62     63     64     74   5     0.00000     0.00000     1.25520  0.0
     62     63     64     75   5     0.00000     0.00000     1.25520  0.0
     72     63     64     60   5     0.00000     0.00000     1.25520  0.0
     72     63     64     74   5     0.00000     0.00000     1.25520  0.0
     72     63     64     75   5     0.00000     0.00000     1.25520  0.0
     73     63     64     60   5     0.00000     0.00000     1.25520  0.0
     73     63     64     74   5     0.00000     0.00000     1.25520  0.0
     73     63     64     75   5     0.00000     0.00000     1.25520  0.0
     59     65     78     79   5     4.74884    -0.63178     1.67360  0.0
     59     65     78     84   5     4.74884    -0.63178     1.67360  0.0
     59     65     78     85   5     0.00000     0.00000     1.25520  0.0
     76     65     78     79   5     0.00000     0.00000     1.25520  0.0
     76     65     78     84   5     0.00000     0.00000     1.25520  0.0
     76     65     78     85   5     0.00000     0.00000     1.25520  0.0
     77     65     78     79   5     0.00000     0.00000     1.25520  0.0
     77     65     78     84   5     0.00000     0.00000     1.25520  0.0
     77     65     78     85   5     0.00000     0.00000     1.25520  0.0
     65     78     79     80   5     4.74884    -0.63178     1.67360  0.0
     65     78     79     83   5     4.74884    -0.63178     1.67360  0.0
     65     78     79     86   5     0.00000     0.00000     1.25520  0.0
     84     78     79     80   5     4.74884    -0.63178     1.67360  0.0
     84     78     79     83   5     4.74884    -0.63178     1.67360  0.0
     84     78     79     86   5     0.00000     0.00000     1.25520  0.0
     85     78     79     80   5     0.00000     0.00000     1.25520  0.0
     85     78     79     83   5     0.00000     0.00000     1.25520  0.0
     85     78     79     86   5     0.00000     0.00000     1.25520  0.0
     65     78     84     95   5     0.00000     0.00000     1.25520  0.0
     65     78     84     96   5     0.00000     0.00000     1.25520  0.0
     65     78     84     97   5     4.74884    -0.63178     1.67360  0.0
     79     78     84     95   5     0.00000     0.00000     1.25520  0.0
     79     78     84     96   5     0.00000     0.00000     1.25520  0.0
     79     78     84     97   5     4.74884    -0.63178     1.67360  0.0
     85     78     84     95   5     0.00000     0.00000     1.25520  0.0
     85     78     84     96   5     0.00000     0.00000     1.25520  0.0
     85     78     84     97   5     0.00000     0.00000     1.25520  0.0
     78     79     80     81   5     4.74884    -0.63178     1.67360  0.0
     78     79     80     87   5     0.00000     0.00000     1.25520  0.0
     78     79     80     88   5     0.00000     0.00000     1.25520  0.0
     83     79     80     81   5     4.74884    -0.63178     1.67360  0.0
     83     79     80     87   5     0.00000     0.00000     1.25520  0.0
     83     79     80     88   5     0.00000     0.00000     1.25520  0.0
     86     79     80     81   5     0.00000     0.00000     1.25520  0.0
     86     79     80     87   5     0.00000     0.00000     1.25520  0.0
     86     79     80     88   5     0.00000     0.00000     1.25520  0.0
     78     79     83     82   5     4.74884    -0.63178     1.67360  0.0
     78     79     83     93   5     0.00000     0.00000     1.25520  0.0
     78     79     83     94   5     0.00000     0.00000     1.25520  0.0
     80     79     83     82   5     4.74884    -0.63178     1.67360  0.0
     80     79     83     93   5     0.00000     0.00000     1.25520  0.0
     80     79     83     94   5     0.00000     0.00000     1.25520  0.0
     86     79     83     82   5     0.00000     0.00000     1.25520  0.0
     86     79     83     93   5     0.00000     0.00000     1.25520  0.0
     86     79     83     94   5     0.00000     0.00000     1.25520  0.0
     79     80     81     82   5     4.74884    -0.63178     1.67360  0.0
     79     80     81     89   5     0.00000     0.00000     1.25520  0.0
     79     80     81     90   5     0.00000     0.00000     1.25520  0.0
     87     80     81     82   5     0.00000     0.00000     1.25520  0.0
     87     80     81     89   5     0.00000     0.00000     1.25520  0.0
     87     80     81     90   5     0.00000     0.00000     1.25520  0.0
     88     80     81     82   5     0.00000     0.00000     1.25520  0.0
     88     80     81     89   5     0.00000     0.00000     1.25520  0.0
     88     80     81     90   5     0.00000     0.00000     1.25520  0.0
     80     81     82     83   5     4.74884    -0.63178     1.67360  0.0
     80     81     82     91   5     0.00000     0.00000     1.25520  0.0
     80     81     82     92   5     0.00000     0.00000     1.25520  0.0
     89     81     82     83   5     0.00000     0.00000     1.25520  0.0
     89     81     82     91   5     0.00000     0.00000     1.25520  0.0
     89     81     82     92   5     0.00000     0.00000     1.25520  0.0
     90     81     82     83   5     0.00000     0.00000     1.25520  0.0
     90     81     82     91   5     0.00000     0.00000     1.25520  0.0
     90     81     82     92   5     0.00000     0.00000     1.25520  0.0
     81     82     83     79   5     4.74884    -0.63178     1.67360  0.0
     81     82     83     93   5     0.00000     0.00000     1.25520  0.0
     81     82     83     94   5     0.00000     0.00000     1.25520  0.0
     91     82     83     79   5     0.00000     0.00000     1.25520  0.0
     91     82     83     93   5     0.00000     0.00000     1.25520  0.0
     91     82     83     94   5     0.00000     0.00000     1.25520  0.0
     92     82     83     79   5     0.00000     0.00000     1.25520  0.0
     92     82     83     93   5     0.00000     0.00000     1.25520  0.0
     92     82     83     94   5     0.00000     0.00000     1.25520  0.0
     78     84     97     98   5     4.74884    -0.63178     1.67360  0.0
     78     84     97    103   5     4.74884    -0.63178     1.67360  0.0
     78     84     97    104   5     0.00000     0.00000     1.25520  0.0
     95     84     97     98   5     0.00000     0.00000     1.25520  0.0
     95     84     97    103   5     0.00000     0.00000     1.25520  0.0
     95     84     97    104   5     0.00000     0.00000     1.25520  0.0
     96     84     97     98   5     0.00000     0.00000     1.25520  0.0
     96     84     97    103   5     0.00000     0.00000     1.25520  0.0
     96     84     97    104   5     0.00000     0.00000     1.25520  0.0
     84     97     98     99   5     4.74884    -0.63178     1.67360  0.0
     84     97     98    102   5     4.74884    -0.63178     1.67360  0.0
     84     97     98    105   5     0.00000     0.00000     1.25520  0.0
    103     97     98     99   5     4.74884    -0.63178     1.67360  0.0
    103     97     98    102   5     4.74884    -0.63178     1.67360  0.0
    103     97     98    105   5     0.00000     0.00000     1.25520  0.0
    104     97     98     99   5     0.00000     0.00000     1.25520  0.0
    104     97     98    102   5     0.00000     0.00000     1.25520  0.0
    104     97     98    105   5     0.00000     0.00000     1.25520  0.0
     84     97    103    114   5     0.00000     0.00000     1.25520  0.0
     84     97    103    115   5     0.00000     0.00000     1.25520  0.0
     84     97    103    116   5     4.74884    -0.63178     1.67360  0.0
     98     97    103    114   5     0.00000     0.00000     1.25520  0.0
     98     97    103    115   5     0.00000     0.00000     1.25520  0.0
     98     97    103    116   5     4.74884    -0.63178     1.67360  0.0
    104     97    103    114   5     0.00000     0.00000     1.25520  0.0
    104     97    103    115   5     0.00000     0.00000     1.25520  0.0
    104     97    103    116   5     0.00000     0.00000     1.25520  0.0
     97     98     99    100   5     4.74884    -0.63178     1.67360  0.0
     97     98     99    106   5     0.00000     0.00000     1.25520  0.0
     97     98     99    107   5     0.00000     0.00000     1.25520  0.0
    102     98     99    100   5     4.74884    -0.63178     1.67360  0.0
    102     98     99    106   5     0.00000     0.00000     1.25520  0.0
    102     98     99    107   5     0.00000     0.00000     1.25520  0.0
    105     98     99    100   5     0.00000     0.00000     1.25520  0.0
    105     98     99    106   5     0.00000     0.00000     1.25520  0.0
    105     98     99    107   5     0.00000     0.00000     1.25520  0.0
     97     98    102    101   5     4.74884    -0.63178     1.67360  0.0
     97     98    102    112   5     0.00000     0.00000     1.25520  0.0
     97     98    102    113   5     0.00000     0.00000     1.25520  0.0
     99     98    102    101   5     4.74884    -0.63178     1.67360  0.0
     99     98    102    112   5     0.00000     0.00000     1.25520  0.0
     99     98    102    113   5     0.00000     0.00000     1.25520  0.0
    105     98    102    101   5     0.00000     0.00000     1.25520  0.0
    105     98    102    112   5     0.00000     0.00000     1.25520  0.0
    105     98    102    113   5     0.00000     0.00000     1.25520  0.0
     98     99    100    101   5     4.74884    -0.63178     1.67360  0.0
     98     99    100    108   5     0.00000     0.00000     1.25520  0.0
     98     99    100    109   5     0.00000     0.00000     1.25520  0.0
    106     99    100    101   5     0.00000     0.00000     1.25520  0.0
    106     99    100    108   5     0.00000     0.00000     1.25520  0.0
    106     99    100    109   5     0.00000     0.00000     1.25520  0.0
    107     99    100    101   5     0.00000     0.00000     1.25520  0.0
    107     99    100    108   5     0.00000     0.00000     1.25520  0.0
    107     99    100    109   5     0.00000     0.00000     1.25520  0.0
     99    100    101    102   5     4.74884    -0.63178     1.67360  0.0
     99    100    101    110   5     0.00000     0.00000     1.25520  0.0
     99    100    101    111   5     0.00000     0.00000     1.25520  0.0
    108    100    101    102   5     0.00000     0.00000     1.25520  0.0
    108    100    101    110   5     0.00000     0.00000     1.25520  0.0
    108    100    101    111   5     0.00000     0.00000     1.25520  0.0
    109    100    101    102   5     0.00000     0.00000     1.25520  0.0
    109    100    101    110   5     0.00000     0.00000     1.25520  0.0
    109    100    101    111   5     0.00000     0.00000     1.25520  0.0
    100    101    102     98   5     4.74884    -0.63178     1.67360  0.0
    100    101    102    112   5     0.00000     0.00000     1.25520  0.0
    100    101    102    113   5     0.00000     0.00000     1.25520  0.0
    110    101    102     98   5     0.00000     0.00000     1.25520  0.0
    110    101    102    112   5     0.00000     0.00000     1.25520  0.0
    110    101    102    113   5     0.00000     0.00000     1.25520  0.0
    111    101    102     98   5     0.00000     0.00000     1.25520  0.0
    111    101    102    112   5     0.00000     0.00000     1.25520  0.0
    111    101    102    113   5     0.00000     0.00000     1.25520  0.0
     97    103    116    117   5     4.74884    -0.63178     1.67360  0.0
     97    103    116    122   5     4.74884    -0.63178     1.67360  0.0
     97    103    116    123   5     0.00000     0.00000     1.25520  0.0
    114    103    116    117   5     0.00000     0.00000     1.25520  0.0
    114    103    116    122   5     0.00000     0.00000     1.25520  0.0
    114    103    116    123   5     0.00000     0.00000     1.25520  0.0
    115    103    116    117   5     0.00000     0.00000     1.25520  0.0
    115    103    116    122   5     0.00000     0.00000     1.25520  0.0
    115    103    116    123   5     0.00000     0.00000     1.25520  0.0
    103    116    117    118   5     4.74884    -0.63178     1.67360  0.0
    103    116    117    121   5     4.74884    -0.63178     1.67360  0.0
    103    116    117    124   5     0.00000     0.00000     1.25520  0.0
    122    116    117    118   5     4.74884    -0.63178     1.67360  0.0
    122    116    117    121   5     4.74884    -0.63178     1.67360  0.0
    122    116    117    124   5     0.00000     0.00000     1.25520  0.0
    123    116    117    118   5     0.00000     0.00000     1.25520  0.0
    123    116    117    121   5     0.00000     0.00000     1.25520  0.0
    123    116    117    124   5     0.00000     0.00000     1.25520  0.0
    103    116    122    133   5     0.00000     0.00000     1.25520  0.0
    103    116    122    134   5     0.00000     0.00000     1.25520  0.0
    103    116    122    135   5     4.74884    -0.63178     1.67360  0.0
    117    116    122    133   5     0.00000     0.00000     1.25520  0.0
    117    116    122    134   5     0.00000     0.00000     1.25520  0.0
    117    116    122    135   5     4.74884    -0.63178     1.67360  0.0
    123    116    122    133   5     0.00000     0.00000     1.25520  0.0
    123    116    122    134   5     0.00000     0.00000     1.25520  0.0
    123    116    122    135   5     0.00000     0.00000     1.25520  0.0
    116    117    118    119   5     4.74884    -0.63178     1.67360  0.0
    116    117    118    125   5     0.00000     0.00000     1.25520  0.0
    116    117    118    126   5     0.00000     0.00000     1.25520  0.0
    121    117    118    119   5     4.74884    -0.63178     1.67360  0.0
    121    117    118    125   5     0.00000     0.00000     1.25520  0.0
    121    117    118    126   5     0.00000     0.00000     1.25520  0.0
    124    117    118    119   5     0.00000     0.00000     1.25520  0.0
    124    117    118    125   5     0.00000     0.00000     1.25520  0.0
    124    117    118    126   5     0.00000     0.00000     1.25520  0.0
    116    117    121    120   5     4.74884    -0.63178     1.67360  0.0
    116    117    121    131   5     0.00000     0.00000     1.25520  0.0
    116    117    121    132   5     0.00000     0.00000     1.25520  0.0
    118    117    121    120   5     4.74884    -0.63178     1.67360  0.0
    118    117    121    131   5     0.00000     0.00000     1.25520  0.0
    118    117    121    132   5     0.00000     0.00000     1.25520  0.0
    124    117    121    120   5     0.00000     0.00000     1.25520  0.0
    124    117    121    131   5     0.00000     0.00000     1.25520  0.0
    124    117    121    132   5     0.00000     0.00000     1.25520  0.0
    117    118    119    120   5     4.74884    -0.63178     1.67360  0.0
    117    118    119    127   5     0.00000     0.00000     1.25520  0.0
    117    118    119    128   5     0.00000     0.00000     1.25520  0.0
    125    118    119    120   5     0.00000     0.00000     1.25520  0.0
    125    118    119    127   5     0.00000     0.00000     1.25520  0.0
    125    118    119    128   5     0.00000     0.00000     1.25520  0.0
    126    118    119    120   5     0.00000     0.00000     1.25520  0.0
    126    118    119    127   5     0.00000     0.00000     1.25520  0.0
    126    118    119    128   5     0.00000     0.00000     1.25520  0.0
    118    119    120    121   5     4.74884    -0.63178     1.67360  0.0
    118    119    120    129   5     0.00000     0.00000     1.25520  0.0
    118    119    120    130   5     0.00000     0.00000     1.25520  0.0
    127    119    120    121   5     0.00000     0.00000     1.25520  0.0
    127    119    120    129   5     0.00000     0.00000     1.25520  0.0
    127    119    120    130   5     0.00000     0.00000     1.25520  0.0
    128    119    120    121   5     0.00000     0.00000     1.25520  0.0
    128    119    120    129   5     0.00000     0.00000     1.25520  0.0
    128    119    120    130   5     0.00000     0.00000     1.25520  0.0
    119    120    121    117   5     4.74884    -0.63178     1.67360  0.0
    119    120    121    131   5     0.00000     0.00000     1.25520  0.0
    119    120    121    132   5     0.00000     0.00000     1.25520  0.0
    129    120    121    117   5     0.00000     0.00000     1.25520  0.0
    129    120    121    131   5     0.00000     0.00000     1.25520  0.0
    129    120    121    132   5     0.00000     0.00000     1.25520  0.0
    130    120    121    117   5     0.00000     0.00000     1.25520  0.0
    130    120    121    131   5     0.00000     0.00000     1.25520  0.0
    130    120    121    132   5     0.00000     0.00000     1.25520  0.0
    116    122    135    136   5     4.74884    -0.63178     1.67360  0.0
    116    122    135    141   5     4.74884    -0.63178     1.67360  0.0
    116    122    135    142   5     0.00000     0.00000     1.25520  0.0
    133    122    135    136   5     0.00000     0.00000     1.25520  0.0
    133    122    135    141   5     0.00000     0.00000     1.25520  0.0
    133    122    135    142   5     0.00000     0.00000     1.25520  0.0
    134    122    135    136   5     0.00000     0.00000     1.25520  0.0
    134    122    135    141   5     0.00000     0.00000     1.25520  0.0
    134    122    135    142   5     0.00000     0.00000     1.25520  0.0
    122    135    136    137   5     4.74884    -0.63178     1.67360  0.0
    122    135    136    140   5     4.74884    -0.63178     1.67360  0.0
    122    135    136    143   5     0.00000     0.00000     1.25520  0.0
    141    135    136    137   5     4.74884    -0.63178     1.67360  0.0
    141    135    136    140   5     4.74884    -0.63178     1.67360  0.0
    141    135    136    143   5     0.00000     0.00000     1.25520  0.0
    142    135    136    137   5     0.00000     0.00000     1.25520  0.0
    142    135    136    140   5     0.00000     0.00000     1.25520  0.0
    142    135    136    143   5     0.00000     0.00000     1.25520  0.0
    122    135    141    152   5     0.00000     0.00000     1.25520  0.0
    122    135    141    153   5     0.00000     0.00000     1.25520  0.0
    122    135    141    154   5     4.74884    -0.63178     1.67360  0.0
    136    135    141    152   5     0.00000     0.00000     1.25520  0.0
    136    135    141    153   5     0.00000     0.00000     1.25520  0.0
    136    135    141    154   5     4.74884    -0.63178     1.67360  0.0
    142    135    141    152   5     0.00000     0.00000     1.25520  0.0
    142    135    141    153   5     0.00000     0.00000     1.25520  0.0
    142    135    141    154   5     0.00000     0.00000     1.25520  0.0
    135    136    137    138   5     4.74884    -0.63178     1.67360  0.0
    135    136    137    144   5     0.00000     0.00000     1.25520  0.0
    135    136    137    145   5     0.00000     0.00000     1.25520  0.0
    140    136    137    138   5     4.74884    -0.63178     1.67360  0.0
    140    136    137    144   5     0.00000     0.00000     1.25520  0.0
    140    136    137    145   5     0.00000     0.00000     1.25520  0.0
    143    136    137    138   5     0.00000     0.00000     1.25520  0.0
    143    136    137    144   5     0.00000     0.00000     1.25520  0.0
    143    136    137    145   5     0.00000     0.00000     1.25520  0.0
    135    136    140    139   5     4.74884    -0.63178     1.67360  0.0
    135    136    140    150   5     0.00000     0.00000     1.25520  0.0
    135    136    140    151   5     0.00000     0.00000     1.25520  0.0
    137    136    140    139   5     4.74884    -0.63178     1.67360  0.0
    137    136    140    150   5     0.00000     0.00000     1.25520  0.0
    137    136    140    151   5     0.00000     0.00000     1.25520  0.0
    143    136    140    139   5     0.00000     0.00000     1.25520  0.0
    143    136    140    150   5     0.00000     0.00000     1.25520  0.0
    143    136    140    151   5     0.00000     0.00000     1.25520  0.0
    136    137    138    139   5     4.74884    -0.63178     1.67360  0.0
    136    137    138    146   5     0.00000     0.00000     1.25520  0.0
    136    137    138    147   5     0.00000     0.00000     1.25520  0.0
    144    137    138    139   5     0.00000     0.00000     1.25520  0.0
    144    137    138    146   5     0.00000     0.00000     1.25520  0.0
    144    137    138    147   5     0.00000     0.00000     1.25520  0.0
    145    137    138    139   5     0.00000     0.00000     1.25520  0.0
    145    137    138    146   5     0.00000     0.00000     1.25520  0.0
    145    137    138    147   5     0.00000     0.00000     1.25520  0.0
    137    138    139    140   5     4.74884    -0.63178     1.67360  0.0
    137    138    139    148   5     0.00000     0.00000     1.25520  0.0
    137    138    139    149   5     0.00000     0.00000     1.25520  0.0
    146    138    139    140   5     0.00000     0.00000     1.25520  0.0
    146    138    139    148   5     0.00000     0.00000     1.25520  0.0
    146    138    139    149   5     0.00000     0.00000     1.25520  0.0
    147    138    139    140   5     0.00000     0.00000     1.25520  0.0
    147    138    139    148   5     0.00000     0.00000     1.25520  0.0
    147    138    139    149   5     0.00000     0.00000     1.25520  0.0
    138    139    140    136   5     4.74884    -0.63178     1.67360  0.0
    138    139    140    150   5     0.00000     0.00000     1.25520  0.0
    138    139    140    151   5     0.00000     0.00000     1.25520  0.0
    148    139    140    136   5     0.00000     0.00000     1.25520  0.0
    148    139    140    150   5     0.00000     0.00000     1.25520  0.0
    148    139    140    151   5     0.00000     0.00000     1.25520  0.0
    149    139    140    136   5     0.00000     0.00000     1.25520  0.0
    149    139    140    150   5     0.00000     0.00000     1.25520  0.0
    149    139    140    151   5     0.00000     0.00000     1.25520  0.0
    135    141    154    155   5     4.74884    -0.63178     1.67360  0.0
    135    141    154    160   5     4.74884    -0.63178     1.67360  0.0
    135    141    154    161   5     0.00000     0.00000     1.25520  0.0
    152    141    154    155   5     0.00000     0.00000     1.25520  0.0
    152    141    154    160   5     0.00000     0.00000     1.25520  0.0
    152    141    154    161   5     0.00000     0.00000     1.25520  0.0
    153    141    154    155   5     0.00000     0.00000     1.25520  0.0
    153    141    154    160   5     0.00000     0.00000     1.25520  0.0
    153    141    154    161   5     0.00000     0.00000     1.25520  0.0
    141    154    155    156   5     4.74884    -0.63178     1.67360  0.0
    141    154    155    159   5     4.74884    -0.63178     1.67360  0.0
    141    154    155    162   5     0.00000     0.00000     1.25520  0.0
    160    154    155    156   5     4.74884    -0.63178     1.67360  0.0
    160    154    155    159   5     4.74884    -0.63178     1.67360  0.0
    160    154    155    162   5     0.00000     0.00000     1.25520  0.0
    161    154    155    156   5     0.00000     0.00000     1.25520  0.0
    161    154    155    159   5     0.00000     0.00000     1.25520  0.0
    161    154    155    162   5     0.00000     0.00000     1.25520  0.0
    141    154    160    171   5     0.00000     0.00000     1.25520  0.0
    141    154    160    172   5     0.00000     0.00000     1.25520  0.0
    141    154    160    173   5     4.74884    -0.63178     1.67360  0.0
    155    154    160    171   5     0.00000     0.00000     1.25520  0.0
    155    154    160    172   5     0.00000     0.00000     1.25520  0.0
    155    154    160    173   5     4.74884    -0.63178     1.67360  0.0
    161    154    160    171   5     0.00000     0.00000     1.25520  0.0
    161    154    160    172   5     0.00000     0.00000     1.25520  0.0
    161    154    160    173   5     0.00000     0.00000     1.25520  0.0
    154    155    156    157   5     4.74884    -0.63178     1.67360  0.0
    154    155    156    163   5     0.00000     0.00000     1.25520  0.0
    154    155    156    164   5     0.00000     0.00000     1.25520  0.0
    159    155    156    157   5     4.74884    -0.63178     1.67360  0.0
    159    155    156    163   5     0.00000     0.00000     1.25520  0.0
    159    155    156    164   5     0.00000     0.00000     1.25520  0.0
    162    155    156    157   5     0.00000     0.00000     1.25520  0.0
    162    155    156    163   5     0.00000     0.00000     1.25520  0.0
    162    155    156    164   5     0.00000     0.00000     1.25520  0.0
    154    155    159    158   5     4.74884    -0.63178     1.67360  0.0
    154    155    159    169   5     0.00000     0.00000     1.25520  0.0
    154    155    159    170   5     0.00000     0.00000     1.25520  0.0
    156    155    159    158   5     4.74884    -0.63178     1.67360  0.0
    156    155    159    169   5     0.00000     0.00000     1.25520  0.0
    156    155    159    170   5     0.00000     0.00000     1.25520  0.0
    162    155    159    158   5     0.00000     0.00000     1.25520  0.0
    162    155    159    169   5     0.00000     0.00000     1.25520  0.0
    162    155    159    170   5     0.00000     0.00000     1.25520  0.0
    155    156    157    158   5     4.74884    -0.63178     1.67360  0.0
    155    156    157    165   5     0.00000     0.00000     1.25520  0.0
    155    156    157    166   5     0.00000     0.00000     1.25520  0.0
    163    156    157    158   5     0.00000     0.00000     1.25520  0.0
    163    156    157    165   5     0.00000     0.00000     1.25520  0.0
    163    156    157    166   5     0.00000     0.00000     1.25520  0.0
    164    156    157    158   5     0.00000     0.00000     1.25520  0.0
    164    156    157    165   5     0.00000     0.00000     1.25520  0.0
    164    156    157    166   5     0.00000     0.00000     1.25520  0.0
    156    157    158    159   5     4.74884    -0.63178     1.67360  0.0
    156    157    158    167   5     0.00000     0.00000     1.25520  0.0
    156    157    158    168   5     0.00000     0.00000     1.25520  0.0
    165    157    158    159   5     0.00000     0.00000     1.25520  0.0
    165    157    158    167   5     0.00000     0.00000     1.25520  0.0
    165    157    158    168   5     0.00000     0.00000     1.25520  0.0
    166    157    158    159   5     0.00000     0.00000     1.25520  0.0
    166    157    158    167   5     0.00000     0.00000     1.25520  0.0
    166    157    158    168   5     0.00000     0.00000     1.25520  0.0
    157    158    159    155   5     4.74884    -0.63178     1.67360  0.0
    157    158    159    169   5     0.00000     0.00000     1.25520  0.0
    157    158    159    170   5     0.00000     0.00000     1.25520  0.0
    167    158    159    155   5     0.00000     0.00000     1.25520  0.0
    167    158    159    169   5     0.00000     0.00000     1.25520  0.0
    167    158    159    170   5     0.00000     0.00000     1.25520  0.0
    168    158    159    155   5     0.00000     0.00000     1.25520  0.0
    168    158    159    169   5     0.00000     0.00000     1.25520  0.0
    168    158    159    170   5     0.00000     0.00000     1.25520  0.0
    154    160    173    174   5     4.74884    -0.63178     1.67360  0.0
    154    160    173    179   5     4.74884    -0.63178     1.67360  0.0
    154    160    173    180   5     0.00000     0.00000     1.25520  0.0
    171    160    173    174   5     0.00000     0.00000     1.25520  0.0
    171    160    173    179   5     0.00000     0.00000     1.25520  0.0
    171    160    173    180   5     0.00000     0.00000     1.25520  0.0
    172    160    173    174   5     0.00000     0.00000     1.25520  0.0
    172    160    173    179   5     0.00000     0.00000     1.25520  0.0
    172    160    173    180   5     0.00000     0.00000     1.25520  0.0
    160    173    174    175   5     4.74884    -0.63178     1.67360  0.0
    160    173    174    178   5     4.74884    -0.63178     1.67360  0.0
    160    173    174    181   5     0.00000     0.00000     1.25520  0.0
    179    173    174    175   5     4.74884    -0.63178     1.67360  0.0
    179    173    174    178   5     4.74884    -0.63178     1.67360  0.0
    179    173    174    181   5     0.00000     0.00000     1.25520  0.0
    180    173    174    175   5     0.00000     0.00000     1.25520  0.0
    180    173    174    178   5     0.00000     0.00000     1.25520  0.0
    180    173    174    181   5     0.00000     0.00000     1.25520  0.0
    160    173    179    190   5     0.00000     0.00000     1.25520  0.0
    160    173    179    191   5     0.00000     0.00000     1.25520  0.0
    160    173    179    192   5     4.74884    -0.63178     1.67360  0.0
    174    173    179    190   5     0.00000     0.00000     1.25520  0.0
    174    173    179    191   5     0.00000     0.00000     1.25520  0.0
    174    173    179    192   5     4.74884    -0.63178     1.67360  0.0
    180    173    179    190   5     0.00000     0.00000     1.25520  0.0
    180    173    179    191   5     0.00000     0.00000     1.25520  0.0
    180    173    179    192   5     0.00000     0.00000     1.25520  0.0
    173    174    175    176   5     4.74884    -0.63178     1.67360  0.0
    173    174    175    182   5     0.00000     0.00000     1.25520  0.0
    173    174    175    183   5     0.00000     0.00000     1.25520  0.0
    178    174    175    176   5     4.74884    -0.63178     1.67360  0.0
    178    174    175    182   5     0.00000     0.00000     1.25520  0.0
    178    174    175    183   5     0.00000     0.00000     1.25520  0.0
    181    174    175    176   5     0.00000     0.00000     1.25520  0.0
    181    174    175    182   5     0.00000     0.00000     1.25520  0.0
    181    174    175    183   5     0.00000     0.00000     1.25520  0.0
    173    174    178    177   5     4.74884    -0.63178     1.67360  0.0
    173    174    178    188   5     0.00000     0.00000     1.25520  0.0
    173    174    178    189   5     0.00000     0.00000     1.25520  0.0
    175    174    178    177   5     4.74884    -0.63178     1.67360  0.0
    175    174    178    188   5     0.00000     0.00000     1.25520  0.0
    175    174    178    189   5     0.00000     0.00000     1.25520  0.0
    181    174    178    177   5     0.00000     0.00000     1.25520  0.0
    181    174    178    188   5     0.00000     0.00000     1.25520  0.0
    181    174    178    189   5     0.00000     0.00000     1.25520  0.0
    174    175    176    177   5     4.74884    -0.63178     1.67360  0.0
    174    175    176    184   5     0.00000     0.00000     1.25520  0.0
    174    175    176    185   5     0.00000     0.00000     1.25520  0.0
    182    175    176    177   5     0.00000     0.00000     1.25520  0.0
    182    175    176    184   5     0.00000     0.00000     1.25520  0.0
    182    175    176    185   5     0.00000     0.00000     1.25520  0.0
    183    175    176    177   5     0.00000     0.00000     1.25520  0.0
    183    175    176    184   5     0.00000     0.00000     1.25520  0.0
    183    175    176    185   5     0.00000     0.00000     1.25520  0.0
    175    176    177    178   5     4.74884    -0.63178     1.67360  0.0
    175    176    177    186   5     0.00000     0.00000     1.25520  0.0
    175    176    177    187   5     0.00000     0.00000     1.25520  0.0
    184    176    177    178   5     0.00000     0.00000     1.25520  0.0
    184    176    177    186   5     0.00000     0.00000     1.25520  0.0
    184    176    177    187   5     0.00000     0.00000     1.25520  0.0
    185    176    177    178   5     0.00000     0.00000     1.25520  0.0
    185    176    177    186   5     0.00000     0.00000     1.25520  0.0
    185    176    177    187   5     0.00000     0.00000     1.25520  0.0
    176    177    178    174   5     4.74884    -0.63178     1.67360  0.0
    176    177    178    188   5     0.00000     0.00000     1.25520  0.0
    176    177    178    189   5     0.00000     0.00000     1.25520  0.0
    186    177    178    174   5     0.00000     0.00000     1.25520  0.0
    186    177    178    188   5     0.00000     0.00000     1.25520  0.0
    186    177    178    189   5     0.00000     0.00000     1.25520  0.0
    187    177    178    174   5     0.00000     0.00000     1.25520  0.0
    187    177    178    188   5     0.00000     0.00000     1.25520  0.0
    187    177    178    189   5     0.00000     0.00000     1.25520  0.0
    173    179    192    193   5     4.74884    -0.63178     1.67360  0.0
    173    179    192    198   5     4.74884    -0.63178     1.67360  0.0
    173    179    192    199   5     0.00000     0.00000     1.25520  0.0
    190    179    192    193   5     0.00000     0.00000     1.25520  0.0
    190    179    192    198   5     0.00000     0.00000     1.25520  0.0
    190    179    192    199   5     0.00000     0.00000     1.25520  0.0
    191    179    192    193   5     0.00000     0.00000     1.25520  0.0
    191    179    192    198   5     0.00000     0.00000     1.25520  0.0
    191    179    192    199   5     0.00000     0.00000     1.25520  0.0
    179    192    193    194   5     4.74884    -0.63178     1.67360  0.0
    179    192    193    197   5     4.74884    -0.63178     1.67360  0.0
    179    192    193    200   5     0.00000     0.00000     1.25520  0.0
    198    192    193    194   5     4.74884    -0.63178     1.67360  0.0
    198    192    193    197   5     4.74884    -0.63178     1.67360  0.0
    198    192    193    200   5     0.00000     0.00000     1.25520  0.0
    199    192    193    194   5     0.00000     0.00000     1.25520  0.0
    199    192    193    197   5     0.00000     0.00000     1.25520  0.0
    199    192    193    200   5     0.00000     0.00000     1.25520  0.0
    179    192    198    209   5     0.00000     0.00000     1.25520  0.0
    179    192    198    210   5     0.00000     0.00000     1.25520  0.0
    179    192    198    211   5     4.74884    -0.63178     1.67360  0.0
    193    192    198    209   5     0.00000     0.00000     1.25520  0.0
    193    192    198    210   5     0.00000     0.00000     1.25520  0.0
    193    192    198    211   5     4.74884    -0.63178     1.67360  0.0
    199    192    198    209   5     0.00000     0.00000     1.25520  0.0
    199    192    198    210   5     0.00000     0.00000     1.25520  0.0
    199    192    198    211   5     0.00000     0.00000     1.25520  0.0
    192    193    194    195   5     4.74884    -0.63178     1.67360  0.0
    192    193    194    201   5     0.00000     0.00000     1.25520  0.0
    192    193    194    202   5     0.00000     0.00000     1.25520  0.0
    197    193    194    195   5     4.74884    -0.63178     1.67360  0.0
    197    193    194    201   5     0.00000     0.00000     1.25520  0.0
    197    193    194    202   5     0.00000     0.00000     1.25520  0.0
    200    193    194    195   5     0.00000     0.00000     1.25520  0.0
    200    193    194    201   5     0.00000     0.00000     1.25520  0.0
    200    193    194    202   5     0.00000     0.00000     1.25520  0.0
    192    193    197    196   5     4.74884    -0.63178     1.67360  0.0
    192    193    197    207   5     0.00000     0.00000     1.25520  0.0
    192    193    197    208   5     0.00000     0.00000     1.25520  0.0
    194    193    197    196   5     4.74884    -0.63178     1.67360  0.0
    194    193    197    207   5     0.00000     0.00000     1.25520  0.0
    194    193    197    208   5     0.00000     0.00000     1.25520  0.0
    200    193    197    196   5     0.00000     0.00000     1.25520  0.0
    200    193    197    207   5     0.00000     0.00000     1.25520  0.0
    200    193    197    208   5     0.00000     0.00000     1.25520  0.0
    193    194    195    196   5     4.74884    -0.63178     1.67360  0.0
    193    194    195    203   5     0.00000     0.00000     1.25520  0.0
    193    194    195    204   5     0.00000     0.00000     1.25520  0.0
    201    194    195    196   5     0.00000     0.00000     1.25520  0.0
    201    194    195    203   5     0.00000     0.00000     1.25520  0.0
    201    194    195    204   5     0.00000     0.00000     1.25520  0.0
    202    194    195    196   5     0.00000     0.00000     1.25520  0.0
    202    194    195    203   5     0.00000     0.00000     1.25520  0.0
    202    194    195    204   5     0.00000     0.00000     1.25520  0.0
    194    195    196    197   5     4.74884    -0.63178     1.67360  0.0
    194    195    196    205   5     0.00000     0.00000     1.25520  0.0
    194    195    196    206   5     0.00000     0.00000     1.25520  0.0
    203    195    196    197   5     0.00000     0.00000     1.25520  0.0
    203    195    196    205   5     0.00000     0.00000     1.25520  0.0
    203    195    196    206   5     0.00000     0.00000     1.25520  0.0
    204    195    196    197   5     0.00000     0.00000     1.25520  0.0
    204    195    196    205   5     0.00000     0.00000     1.25520  0.0
    204    195    196    206   5     0.00000     0.00000     1.25520  0.0
    195    196    197    193   5     4.74884    -0.63178     1.67360  0.0
    195    196    197    207   5     0.00000     0.00000     1.25520  0.0
    195    196    197    208   5     0.00000     0.00000     1.25520  0.0
    205    196    197    193   5     0.00000     0.00000     1.25520  0.0
    205    196    197    207   5     0.00000     0.00000     1.25520  0.0
    205    196    197    208   5     0.00000     0.00000     1.25520  0.0
    206    196    197    193   5     0.00000     0.00000     1.25520  0.0
    206    196    197    207   5     0.00000     0.00000     1.25520  0.0
    206    196    197    208   5     0.00000     0.00000     1.25520  0.0
    192    198    211    212   5     4.74884    -0.63178     1.67360  0.0
    192    198    211    217   5     4.74884    -0.63178     1.67360  0.0
    192    198    211    218   5     0.00000     0.00000     1.25520  0.0
    209    198    211    212   5     0.00000     0.00000     1.25520  0.0
    209    198    211    217   5     0.00000     0.00000     1.25520  0.0
    209    198    211    218   5     0.00000     0.00000     1.25520  0.0
    210    198    211    212   5     0.00000     0.00000     1.25520  0.0
    210    198    211    217   5     0.00000     0.00000     1.25520  0.0
    210    198    211    218   5     0.00000     0.00000     1.25520  0.0
    198    211    212    213   5     4.74884    -0.63178     1.67360  0.0
    198    211    212    216   5     4.74884    -0.63178     1.67360  0.0
    198    211    212    219   5     0.00000     0.00000     1.25520  0.0
    217    211    212    213   5     4.74884    -0.63178     1.67360  0.0
    217    211    212    216   5     4.74884    -0.63178     1.67360  0.0
    217    211    212    219   5     0.00000     0.00000     1.25520  0.0
    218    211    212    213   5     0.00000     0.00000     1.25520  0.0
    218    211    212    216   5     0.00000     0.00000     1.25520  0.0
    218    211    212    219   5     0.00000     0.00000     1.25520  0.0
    198    211    217    228   5     0.00000     0.00000     1.25520  0.0
    198    211    217    229   5     0.00000     0.00000     1.25520  0.0
    198    211    217    230   5     4.74884    -0.63178     1.67360  0.0
    212    211    217    228   5     0.00000     0.00000     1.25520  0.0
    212    211    217    229   5     0.00000     0.00000     1.25520  0.0
    212    211    217    230   5     4.74884    -0.63178     1.67360  0.0
    218    211    217    228   5     0.00000     0.00000     1.25520  0.0
    218    211    217    229   5     0.00000     0.00000     1.25520  0.0
    218    211    217    230   5     0.00000     0.00000     1.25520  0.0
    211    212    213    214   5     4.74884    -0.63178     1.67360  0.0
    211    212    213    220   5     0.00000     0.00000     1.25520  0.0
    211    212    213    221   5     0.00000     0.00000     1.25520  0.0
    216    212    213    214   5     4.74884    -0.63178     1.67360  0.0
    216    212    213    220   5     0.00000     0.00000     1.25520  0.0
    216    212    213    221   5     0.00000     0.00000     1.25520  0.0
    219    212    213    214   5     0.00000     0.00000     1.25520  0.0
    219    212    213    220   5     0.00000     0.00000     1.25520  0.0
    219    212    213    221   5     0.00000     0.00000     1.25520  0.0
    211    212    216    215   5     4.74884    -0.63178     1.67360  0.0
    211    212    216    226   5     0.00000     0.00000     1.25520  0.0
    211    212    216    227   5     0.00000     0.00000     1.25520  0.0
    213    212    216    215   5     4.74884    -0.63178     1.67360  0.0
    213    212    216    226   5     0.00000     0.00000     1.25520  0.0
    213    212    216    227   5     0.00000     0.00000     1.25520  0.0
    219    212    216    215   5     0.00000     0.00000     1.25520  0.0
    219    212    216    226   5     0.00000     0.00000     1.25520  0.0
    219    212    216    227   5     0.00000     0.00000     1.25520  0.0
    212    213    214    215   5     4.74884    -0.63178     1.67360  0.0
    212    213    214    222   5     0.00000     0.00000     1.25520  0.0
    212    213    214    223   5     0.00000     0.00000     1.25520  0.0
    220    213    214    215   5     0.00000     0.00000     1.25520  0.0
    220    213    214    222   5     0.00000     0.00000     1.25520  0.0
    220    213    214    223   5     0.00000     0.00000     1.25520  0.0
    221    213    214    215   5     0.00000     0.00000     1.25520  0.0
    221    213    214    222   5     0.00000     0.00000     1.25520  0.0
    221    213    214    223   5     0.00000     0.00000     1.25520  0.0
    213    214    215    216   5     4.74884    -0.63178     1.67360  0.0
    213    214    215    224   5     0.00000     0.00000     1.25520  0.0
    213    214    215    225   5     0.00000     0.00000     1.25520  0.0
    222    214    215    216   5     0.00000     0.00000     1.25520  0.0
    222    214    215    224   5     0.00000     0.00000     1.25520  0.0
    222    214    215    225   5     0.00000     0.00000     1.25520  0.0
    223    214    215    216   5     0.00000     0.00000     1.25520  0.0
    223    214    215    224   5     0.00000     0.00000     1.25520  0.0
    223    214    215    225   5     0.00000     0.00000     1.25520  0.0
    214    215    216    212   5     4.74884    -0.63178     1.67360  0.0
    214    215    216    226   5     0.00000     0.00000     1.25520  0.0
    214    215    216    227   5     0.00000     0.00000     1.25520  0.0
    224    215    216    212   5     0.00000     0.00000     1.25520  0.0
    224    215    216    226   5     0.00000     0.00000     1.25520  0.0
    224    215    216    227   5     0.00000     0.00000     1.25520  0.0
    225    215    216    212   5     0.00000     0.00000     1.25520  0.0
    225    215    216    226   5     0.00000     0.00000     1.25520  0.0
    225    215    216    227   5     0.00000     0.00000     1.25520  0.0
    211    217    230    231   5     4.74884    -0.63178     1.67360  0.0
    211    217    230    236   5     4.74884    -0.63178     1.67360  0.0
    211    217    230    237   5     0.00000     0.00000     1.25520  0.0
    228    217    230    231   5     0.00000     0.00000     1.25520  0.0
    228    217    230    236   5     0.00000     0.00000     1.25520  0.0
    228    217    230    237   5     0.00000     0.00000     1.25520  0.0
    229    217    230    231   5     0.00000     0.00000     1.25520  0.0
    229    217    230    236   5     0.00000     0.00000     1.25520  0.0
    229    217    230    237   5     0.00000     0.00000     1.25520  0.0
    217    230    231    232   5     4.74884    -0.63178     1.67360  0.0
    217    230    231    235   5     4.74884    -0.63178     1.67360  0.0
    217    230    231    238   5     0.00000     0.00000     1.25520  0.0
    236    230    231    232   5     4.74884    -0.63178     1.67360  0.0
    236    230    231    235   5     4.74884    -0.63178     1.67360  0.0
    236    230    231    238   5     0.00000     0.00000     1.25520  0.0
    237    230    231    232   5     0.00000     0.00000     1.25520  0.0
    237    230    231    235   5     0.00000     0.00000     1.25520  0.0
    237    230    231    238   5     0.00000     0.00000     1.25520  0.0
    217    230    236    247   5     0.00000     0.00000     1.25520  0.0
    217    230    236    248   5     0.00000     0.00000     1.25520  0.0
    217    230    236    249   5     4.74884    -0.63178     1.67360  0.0
    231    230    236    247   5     0.00000     0.00000     1.25520  0.0
    231    230    236    248   5     0.00000     0.00000     1.25520  0.0
    231    230    236    249   5     4.74884    -0.63178     1.67360  0.0
    237    230    236    247   5     0.00000     0.00000     1.25520  0.0
    237    230    236    248   5     0.00000     0.00000     1.25520  0.0
    237    230    236    249   5     0.00000     0.00000     1.25520  0.0
    230    231    232    233   5     4.74884    -0.63178     1.67360  0.0
    230    231    232    239   5     0.00000     0.00000     1.25520  0.0
    230    231    232    240   5     0.00000     0.00000     1.25520  0.0
    235    231    232    233   5     4.74884    -0.63178     1.67360  0.0
    235    231    232    239   5     0.00000     0.00000     1.25520  0.0
    235    231    232    240   5     0.00000     0.00000     1.25520  0.0
    238    231    232    233   5     0.00000     0.00000     1.25520  0.0
    238    231    232    239   5     0.00000     0.00000     1.25520  0.0
    238    231    232    240   5     0.00000     0.00000     1.25520  0.0
    230    231    235    234   5     4.74884    -0.63178     1.67360  0.0
    230    231    235    245   5     0.00000     0.00000     1.25520  0.0
    230    231    235    246   5     0.00000     0.00000     1.25520  0.0
    232    231    235    234   5     4.74884    -0.63178     1.67360  0.0
    232    231    235    245   5     0.00000     0.00000     1.25520  0.0
    232    231    235    246   5     0.00000     0.00000     1.25520  0.0
    238    231    235    234   5     0.00000     0.00000     1.25520  0.0
    238    231    235    245   5     0.00000     0.00000     1.25520  0.0
    238    231    235    246   5     0.00000     0.00000     1.25520  0.0
    231    232    233    234   5     4.74884    -0.63178     1.67360  0.0
    231    232    233    241   5     0.00000     0.00000     1.25520  0.0
    231    232    233    242   5     0.00000     0.00000     1.25520  0.0
    239    232    233    234   5     0.00000     0.00000     1.25520  0.0
    239    232    233    241   5     0.00000     0.00000     1.25520  0.0
    239    232    233    242   5     0.00000     0.00000     1.25520  0.0
    240    232    233    234   5     0.00000     0.00000     1.25520  0.0
    240    232    233    241   5     0.00000     0.00000     1.25520  0.0
    240    232    233    242   5     0.00000     0.00000     1.25520  0.0
    232    233    234    235   5     4.74884    -0.63178     1.67360  0.0
    232    233    234    243   5     0.00000     0.00000     1.25520  0.0
    232    233    234    244   5     0.00000     0.00000     1.25520  0.0
    241    233    234    235   5     0.00000     0.00000     1.25520  0.0
    241    233    234    243   5     0.00000     0.00000     1.25520  0.0
    241    233    234    244   5     0.00000     0.00000     1.25520  0.0
    242    233    234    235   5     0.00000     0.00000     1.25520  0.0
    242    233    234    243   5     0.00000     0.00000     1.25520  0.0
    242    233    234    244   5     0.00000     0.00000     1.25520  0.0
    233    234    235    231   5     4.74884    -0.63178     1.67360  0.0
    233    234    235    245   5     0.00000     0.00000     1.25520  0.0
    233    234    235    246   5     0.00000     0.00000     1.25520  0.0
    243    234    235    231   5     0.00000     0.00000     1.25520  0.0
    243    234    235    245   5     0.00000     0.00000     1.25520  0.0
    243    234    235    246   5     0.00000     0.00000     1.25520  0.0
    244    234    235    231   5     0.00000     0.00000     1.25520  0.0
    244    234    235    245   5     0.00000     0.00000     1.25520  0.0
    244    234    235    246   5     0.00000     0.00000     1.25520  0.0
    230    236    249    250   5     4.74884    -0.63178     1.67360  0.0
    230    236    249    255   5     4.74884    -0.63178     1.67360  0.0
    230    236    249    256   5     0.00000     0.00000     1.25520  0.0
    247    236    249    250   5     0.00000     0.00000     1.25520  0.0
    247    236    249    255   5     0.00000     0.00000     1.25520  0.0
    247    236    249    256   5     0.00000     0.00000     1.25520  0.0
    248    236    249    250   5     0.00000     0.00000     1.25520  0.0
    248    236    249    255   5     0.00000     0.00000     1.25520  0.0
    248    236    249    256   5     0.00000     0.00000     1.25520  0.0
    236    249    250    251   5     4.74884    -0.63178     1.67360  0.0
    236    249    250    254   5     4.74884    -0.63178     1.67360  0.0
    236    249    250    257   5     0.00000     0.00000     1.25520  0.0
    255    249    250    251   5     4.74884    -0.63178     1.67360  0.0
    255    249    250    254   5     4.74884    -0.63178     1.67360  0.0
    255    249    250    257   5     0.00000     0.00000     1.25520  0.0
    256    249    250    251   5     0.00000     0.00000     1.25520  0.0
    256    249    250    254   5     0.00000     0.00000     1.25520  0.0
    256    249    250    257   5     0.00000     0.00000     1.25520  0.0
    236    249    255    266   5     0.00000     0.00000     1.25520  0.0
    236    249    255    267   5     0.00000     0.00000     1.25520  0.0
    236    249    255    268   5     4.74884    -0.63178     1.67360  0.0
    250    249    255    266   5     0.00000     0.00000     1.25520  0.0
    250    249    255    267   5     0.00000     0.00000     1.25520  0.0
    250    249    255    268   5     4.74884    -0.63178     1.67360  0.0
    256    249    255    266   5     0.00000     0.00000     1.25520  0.0
    256    249    255    267   5     0.00000     0.00000     1.25520  0.0
    256    249    255    268   5     0.00000     0.00000     1.25520  0.0
    249    250    251    252   5     4.74884    -0.63178     1.67360  0.0
    249    250    251    258   5     0.00000     0.00000     1.25520  0.0
    249    250    251    259   5     0.00000     0.00000     1.25520  0.0
    254    250    251    252   5     4.74884    -0.63178     1.67360  0.0
    254    250    251    258   5     0.00000     0.00000     1.25520  0.0
    254    250    251    259   5     0.00000     0.00000     1.25520  0.0
    257    250    251    252   5     0.00000     0.00000     1.25520  0.0
    257    250    251    258   5     0.00000     0.00000     1.25520  0.0
    257    250    251    259   5     0.00000     0.00000     1.25520  0.0
    249    250    254    253   5     4.74884    -0.63178     1.67360  0.0
    249    250    254    264   5     0.00000     0.00000     1.25520  0.0
    249    250    254    265   5     0.00000     0.00000     1.25520  0.0
    251    250    254    253   5     4.74884    -0.63178     1.67360  0.0
    251    250    254    264   5     0.00000     0.00000     1.25520  0.0
    251    250    254    265   5     0.00000     0.00000     1.25520  0.0
    257    250    254    253   5     0.00000     0.00000     1.25520  0.0
    257    250    254    264   5     0.00000     0.00000     1.25520  0.0
    257    250    254    265   5     0.00000     0.00000     1.25520  0.0
    250    251    252    253   5     4.74884    -0.63178     1.67360  0.0
    250    251    252    260   5     0.00000     0.00000     1.25520  0.0
    250    251    252    261   5     0.00000     0.00000     1.25520  0.0
    258    251    252    253   5     0.00000     0.00000     1.25520  0.0
    258    251    252    260   5     0.00000     0.00000     1.25520  0.0
    258    251    252    261   5     0.00000     0.00000     1.25520  0.0
    259    251    252    253   5     0.00000     0.00000     1.25520  0.0
    259    251    252    260   5     0.00000     0.00000     1.25520  0.0
    259    251    252    261   5     0.00000     0.00000     1.25520  0.0
    251    252    253    254   5     4.74884    -0.63178     1.67360  0.0
    251    252    253    262   5     0.00000     0.00000     1.25520  0.0
    251    252    253    263   5     0.00000     0.00000     1.25520  0.0
    260    252    253    254   5     0.00000     0.00000     1.25520  0.0
    260    252    253    262   5     0.00000     0.00000     1.25520  0.0
    260    252    253    263   5     0.00000     0.00000     1.25520  0.0
    261    252    253    254   5     0.00000     0.00000     1.25520  0.0
    261    252    253    262   5     0.00000     0.00000     1.25520  0.0
    261    252    253    263   5     0.00000     0.00000     1.25520  0.0
    252    253    254    250   5     4.74884    -0.63178     1.67360  0.0
    252    253    254    264   5     0.00000     0.00000     1.25520  0.0
    252    253    254    265   5     0.00000     0.00000     1.25520  0.0
    262    253    254    250   5     0.00000     0.00000     1.25520  0.0
    262    253    254    264   5     0.00000     0.00000     1.25520  0.0
    262    253    254    265   5     0.00000     0.00000     1.25520  0.0
    263    253    254    250   5     0.00000     0.00000     1.25520  0.0
    263    253    254    264   5     0.00000     0.00000     1.25520  0.0
    263    253    254    265   5     0.00000     0.00000     1.25520  0.0
    249    255    268    269   5     4.74884    -0.63178     1.67360  0.0
    249    255    268    274   5     4.74884    -0.63178     1.67360  0.0
    249    255    268    275   5     0.00000     0.00000     1.25520  0.0
    266    255    268    269   5     0.00000     0.00000     1.25520  0.0
    266    255    268    274   5     0.00000     0.00000     1.25520  0.0
    266    255    268    275   5     0.00000     0.00000     1.25520  0.0
    267    255    268    269   5     0.00000     0.00000     1.25520  0.0
    267    255    268    274   5     0.00000     0.00000     1.25520  0.0
    267    255    268    275   5     0.00000     0.00000     1.25520  0.0
    255    268    269    270   5     4.74884    -0.63178     1.67360  0.0
    255    268    269    273   5     4.74884    -0.63178     1.67360  0.0
    255    268    269    276   5     0.00000     0.00000     1.25520  0.0
    274    268    269    270   5     4.74884    -0.63178     1.67360  0.0
    274    268    269    273   5     4.74884    -0.63178     1.67360  0.0
    274    268    269    276   5     0.00000     0.00000     1.25520  0.0
    275    268    269    270   5     0.00000     0.00000     1.25520  0.0
    275    268    269    273   5     0.00000     0.00000     1.25520  0.0
    275    268    269    276   5     0.00000     0.00000     1.25520  0.0
    255    268    274    285   5     0.00000     0.00000     1.25520  0.0
    255    268    274    286   5     0.00000     0.00000     1.25520  0.0
    255    268    274    287   5     4.74884    -0.63178     1.67360  0.0
    269    268    274    285   5     0.00000     0.00000     1.25520  0.0
    269    268    274    286   5     0.00000     0.00000     1.25520  0.0
    269    268    274    287   5     4.74884    -0.63178     1.67360  0.0
    275    268    274    285   5     0.00000     0.00000     1.25520  0.0
    275    268    274    286   5     0.00000     0.00000     1.25520  0.0
    275    268    274    287   5     0.00000     0.00000     1.25520  0.0
    268    269    270    271   5     4.74884    -0.63178     1.67360  0.0
    268    269    270    277   5     0.00000     0.00000     1.25520  0.0
    268    269    270    278   5     0.00000     0.00000     1.25520  0.0
    273    269    270    271   5     4.74884    -0.63178     1.67360  0.0
    273    269    270    277   5     0.00000     0.00000     1.25520  0.0
    273    269    270    278   5     0.00000     0.00000     1.25520  0.0
    276    269    270    271   5     0.00000     0.00000     1.25520  0.0
    276    269    270    277   5     0.00000     0.00000     1.25520  0.0
    276    269    270    278   5     0.00000     0.00000     1.25520  0.0
    268    269    273    272   5     4.74884    -0.63178     1.67360  0.0
    268    269    273    283   5     0.00000     0.00000     1.25520  0.0
    268    269    273    284   5     0.00000     0.00000     1.25520  0.0
    270    269    273    272   5     4.74884    -0.63178     1.67360  0.0
    270    269    273    283   5     0.00000     0.00000     1.25520  0.0
    270    269    273    284   5     0.00000     0.00000     1.25520  0.0
    276    269    273    272   5     0.00000     0.00000     1.25520  0.0
    276    269    273    283   5     0.00000     0.00000     1.25520  0.0
    276    269    273    284   5     0.00000     0.00000     1.25520  0.0
    269    270    271    272   5     4.74884    -0.63178     1.67360  0.0
    269    270    271    279   5     0.00000     0.00000     1.25520  0.0
    269    270    271    280   5     0.00000     0.00000     1.25520  0.0
    277    270    271    272   5     0.00000     0.00000     1.25520  0.0
    277    270    271    279   5     0.00000     0.00000     1.25520  0.0
    277    270    271    280   5     0.00000     0.00000     1.25520  0.0
    278    270    271    272   5     0.00000     0.00000     1.25520  0.0
    278    270    271    279   5     0.00000     0.00000     1.25520  0.0
    278    270    271    280   5     0.00000     0.00000     1.25520  0.0
    270    271    272    273   5     4.74884    -0.63178     1.67360  0.0
    270    271    272    281   5     0.00000     0.00000     1.25520  0.0
    270    271    272    282   5     0.00000     0.00000     1.25520  0.0
    279    271    272    273   5     0.00000     0.00000     1.25520  0.0
    279    271    272    281   5     0.00000     0.00000     1.25520  0.0
    279    271    272    282   5     0.00000     0.00000     1.25520  0.0
    280    271    272    273   5     0.00000     0.00000     1.25520  0.0
    280    271    272    281   5     0.00000     0.00000     1.25520  0.0
    280    271    272    282   5     0.00000     0.00000     1.25520  0.0
    271    272    273    269   5     4.74884    -0.63178     1.67360  0.0
    271    272    273    283   5     0.00000     0.00000     1.25520  0.0
    271    272    273    284   5     0.00000     0.00000     1.25520  0.0
    281    272    273    269   5     0.00000     0.00000     1.25520  0.0
    281    272    273    283   5     0.00000     0.00000     1.25520  0.0
    281    272    273    284   5     0.00000     0.00000     1.25520  0.0
    282    272    273    269   5     0.00000     0.00000     1.25520  0.0
    282    272    273    283   5     0.00000     0.00000     1.25520  0.0
    282    272    273    284   5     0.00000     0.00000     1.25520  0.0
    268    274    287    288   5     4.74884    -0.63178     1.67360  0.0
    268    274    287    293   5     4.74884    -0.63178     1.67360  0.0
    268    274    287    294   5     0.00000     0.00000     1.25520  0.0
    285    274    287    288   5     0.00000     0.00000     1.25520  0.0
    285    274    287    293   5     0.00000     0.00000     1.25520  0.0
    285    274    287    294   5     0.00000     0.00000     1.25520  0.0
    286    274    287    288   5     0.00000     0.00000     1.25520  0.0
    286    274    287    293   5     0.00000     0.00000     1.25520  0.0
    286    274    287    294   5     0.00000     0.00000     1.25520  0.0
    274    287    288    289   5     4.74884    -0.63178     1.67360  0.0
    274    287    288    292   5     4.74884    -0.63178     1.67360  0.0
    274    287    288    295   5     0.00000     0.00000     1.25520  0.0
    293    287    288    289   5     4.74884    -0.63178     1.67360  0.0
    293    287    288    292   5     4.74884    -0.63178     1.67360  0.0
    293    287    288    295   5     0.00000     0.00000     1.25520  0.0
    294    287    288    289   5     0.00000     0.00000     1.25520  0.0
    294    287    288    292   5     0.00000     0.00000     1.25520  0.0
    294    287    288    295   5     0.00000     0.00000     1.25520  0.0
    274    287    293    304   5     0.00000     0.00000     1.25520  0.0
    274    287    293    305   5     0.00000     0.00000     1.25520  0.0
    274    287    293    306   5     4.74884    -0.63178     1.67360  0.0
    288    287    293    304   5     0.00000     0.00000     1.25520  0.0
    288    287    293    305   5     0.00000     0.00000     1.25520  0.0
    288    287    293    306   5     4.74884    -0.63178     1.67360  0.0
    294    287    293    304   5     0.00000     0.00000     1.25520  0.0
    294    287    293    305   5     0.00000     0.00000     1.25520  0.0
    294    287    293    306   5     0.00000     0.00000     1.25520  0.0
    287    288    289    290   5     4.74884    -0.63178     1.67360  0.0
    287    288    289    296   5     0.00000     0.00000     1.25520  0.0
    287    288    289    297   5     0.00000     0.00000     1.25520  0.0
    292    288    289    290   5     4.74884    -0.63178     1.67360  0.0
    292    288    289    296   5     0.00000     0.00000     1.25520  0.0
    292    288    289    297   5     0.00000     0.00000     1.25520  0.0
    295    288    289    290   5     0.00000     0.00000     1.25520  0.0
    295    288    289    296   5     0.00000     0.00000     1.25520  0.0
    295    288    289    297   5     0.00000     0.00000     1.25520  0.0
    287    288    292    291   5     4.74884    -0.63178     1.67360  0.0
    287    288    292    302   5     0.00000     0.00000     1.25520  0.0
    287    288    292    303   5     0.00000     0.00000     1.25520  0.0
    289    288    292    291   5     4.74884    -0.63178     1.67360  0.0
    289    288    292    302   5     0.00000     0.00000     1.25520  0.0
    289    288    292    303   5     0.00000     0.00000     1.25520  0.0
    295    288    292    291   5     0.00000     0.00000     1.25520  0.0
    295    288    292    302   5     0.00000     0.00000     1.25520  0.0
    295    288    292    303   5     0.00000     0.00000     1.25520  0.0
    288    289    290    291   5     4.74884    -0.63178     1.67360  0.0
    288    289    290    298   5     0.00000     0.00000     1.25520  0.0
    288    289    290    299   5     0.00000     0.00000     1.25520  0.0
    296    289    290    291   5     0.00000     0.00000     1.25520  0.0
    296    289    290    298   5     0.00000     0.00000     1.25520  0.0
    296    289    290    299   5     0.00000     0.00000     1.25520  0.0
    297    289    290    291   5     0.00000     0.00000     1.25520  0.0
    297    289    290    298   5     0.00000     0.00000     1.25520  0.0
    297    289    290    299   5     0.00000     0.00000     1.25520  0.0
    289    290    291    292   5     4.74884    -0.63178     1.67360  0.0
    289    290    291    300   5     0.00000     0.00000     1.25520  0.0
    289    290    291    301   5     0.00000     0.00000     1.25520  0.0
    298    290    291    292   5     0.00000     0.00000     1.25520  0.0
    298    290    291    300   5     0.00000     0.00000     1.25520  0.0
    298    290    291    301   5     0.00000     0.00000     1.25520  0.0
    299    290    291    292   5     0.00000     0.00000     1.25520  0.0
    299    290    291    300   5     0.00000     0.00000     1.25520  0.0
    299    290    291    301   5     0.00000     0.00000     1.25520  0.0
    290    291    292    288   5     4.74884    -0.63178     1.67360  0.0
    290    291    292    302   5     0.00000     0.00000     1.25520  0.0
    290    291    292    303   5     0.00000     0.00000     1.25520  0.0
    300    291    292    288   5     0.00000     0.00000     1.25520  0.0
    300    291    292    302   5     0.00000     0.00000     1.25520  0.0
    300    291    292    303   5     0.00000     0.00000     1.25520  0.0
    301    291    292    288   5     0.00000     0.00000     1.25520  0.0
    301    291    292    302   5     0.00000     0.00000     1.25520  0.0
    301    291    292    303   5     0.00000     0.00000     1.25520  0.0
    287    293    306    307   5     4.74884    -0.63178     1.67360  0.0
    287    293    306    312   5     4.74884    -0.63178     1.67360  0.0
    287    293    306    313   5     0.00000     0.00000     1.25520  0.0
    304    293    306    307   5     0.00000     0.00000     1.25520  0.0
    304    293    306    312   5     0.00000     0.00000     1.25520  0.0
    304    293    306    313   5     0.00000     0.00000     1.25520  0.0
    305    293    306    307   5     0.00000     0.00000     1.25520  0.0
    305    293    306    312   5     0.00000     0.00000     1.25520  0.0
    305    293    306    313   5     0.00000     0.00000     1.25520  0.0
    293    306    307    308   5     4.74884    -0.63178     1.67360  0.0
    293    306    307    311   5     4.74884    -0.63178     1.67360  0.0
    293    306    307    314   5     0.00000     0.00000     1.25520  0.0
    312    306    307    308   5     4.74884    -0.63178     1.67360  0.0
    312    306    307    311   5     4.74884    -0.63178     1.67360  0.0
    312    306    307    314   5     0.00000     0.00000     1.25520  0.0
    313    306    307    308   5     0.00000     0.00000     1.25520  0.0
    313    306    307    311   5     0.00000     0.00000     1.25520  0.0
    313    306    307    314   5     0.00000     0.00000     1.25520  0.0
    293    306    312    323   5     0.00000     0.00000     1.25520  0.0
    293    306    312    324   5     0.00000     0.00000     1.25520  0.0
    293    306    312    325   5     4.74884    -0.63178     1.67360  0.0
    307    306    312    323   5     0.00000     0.00000     1.25520  0.0
    307    306    312    324   5     0.00000     0.00000     1.25520  0.0
    307    306    312    325   5     4.74884    -0.63178     1.67360  0.0
    313    306    312    323   5     0.00000     0.00000     1.25520  0.0
    313    306    312    324   5     0.00000     0.00000     1.25520  0.0
    313    306    312    325   5     0.00000     0.00000     1.25520  0.0
    306    307    308    309   5     4.74884    -0.63178     1.67360  0.0
    306    307    308    315   5     0.00000     0.00000     1.25520  0.0
    306    307    308    316   5     0.00000     0.00000     1.25520  0.0
    311    307    308    309   5     4.74884    -0.63178     1.67360  0.0
    311    307    308    315   5     0.00000     0.00000     1.25520  0.0
    311    307    308    316   5     0.00000     0.00000     1.25520  0.0
    314    307    308    309   5     0.00000     0.00000     1.25520  0.0
    314    307    308    315   5     0.00000     0.00000     1.25520  0.0
    314    307    308    316   5     0.00000     0.00000     1.25520  0.0
    306    307    311    310   5     4.74884    -0.63178     1.67360  0.0
    306    307    311    321   5     0.00000     0.00000     1.25520  0.0
    306    307    311    322   5     0.00000     0.00000     1.25520  0.0
    308    307    311    310   5     4.74884    -0.63178     1.67360  0.0
    308    307    311    321   5     0.00000     0.00000     1.25520  0.0
    308    307    311    322   5     0.00000     0.00000     1.25520  0.0
    314    307    311    310   5     0.00000     0.00000     1.25520  0.0
    314    307    311    321   5     0.00000     0.00000     1.25520  0.0
    314    307    311    322   5     0.00000     0.00000     1.25520  0.0
    307    308    309    310   5     4.74884    -0.63178     1.67360  0.0
    307    308    309    317   5     0.00000     0.00000     1.25520  0.0
    307    308    309    318   5     0.00000     0.00000     1.25520  0.0
    315    308    309    310   5     0.00000     0.00000     1.25520  0.0
    315    308    309    317   5     0.00000     0.00000     1.25520  0.0
    315    308    309    318   5     0.00000     0.00000     1.25520  0.0
    316    308    309    310   5     0.00000     0.00000     1.25520  0.0
    316    308    309    317   5     0.00000     0.00000     1.25520  0.0
    316    308    309    318   5     0.00000     0.00000     1.25520  0.0
    308    309    310    311   5     4.74884    -0.63178     1.67360  0.0
    308    309    310    319   5     0.00000     0.00000     1.25520  0.0
    308    309    310    320   5     0.00000     0.00000     1.25520  0.0
    317    309    310    311   5     0.00000     0.00000     1.25520  0.0
    317    309    310    319   5     0.00000     0.00000     1.25520  0.0
    317    309    310    320   5     0.00000     0.00000     1.25520  0.0
    318    309    310    311   5     0.00000     0.00000     1.25520  0.0
    318    309    310    319   5     0.00000     0.00000     1.25520  0.0
    318    309    310    320   5     0.00000     0.00000     1.25520  0.0
    309    310    311    307   5     4.74884    -0.63178     1.67360  0.0
    309    310    311    321   5     0.00000     0.00000     1.25520  0.0
    309    310    311    322   5     0.00000     0.00000     1.25520  0.0
    319    310    311    307   5     0.00000     0.00000     1.25520  0.0
    319    310    311    321   5     0.00000     0.00000     1.25520  0.0
    319    310    311    322   5     0.00000     0.00000     1.25520  0.0
    320    310    311    307   5     0.00000     0.00000     1.25520  0.0
    320    310    311    321   5     0.00000     0.00000     1.25520  0.0
    320    310    311    322   5     0.00000     0.00000     1.25520  0.0
    306    312    325    326   5     4.74884    -0.63178     1.67360  0.0
    306    312    325    331   5     4.74884    -0.63178     1.67360  0.0
    306    312    325    332   5     0.00000     0.00000     1.25520  0.0
    323    312    325    326   5     0.00000     0.00000     1.25520  0.0
    323    312    325    331   5     0.00000     0.00000     1.25520  0.0
    323    312    325    332   5     0.00000     0.00000     1.25520  0.0
    324    312    325    326   5     0.00000     0.00000     1.25520  0.0
    324    312    325    331   5     0.00000     0.00000     1.25520  0.0
    324    312    325    332   5     0.00000     0.00000     1.25520  0.0
    312    325    326    327   5     4.74884    -0.63178     1.67360  0.0
    312    325    326    330   5     4.74884    -0.63178     1.67360  0.0
    312    325    326    333   5     0.00000     0.00000     1.25520  0.0
    331    325    326    327   5     4.74884    -0.63178     1.67360  0.0
    331    325    326    330   5     4.74884    -0.63178     1.67360  0.0
    331    325    326    333   5     0.00000     0.00000     1.25520  0.0
    332    325    326    327   5     0.00000     0.00000     1.25520  0.0
    332    325    326    330   5     0.00000     0.00000     1.25520  0.0
    332    325    326    333   5     0.00000     0.00000     1.25520  0.0
    312    325    331    342   5     0.00000     0.00000     1.25520  0.0
    312    325    331    343   5     0.00000     0.00000     1.25520  0.0
    312    325    331    344   5     4.74884    -0.63178     1.67360  0.0
    326    325    331    342   5     0.00000     0.00000     1.25520  0.0
    326    325    331    343   5     0.00000     0.00000     1.25520  0.0
    326    325    331    344   5     4.74884    -0.63178     1.67360  0.0
    332    325    331    342   5     0.00000     0.00000     1.25520  0.0
    332    325    331    343   5     0.00000     0.00000     1.25520  0.0
    332    325    331    344   5     0.00000     0.00000     1.25520  0.0
    325    326    327    328   5     4.74884    -0.63178     1.67360  0.0
    325    326    327    334   5     0.00000     0.00000     1.25520  0.0
    325    326    327    335   5     0.00000     0.00000     1.25520  0.0
    330    326    327    328   5     4.74884    -0.63178     1.67360  0.0
    330    326    327    334   5     0.00000     0.00000     1.25520  0.0
    330    326    327    335   5     0.00000     0.00000     1.25520  0.0
    333    326    327    328   5     0.00000     0.00000     1.25520  0.0
    333    326    327    334   5     0.00000     0.00000     1.25520  0.0
    333    326    327    335   5     0.00000     0.00000     1.25520  0.0
    325    326    330    329   5     4.74884    -0.63178     1.67360  0.0
    325    326    330    340   5     0.00000     0.00000     1.25520  0.0
    325    326    330    341   5     0.00000     0.00000     1.25520  0.0
    327    326    330    329   5     4.74884    -0.63178     1.67360  0.0
    327    326    330    340   5     0.00000     0.00000     1.25520  0.0
    327    326    330    341   5     0.00000     0.00000     1.25520  0.0
    333    326    330    329   5     0.00000     0.00000     1.25520  0.0
    333    326    330    340   5     0.00000     0.00000     1.25520  0.0
    333    326    330    341   5     0.00000     0.00000     1.25520  0.0
    326    327    328    329   5     4.74884    -0.63178     1.67360  0.0
    326    327    328    336   5     0.00000     0.00000     1.25520  0.0
    326    327    328    337   5     0.00000     0.00000     1.25520  0.0
    334    327    328    329   5     0.00000     0.00000     1.25520  0.0
    334    327    328    336   5     0.00000     0.00000     1.25520  0.0
    334    327    328    337   5     0.00000     0.00000     1.25520  0.0
    335    327    328    329   5     0.00000     0.00000     1.25520  0.0
    335    327    328    336   5     0.00000     0.00000     1.25520  0.0
    335    327    328    337   5     0.00000     0.00000     1.25520  0.0
    327    328    329    330   5     4.74884    -0.63178     1.67360  0.0
    327    328    329    338   5     0.00000     0.00000     1.25520  0.0
    327    328    329    339   5     0.00000     0.00000     1.25520  0.0
    336    328    329    330   5     0.00000     0.00000     1.25520  0.0
    336    328    329    338   5     0.00000     0.00000     1.25520  0.0
    336    328    329    339   5     0.00000     0.00000     1.25520  0.0
    337    328    329    330   5     0.00000     0.00000     1.25520  0.0
    337    328    329    338   5     0.00000     0.00000     1.25520  0.0
    337    328    329    339   5     0.00000     0.00000     1.25520  0.0
    328    329    330    326   5     4.74884    -0.63178     1.67360  0.0
    328    329    330    340   5     0.00000     0.00000     1.25520  0.0
    328    329    330    341   5     0.00000     0.00000     1.25520  0.0
    338    329    330    326   5     0.00000     0.00000     1.25520  0.0
    338    329    330    340   5     0.00000     0.00000     1.25520  0.0
    338    329    330    341   5     0.00000     0.00000     1.25520  0.0
    339    329    330    326   5     0.00000     0.00000     1.25520  0.0
    339    329    330    340   5     0.00000     0.00000     1.25520  0.0
    339    329    330    341   5     0.00000     0.00000     1.25520  0.0
    325    331    344    345   5     4.74884    -0.63178     1.67360  0.0
    325    331    344    350   5     4.74884    -0.63178     1.67360  0.0
    325    331    344    351   5     0.00000     0.00000     1.25520  0.0
    342    331    344    345   5     0.00000     0.00000     1.25520  0.0
    342    331    344    350   5     0.00000     0.00000     1.25520  0.0
    342    331    344    351   5     0.00000     0.00000     1.25520  0.0
    343    331    344    345   5     0.00000     0.00000     1.25520  0.0
    343    331    344    350   5     0.00000     0.00000     1.25520  0.0
    343    331    344    351   5     0.00000     0.00000     1.25520  0.0
    331    344    345    346   5     4.74884    -0.63178     1.67360  0.0
    331    344    345    349   5     4.74884    -0.63178     1.67360  0.0
    331    344    345    352   5     0.00000     0.00000     1.25520  0.0
    350    344    345    346   5     4.74884    -0.63178     1.67360  0.0
    350    344    345    349   5     4.74884    -0.63178     1.67360  0.0
    350    344    345    352   5     0.00000     0.00000     1.25520  0.0
    351    344    345    346   5     0.00000     0.00000     1.25520  0.0
    351    344    345    349   5     0.00000     0.00000     1.25520  0.0
    351    344    345    352   5     0.00000     0.00000     1.25520  0.0
    331    344    350    361   5     0.00000     0.00000     1.25520  0.0
    331    344    350    362   5     0.00000     0.00000     1.25520  0.0
    331    344    350    363   5     4.74884    -0.63178     1.67360  0.0
    345    344    350    361   5     0.00000     0.00000     1.25520  0.0
    345    344    350    362   5     0.00000     0.00000     1.25520  0.0
    345    344    350    363   5     4.74884    -0.63178     1.67360  0.0
    351    344    350    361   5     0.00000     0.00000     1.25520  0.0
    351    344    350    362   5     0.00000     0.00000     1.25520  0.0
    351    344    350    363   5     0.00000     0.00000     1.25520  0.0
    344    345    346    347   5     4.74884    -0.63178     1.67360  0.0
    344    345    346    353   5     0.00000     0.00000     1.25520  0.0
    344    345    346    354   5     0.00000     0.00000     1.25520  0.0
    349    345    346    347   5     4.74884    -0.63178     1.67360  0.0
    349    345    346    353   5     0.00000     0.00000     1.25520  0.0
    349    345    346    354   5     0.00000     0.00000     1.25520  0.0
    352    345    346    347   5     0.00000     0.00000     1.25520  0.0
    352    345    346    353   5     0.00000     0.00000     1.25520  0.0
    352    345    346    354   5     0.00000     0.00000     1.25520  0.0
    344    345    349    348   5     4.74884    -0.63178     1.67360  0.0
    344    345    349    359   5     0.00000     0.00000     1.25520  0.0
    344    345    349    360   5     0.00000     0.00000     1.25520  0.0
    346    345    349    348   5     4.74884    -0.63178     1.67360  0.0
    346    345    349    359   5     0.00000     0.00000     1.25520  0.0
    346    345    349    360   5     0.00000     0.00000     1.25520  0.0
    352    345    349    348   5     0.00000     0.00000     1.25520  0.0
    352    345    349    359   5     0.00000     0.00000     1.25520  0.0
    352    345    349    360   5     0.00000     0.00000     1.25520  0.0
    345    346    347    348   5     4.74884    -0.63178     1.67360  0.0
    345    346    347    355   5     0.00000     0.00000     1.25520  0.0
    345    346    347    356   5     0.00000     0.00000     1.25520  0.0
    353    346    347    348   5     0.00000     0.00000     1.25520  0.0
    353    346    347    355   5     0.00000     0.00000     1.25520  0.0
    353    346    347    356   5     0.00000     0.00000     1.25520  0.0
    354    346    347    348   5     0.00000     0.00000     1.25520  0.0
    354    346    347    355   5     0.00000     0.00000     1.25520  0.0
    354    346    347    356   5     0.00000     0.00000     1.25520  0.0
    346    347    348    349   5     4.74884    -0.63178     1.67360  0.0
    346    347    348    357   5     0.00000     0.00000     1.25520  0.0
    346    347    348    358   5     0.00000     0.00000     1.25520  0.0
    355    347    348    349   5     0.00000     0.00000     1.25520  0.0
    355    347    348    357   5     0.00000     0.00000     1.25520  0.0
    355    347    348    358   5     0.00000     0.00000     1.25520  0.0
    356    347    348    349   5     0.00000     0.00000     1.25520  0.0
    356    347    348    357   5     0.00000     0.00000     1.25520  0.0
    356    347    348    358   5     0.00000     0.00000     1.25520  0.0
    347    348    349    345   5     4.74884    -0.63178     1.67360  0.0
    347    348    349    359   5     0.00000     0.00000     1.25520  0.0
    347    348    349    360   5     0.00000     0.00000     1.25520  0.0
    357    348    349    345   5     0.00000     0.00000     1.25520  0.0
    357    348    349    359   5     0.00000     0.00000     1.25520  0.0
    357    348    349    360   5     0.00000     0.00000     1.25520  0.0
    358    348    349    345   5     0.00000     0.00000     1.25520  0.0
    358    348    349    359   5     0.00000     0.00000     1.25520  0.0
    358    348    349    360   5     0.00000     0.00000     1.25520  0.0
    344    350    363    364   5     4.74884    -0.63178     1.67360  0.0
    344    350    363    369   5     4.74884    -0.63178     1.67360  0.0
    344    350    363    370   5     0.00000     0.00000     1.25520  0.0
    361    350    363    364   5     0.00000     0.00000     1.25520  0.0
    361    350    363    369   5     0.00000     0.00000     1.25520  0.0
    361    350    363    370   5     0.00000     0.00000     1.25520  0.0
    362    350    363    364   5     0.00000     0.00000     1.25520  0.0
    362    350    363    369   5     0.00000     0.00000     1.25520  0.0
    362    350    363    370   5     0.00000     0.00000     1.25520  0.0
    350    363    364    365   5     4.74884    -0.63178     1.67360  0.0
    350    363    364    368   5     4.74884    -0.63178     1.67360  0.0
    350    363    364    371   5     0.00000     0.00000     1.25520  0.0
    369    363    364    365   5     4.74884    -0.63178     1.67360  0.0
    369    363    364    368   5     4.74884    -0.63178     1.67360  0.0
    369    363    364    371   5     0.00000     0.00000     1.25520  0.0
    370    363    364    365   5     0.00000     0.00000     1.25520  0.0
    370    363    364    368   5     0.00000     0.00000     1.25520  0.0
    370    363    364    371   5     0.00000     0.00000     1.25520  0.0
    350    363    369    380   5     0.00000     0.00000     1.25520  0.0
    350    363    369    381   5     0.00000     0.00000     1.25520  0.0
    350    363    369    382   5     0.00000     0.00000     1.25520  0.0
    364    363    369    380   5     0.00000     0.00000     1.25520  0.0
    364    363    369    381   5     0.00000     0.00000     1.25520  0.0
    364    363    369    382   5     0.00000     0.00000     1.25520  0.0
    370    363    369    380   5     0.00000     0.00000     1.25520  0.0
    370    363    369    381   5     0.00000     0.00000     1.25520  0.0
    370    363    369    382   5     0.00000     0.00000     1.25520  0.0
    363    364    365    366   5     4.74884    -0.63178     1.67360  0.0
    363    364    365    372   5     0.00000     0.00000     1.25520  0.0
    363    364    365    373   5     0.00000     0.00000     1.25520  0.0
    368    364    365    366   5     4.74884    -0.63178     1.67360  0.0
    368    364    365    372   5     0.00000     0.00000     1.25520  0.0
    368    364    365    373   5     0.00000     0.00000     1.25520  0.0
    371    364    365    366   5     0.00000     0.00000     1.25520  0.0
    371    364    365    372   5     0.00000     0.00000     1.25520  0.0
    371    364    365    373   5     0.00000     0.00000     1.25520  0.0
    363    364    368    367   5     4.74884    -0.63178     1.67360  0.0
    363    364    368    378   5     0.00000     0.00000     1.25520  0.0
    363    364    368    379   5     0.00000     0.00000     1.25520  0.0
    365    364    368    367   5     4.74884    -0.63178     1.67360  0.0
    365    364    368    378   5     0.00000     0.00000     1.25520  0.0
    365    364    368    379   5     0.00000     0.00000     1.25520  0.0
    371    364    368    367   5     0.00000     0.00000     1.25520  0.0
    371    364    368    378   5     0.00000     0.00000     1.25520  0.0
    371    364    368    379   5     0.00000     0.00000     1.25520  0.0
    364    365    366    367   5     4.74884    -0.63178     1.67360  0.0
    364    365    366    374   5     0.00000     0.00000     1.25520  0.0
    364    365    366    375   5     0.00000     0.00000     1.25520  0.0
    372    365    366    367   5     0.00000     0.00000     1.25520  0.0
    372    365    366    374   5     0.00000     0.00000     1.25520  0.0
    372    365    366    375   5     0.00000     0.00000     1.25520  0.0
    373    365    366    367   5     0.00000     0.00000     1.25520  0.0
    373    365    366    374   5     0.00000     0.00000     1.25520  0.0
    373    365    366    375   5     0.00000     0.00000     1.25520  0.0
    365    366    367    368   5     4.74884    -0.63178     1.67360  0.0
    365    366    367    376   5     0.00000     0.00000     1.25520  0.0
    365    366    367    377   5     0.00000     0.00000     1.25520  0.0
    374    366    367    368   5     0.00000     0.00000     1.25520  0.0
    374    366    367    376   5     0.00000     0.00000     1.25520  0.0
    374    366    367    377   5     0.00000     0.00000     1.25520  0.0
    375    366    367    368   5     0.00000     0.00000     1.25520  0.0
    375    366    367    376   5     0.00000     0.00000     1.25520  0.0
    375    366    367    377   5     0.00000     0.00000     1.25520  0.0
    366    367    368    364   5     4.74884    -0.63178     1.67360  0.0
    366    367    368    378   5     0.00000     0.00000     1.25520  0.0
    366    367    368    379   5     0.00000     0.00000     1.25520  0.0
    376    367    368    364   5     0.00000     0.00000     1.25520  0.0
    376    367    368    378   5     0.00000     0.00000     1.25520  0.0
    376    367    368    379   5     0.00000     0.00000     1.25520  0.0
    377    367    368    364   5     0.00000     0.00000     1.25520  0.0
    377    367    368    378   5     0.00000     0.00000     1.25520  0.0
    377    367    368    379   5     0.00000     0.00000     1.25520  0.0
