Control file title. For DL_FIELD 4.10
49910
    1MOL     C1    1   6.620   5.652   6.018 -0.0057  0.9066 -0.1891
    1MOL     C2    2   6.676   5.780   5.966  0.5331  0.3617 -0.0779
    1MOL     C3    3   6.792   5.827   6.029  0.1865 -0.6524 -0.2717
    1MOL     C4    4   6.854   5.944   5.978 -0.3679 -0.4230  0.3896
    1MOL     C5    5   6.804   6.009   5.867 -0.1795 -0.1555 -0.2385
    1MOL     F6    6   6.865   6.120   5.831  0.3839 -0.3286 -0.3048
    1MOL     C7    7   6.692   5.957   5.800  0.3649  0.1405 -0.0271
    1MOL     C8    8   6.630   5.842   5.844 -0.5034  0.4710 -0.5771
    1MOL     C9    9   6.638   5.538   5.913  0.0422  1.0071 -0.6594
    1MOL    H10   10   6.512   5.654   6.029  0.1984 -0.4576  2.2477
    1MOL    H11   11   6.833   5.777   6.115  0.1279  2.1441  1.4318
    1MOL    H12   12   6.944   5.976   6.029 -0.7046  1.1970 -0.0160
    1MOL    H13   13   6.640   5.995   5.713 -2.1993  1.6872  2.0635
    1MOL    H14   14   6.536   5.808   5.802 -0.2809  0.8604 -1.3945
    1MOL    H15   15   6.562   5.565   5.840 -2.2311 -1.3129  0.7481
    1MOL    H16   16   6.737   5.540   5.869  1.0082 -1.0979  1.3275
    1MOL    H17   17   6.655   5.629   6.119  0.3241  1.7649 -0.0967
    1MOL    C18   18   6.596   5.397   5.967  0.0626 -0.3532 -1.1956
    1MOL    C19   19   6.548   5.305   5.861  0.6316  0.3948 -0.4755
    1MOL    C20   20   6.418   5.247   5.871  0.4879  0.3514 -0.3291
    1MOL    C21   21   6.385   5.148   5.777 -0.5582 -0.3655  0.1745
    1MOL    C22   22   6.476   5.115   5.675  0.2331 -0.6751  0.6816
    1MOL    F23   23   6.451   5.015   5.587 -0.1455 -0.4773  0.3870
    1MOL    C24   24   6.601   5.171   5.673  0.7501  0.3243  0.2081
    1MOL    C25   25   6.636   5.272   5.758 -0.3004  1.5223 -0.7286
    1MOL    C26   26   6.712   5.324   6.034 -0.1979  0.1559 -0.4879
    1MOL    H27   27   6.516   5.420   6.038 -1.6985 -2.4301 -2.4272
    1MOL    H28   28   6.349   5.254   5.953 -3.1412 -2.5098 -2.9524
    1MOL    H29   29   6.286   5.106   5.791 -0.0907 -2.1948 -1.8212
    1MOL    H30   30   6.673   5.132   5.602 -0.2034  1.2554 -1.2997
    1MOL    H31   31   6.738   5.307   5.768  0.2137 -0.3796  1.0033
    1MOL    H32   32   6.701   5.217   6.021  0.5363 -0.0029  0.1631
    1MOL    H33   33   6.808   5.347   5.988 -1.4841  0.3633 -3.1853
    1MOL    C34   34   6.733   5.337   6.186  0.0380  0.1613 -0.2302
    1MOL    C35   35   6.601   5.309   6.260  0.8175 -0.1961 -0.3040
    1MOL    C36   36   6.518   5.409   6.310 -0.2460 -0.5881 -0.0937
    1MOL    C37   37   6.392   5.373   6.355  0.4716  0.3053  0.4641
    1MOL    C38   38   6.340   5.241   6.360 -0.2378  0.5097 -0.2281
    1MOL    F39   39   6.216   5.214   6.407  0.0065 -0.3059  0.1071
    1MOL    C40   40   6.423   5.140   6.311  0.0170  0.4257  0.1209
    1MOL    C41   41   6.551   5.175   6.257  0.1611  0.2260  0.3742
    1MOL    C42   42   6.849   5.259   6.249  0.9807  0.1136  0.3359
    1MOL    H43   43   6.755   5.443   6.196  0.7317  0.0698 -0.7437
    1MOL    H44   44   6.541   5.514   6.297  0.3118 -0.3967  2.1649
    1MOL    H45   45   6.321   5.450   6.381 -1.0170 -0.5125 -1.0511
    1MOL    H46   46   6.390   5.038   6.317 -0.1709  0.2740 -2.9175
    1MOL    H47   47   6.614   5.094   6.225 -1.6744 -1.4089  0.8253
    1MOL    H48   48   6.860   5.285   6.354  0.0179 -0.4334  0.5790
    1MOL    H49   49   6.816   5.155   6.242  1.3391 -0.0347  0.8731
    1MOL    C50   50   6.988   5.274   6.188  0.0910  0.1666  0.8850
    1MOL    C51   51   7.035   5.423   6.178 -0.1615 -0.3880 -0.6510
    1MOL    C52   52   7.058   5.486   6.051 -0.2137  0.1692  0.7345
    1MOL    C53   53   7.114   5.612   6.052  0.6614  0.2282  0.4597
    1MOL    C54   54   7.145   5.685   6.166  0.4909  0.1266 -0.5838
    1MOL    F55   55   7.185   5.809   6.153  0.3757  0.2037  0.7997
    1MOL    C56   56   7.124   5.623   6.287  0.4215  0.0082 -0.0188
    1MOL    C57   57   7.071   5.494   6.296 -0.4972 -0.1982  0.2353
    1MOL    C58   58   7.090   5.181   6.255 -0.3749 -0.2305 -0.4202
    1MOL    H59   59   6.989   5.239   6.085 -2.2410  1.3740  0.4135
    1MOL    H60   60   7.047   5.434   5.957  0.1914  0.7361  0.3754
    1MOL    H61   61   7.148   5.656   5.959 -2.0425  0.5426 -0.4257
    1MOL    H62   62   7.155   5.680   6.374  1.2661  0.6904 -0.7643
    1MOL    H63   63   7.062   5.449   6.394 -1.5374 -0.2254  0.1364
    1MOL    H64   64   7.128   5.224   6.347 -0.2290 -1.8168  0.2616
    1MOL    H65   65   7.034   5.090   6.273 -1.7317  0.4598 -1.0366
    1MOL    C66   66   7.215   5.136   6.167  0.8170  0.1517  0.4416
    1MOL    C67   67   7.341   5.168   6.243 -0.0553  0.5183  0.5906
    1MOL    C68   68   7.384   5.304   6.248  0.9861  0.1884 -1.1571
    1MOL    C69   69   7.498   5.339   6.328  0.2499 -0.6319 -0.4358
    1MOL    C70   70   7.577   5.242   6.381  0.5517  0.0597  0.1519
    1MOL    F71   71   7.700   5.279   6.433 -0.4798  0.2594  0.1561
    1MOL    C72   72   7.544   5.106   6.374  0.0003  0.3003 -0.0785
    1MOL    C73   73   7.429   5.069   6.299 -0.1601  0.4665 -0.2392
    1MOL    C74   74   7.206   4.990   6.107  0.1589 -0.6430  0.6040
    1MOL    H75   75   7.219   5.214   6.091  0.0084 -0.9483 -0.7421
    1MOL    H76   76   7.320   5.380   6.204 -1.9837 -2.5873 -1.8336
    1MOL    H77   77   7.532   5.442   6.336 -0.5983 -0.5244  2.2925
    1MOL    H78   78   7.605   5.031   6.422 -0.8914 -1.1159 -1.0953
    1MOL    H79   79   7.397   4.968   6.279  1.1788 -0.0371  0.1160
    1MOL    H80   80   7.305   4.953   6.078  0.2245 -0.1961  0.2561
    1MOL    H81   81   7.181   4.929   6.194  0.3197 -0.0683  1.0559
    1MOL    C82   82   7.100   4.986   5.993  0.2399  0.1114  0.5845
    1MOL    C83   83   7.134   5.088   5.882 -0.2327  0.3619  0.5048
    1MOL    C84   84   7.260   5.106   5.836  0.2038  0.1838 -0.2084
    1MOL    C85   85   7.284   5.194   5.722 -0.6182 -0.0265 -0.0206
    1MOL    C86   86   7.178   5.271   5.670  0.2041 -0.0378 -0.5820
    1MOL    F87   87   7.182   5.343   5.553  0.0468 -0.0712  0.5868
    1MOL    C88   88   7.050   5.257   5.729  0.5987  0.3925 -0.7518
    1MOL    C89   89   7.028   5.166   5.836 -0.4471  0.9691 -0.0189
    1MOL    C90   90   7.118   4.843   5.938  0.1378  0.1070  0.4444
    1MOL    H91   91   7.006   5.004   6.044 -0.8378 -1.9463 -0.6153
    1MOL    H92   92   7.337   5.049   5.885 -1.0262 -1.1938  0.1508
    1MOL    H93   93   7.384   5.191   5.683 -0.8033 -0.6473 -0.4654
    1MOL    H94   94   6.970   5.312   5.684  1.8773  1.0582 -2.2609
    1MOL    H95   95   6.931   5.149   5.880 -0.7487  1.4305 -0.4937
    1MOL    H96   96   7.197   4.824   5.865 -0.7175 -3.1139  0.2954
    1MOL    H97   97   7.150   4.785   6.024  2.0063 -1.3315 -1.1961
    1MOL    C98   98   7.001   4.771   5.881  0.2161 -0.3534  0.0075
    1MOL    C99   99   6.876   4.792   5.975 -0.2724  0.7472 -0.7100
    1MOL   C100  100   6.772   4.882   5.941 -0.0158 -0.4636  0.2275
    1MOL   C101  101   6.653   4.884   6.020  0.3068  0.7631  0.2683
    1MOL   C102  102   6.647   4.807   6.138  0.2645  0.0342 -0.1191
    1MOL   F103  103   6.544   4.838   6.222  0.5670  0.2804 -0.2524
    1MOL   C104  104   6.746   4.721   6.175 -0.3474 -0.2301 -0.7402
    1MOL   C105  105   6.862   4.709   6.097 -1.3706  0.6425  0.5615
    1MOL   C106  106   6.976   4.808   5.734 -0.1016  0.4556  0.7419
    1MOL   H107  107   7.023   4.664   5.883 -0.7763 -0.5684 -0.4935
    1MOL   H108  108   6.790   4.951   5.860 -1.1941 -1.0379 -0.5419
    1MOL   H109  109   6.573   4.953   5.997  0.1663  0.6396  0.3827
    1MOL   H110  110   6.738   4.660   6.264  2.0572  0.1146 -0.2511
    1MOL   H111  111   6.944   4.643   6.118 -0.8498  1.0697 -0.1083
    1MOL   H112  112   6.957   4.915   5.721 -1.2370  0.1339 -0.3641
    1MOL   H113  113   7.069   4.786   5.683 -0.7027  1.1163 -0.6571
    1MOL   C114  114   6.852   4.732   5.672 -0.1326 -0.3722 -0.2635
    1MOL   C115  115   6.835   4.786   5.532 -0.4363  0.5666  0.9494
    1MOL   C116  116   6.733   4.877   5.499 -0.2183 -0.4139 -0.7683
    1MOL   C117  117   6.729   4.947   5.373  0.8828  0.8293 -0.2435
    1MOL   C118  118   6.828   4.919   5.275  0.0953  0.2058 -0.8057
    1MOL   F119  119   6.831   4.994   5.167 -0.2745  0.2236 -0.1322
    1MOL   C120  120   6.932   4.836   5.306 -0.5232  0.2691  0.3067
    1MOL   C121  121   6.937   4.768   5.432  0.4963 -0.2490 -0.2415
    1MOL   C122  122   6.870   4.582   5.683 -0.1883  0.0556 -0.2125
    1MOL   H123  123   6.757   4.747   5.723  0.9411 -0.6279  1.8585
    1MOL   H124  124   6.658   4.895   5.575  0.6972 -0.2583  0.0951
    1MOL   H125  125   6.652   5.017   5.346 -0.0130 -0.7487 -1.8377
    1MOL   H126  126   7.018   4.828   5.241 -0.2633  3.6213  0.1849
    1MOL   H127  127   7.019   4.700   5.451  0.3284 -0.4235 -0.1349
    1MOL   H128  128   6.958   4.558   5.623 -0.2471  1.2138 -0.7560
    1MOL   H129  129   6.900   4.557   5.785 -2.0002  3.7522  1.2959
    1MOL   C130  130   6.749   4.490   5.641  0.9884 -0.7441  0.3220
    1MOL   C131  131   6.796   4.352   5.603 -0.7822  0.6947 -0.0873
    1MOL   C132  132   6.862   4.273   5.697 -0.2600  0.0282  0.3690
    1MOL   C133  133   6.888   4.141   5.675  0.2156  0.4147  0.2999
    1MOL   C134  134   6.866   4.087   5.544 -0.1582 -0.3818 -0.2454
    1MOL   F135  135   6.886   3.955   5.519  0.1989 -0.3034 -0.4802
    1MOL   C136  136   6.806   4.169   5.442 -0.4385  0.3214 -0.0558
    1MOL   C137  137   6.767   4.298   5.479 -0.4237 -0.1068 -0.6456
    1MOL   C138  138   6.635   4.498   5.741  0.4589  0.8969 -0.6907
    1MOL   H139  139   6.715   4.527   5.545  0.0054  1.7888  1.5860
    1MOL   H140  140   6.894   4.314   5.792  2.7463  1.7021 -1.2620
    1MOL   H141  141   6.922   4.067   5.745 -1.1658 -0.5401 -0.0016
    1MOL   H142  142   6.795   4.126   5.343  1.5459 -0.0260 -0.1461
    1MOL   H143  143   6.739   4.373   5.406  0.8694 -0.0741 -1.1312
    1MOL   H144  144   6.689   4.479   5.834 -0.2985  2.7705  0.1512
    1MOL   H145  145   6.600   4.601   5.752 -1.6616  0.0774  0.5370
    1MOL   C146  146   6.509   4.403   5.729 -0.0517 -0.1482 -0.4641
    1MOL   C147  147   6.432   4.401   5.858  0.0991  0.2935 -0.2863
    1MOL   C148  148   6.386   4.528   5.910 -0.1720  0.4855 -0.0068
    1MOL   C149  149   6.308   4.534   6.024 -0.3175 -0.6742 -0.8292
    1MOL   C150  150   6.282   4.419   6.095  0.6346  0.3508  0.5282
    1MOL   F151  151   6.200   4.424   6.203 -0.2476  0.2472  0.2074
    1MOL   C152  152   6.340   4.298   6.050  0.1009  0.4272  0.0809
    1MOL   C153  153   6.406   4.287   5.929  0.1740  0.0530 -0.3425
    1MOL   C154  154   6.430   4.450   5.604  0.1575 -0.4459  0.9813
    1MOL   H155  155   6.555   4.305   5.713 -0.9266 -0.8571  1.2735
    1MOL   H156  156   6.405   4.620   5.856 -1.7192 -0.1279 -1.6598
    1MOL   H157  157   6.252   4.624   6.048 -3.0422 -2.3885 -0.5200
    1MOL   H158  158   6.327   4.205   6.103  2.4094 -1.1689 -2.0046
    1MOL   H159  159   6.440   4.189   5.897 -1.3555 -1.2477  1.8432
    1MOL   H160  160   6.398   4.553   5.616 -1.1302 -0.5943 -0.9970
    1MOL   H161  161   6.493   4.444   5.515  1.8560 -1.6615  2.2315
    1MOL   C162  162   6.308   4.355   5.568 -0.2256 -0.1114 -0.8851
    1MOL   C163  163   6.181   4.365   5.654  0.2943  0.1868  0.0623
    1MOL   C164  164   6.130   4.490   5.699 -0.5808 -0.3648  0.6679
    1MOL   C165  165   6.014   4.491   5.778  0.6891 -0.2962  0.1708
    1MOL   C166  166   5.958   4.368   5.827 -0.2052  0.9598  0.5159
    1MOL   F167  167   5.848   4.368   5.905 -0.2506  0.5316  0.2326
    1MOL   C168  168   6.016   4.248   5.786 -0.6609  0.4139  1.1254
    1MOL   C169  169   6.126   4.247   5.705 -0.8050  0.1575  0.4161
    1MOL   C170  170   6.273   4.359   5.421 -0.7448 -0.2760  0.0532
    1MOL   H171  171   6.341   4.252   5.579 -0.3790 -0.0479  0.1998
    1MOL   H172  172   6.167   4.581   5.653  0.8943 -1.7296 -0.9052
    1MOL   H173  173   5.962   4.578   5.814  0.0714 -0.7050  0.2727
    1MOL   H174  174   5.972   4.156   5.822 -0.3952 -0.5690 -0.9677
    1MOL   H175  175   6.162   4.145   5.692 -0.2898  0.7148 -2.6972
    1MOL   H176  176   6.169   4.327   5.413 -0.0391 -2.1913 -2.1185
    1MOL   H177  177   6.289   4.459   5.380 -0.4538  0.1252  1.1411
    1MOL   C178  178   6.350   4.253   5.326 -0.4616 -0.4504  0.1382
    1MOL   C179  179   6.342   4.106   5.374 -0.3107  0.4900  0.8535
    1MOL   C180  180   6.215   4.044   5.382  0.1531  0.8096  0.0259
    1MOL   C181  181   6.205   3.910   5.421 -0.2106  0.0303 -0.0475
    1MOL   C182  182   6.321   3.840   5.453  0.2780  0.2390  0.1995
    1MOL   F183  183   6.312   3.717   5.504  0.0370  0.1225  0.1402
    1MOL   C184  184   6.446   3.897   5.442  0.5362  0.1385 -0.1851
    1MOL   C185  185   6.461   4.034   5.402  0.4475 -0.2174 -0.4215
    1MOL   C186  186   6.313   4.271   5.173  0.1587 -0.0185 -0.1356
    1MOL   H187  187   6.457   4.274   5.327 -0.8927  2.0346 -1.4858
    1MOL   H188  188   6.125   4.094   5.351  0.0759  0.9212  0.4378
    1MOL   H189  189   6.110   3.860   5.409 -0.0755 -0.2409 -0.0049
    1MOL   H190  190   6.538   3.842   5.455  0.9950  0.3931 -2.2262
    1MOL   H191  191   6.559   4.080   5.393  1.4806 -2.4685 -0.9396
    1MOL   H192  192   6.323   4.177   5.118  0.3160  0.7738 -1.4799
    1MOL   H193  193   6.207   4.294   5.172 -0.4349 -2.4933  0.5219
    1MOL   C194  194   6.398   4.374   5.095  0.1796  0.5542 -0.7029
    1MOL   C195  195   6.400   4.516   5.162 -0.7922  0.5821  0.5576
    1MOL   C196  196   6.504   4.563   5.248  0.3677  0.4311  0.2836
    1MOL   C197  197   6.503   4.697   5.287  0.1432  0.1374  0.1803
    1MOL   C198  198   6.392   4.773   5.256  0.0069 -0.0456  0.0242
    1MOL   F199  199   6.380   4.904   5.303 -0.4517  0.3859  0.4686
    1MOL   C200  200   6.292   4.725   5.175  0.1166 -0.1606 -0.2353
    1MOL   C201  201   6.294   4.596   5.120  0.3433 -0.1012  0.5487
    1MOL   C202  202   6.539   4.314   5.074  0.4705 -0.5993  0.4595
    1MOL   H203  203   6.353   4.379   4.995 -0.4256  0.7155 -0.4216
    1MOL   H204  204   6.589   4.503   5.276  1.6756  2.5754  1.0373
    1MOL   H205  205   6.584   4.737   5.346 -0.0037  2.0896 -0.9023
    1MOL   H206  206   6.215   4.798   5.157 -0.4490 -0.0475  2.5307
    1MOL   H207  207   6.223   4.546   5.056 -0.1770  0.0259  1.0203
    1MOL   H208  208   6.594   4.329   5.167 -1.2134 -0.6452  1.4797
    1MOL   H209  209   6.526   4.206   5.068 -1.6964 -0.3536  0.5916
    1MOL   C210  210   6.617   4.388   4.967 -0.2864 -0.1837  0.0888
    1MOL   C211  211   6.752   4.430   5.021  1.0803 -0.3751 -0.2547
    1MOL   C212  212   6.789   4.561   4.995  1.3695 -0.3202 -0.1399
    1MOL   C213  213   6.914   4.611   5.038  0.6062  0.5286  0.1271
    1MOL   C214  214   6.999   4.528   5.112 -0.0512  0.1864 -0.2373
    1MOL   F215  215   7.109   4.578   5.158 -0.2324  0.0817 -0.5386
    1MOL   C216  216   6.962   4.400   5.138 -0.3490  0.9050 -0.2654
    1MOL   C217  217   6.838   4.352   5.103 -0.8435  0.8847  0.5757
    1MOL   C218  218   6.638   4.316   4.837  0.0720 -0.6028  0.3221
    1MOL   H219  219   6.559   4.476   4.936 -1.1560 -1.4481 -2.0166
    1MOL   H220  220   6.723   4.627   4.939 -0.3453 -1.7188  0.2102
    1MOL   H221  221   6.935   4.714   5.014 -2.5875  1.5027  1.2763
    1MOL   H222  222   7.034   4.342   5.195 -0.7359  0.8068  0.1252
    1MOL   H223  223   6.812   4.249   5.125  2.2493 -0.0153  0.2881
    1MOL   H224  224   6.722   4.362   4.785 -0.5287 -1.4677 -1.4415
    1MOL   H225  225   6.677   4.221   4.871  1.9545 -0.1192 -0.4174
    1MOL   C226  226   6.516   4.283   4.752 -0.3057 -0.6186 -0.1690
    1MOL   C227  227   6.446   4.400   4.687  0.3681  1.2403  0.5526
    1MOL   C228  228   6.309   4.404   4.677 -0.0124  0.6564  0.1813
    1MOL   C229  229   6.240   4.515   4.630  0.1048 -0.0544 -0.2204
    1MOL   C230  230   6.310   4.627   4.584  0.1468 -0.1622 -0.2666
    1MOL   F231  231   6.235   4.728   4.547  0.2904  0.2530 -0.1644
    1MOL   C232  232   6.451   4.626   4.588 -0.2025  0.6770  0.0025
    1MOL   C233  233   6.516   4.516   4.643 -0.1137 -0.8619  0.6002
    1MOL   C234  234   6.556   4.183   4.648 -0.3196 -0.4844 -0.9290
    1MOL   H235  235   6.446   4.234   4.820 -2.7083  2.6293 -0.1899
    1MOL   H236  236   6.247   4.322   4.711  0.7708 -0.0081  0.0061
    1MOL   H237  237   6.133   4.514   4.644  0.3495 -3.4044  2.1416
    1MOL   H238  238   6.506   4.708   4.544  0.3936 -2.2269 -4.9724
    1MOL   H239  239   6.624   4.517   4.643 -0.1137 -0.5364  0.1363
    1MOL   H240  240   6.476   4.184   4.574 -0.0316  0.8525 -1.2498
    1MOL   H241  241   6.644   4.218   4.594  0.0773 -2.4875 -1.5989
    1MOL   C242  242   6.576   4.037   4.691  0.6749  0.5045  0.3235
    1MOL   C243  243   6.493   3.995   4.810 -0.1897 -0.7719 -0.1301
    1MOL   C244  244   6.360   3.968   4.790  0.1238 -0.2628  0.2908
    1MOL   C245  245   6.286   3.927   4.900 -0.4286  0.0110  0.5321
    1MOL   C246  246   6.346   3.902   5.027  0.0255 -0.1318 -0.1732
    1MOL   F247  247   6.290   3.835   5.129 -0.5734  0.1271  0.2194
    1MOL   C248  248   6.483   3.924   5.046  0.5785 -0.6729 -0.0740
    1MOL   C249  249   6.560   3.965   4.933  0.1355 -0.0355 -0.2764
    1MOL   C250  250   6.565   3.937   4.571 -0.4612  0.5965 -0.1200
    1MOL   H251  251   6.682   4.042   4.719  1.2038  1.1300 -1.7342
    1MOL   H252  252   6.313   3.999   4.698  1.3116 -0.4972 -0.4032
    1MOL   H253  253   6.178   3.917   4.891 -0.1072 -1.8855 -1.9451
    1MOL   H254  254   6.534   3.910   5.140  1.4992 -2.9681 -0.8695
    1MOL   H255  255   6.666   3.983   4.937  0.0890  0.0189  0.7192
    1MOL   H256  256   6.587   3.839   4.614 -2.3009 -0.1732 -0.8843
    1MOL   H257  257   6.465   3.927   4.529 -0.8931 -1.7983  1.3592
    1MOL   C258  258   6.654   3.963   4.445  0.2236  0.1859  0.4479
    1MOL   C259  259   6.801   3.984   4.470  0.7448  0.3398  0.6576
    1MOL   C260  260   6.873   4.080   4.407 -0.1698  0.4977  0.2094
    1MOL   C261  261   7.011   4.101   4.436  0.7867  0.7660  0.9654
    1MOL   C262  262   7.077   4.017   4.522 -0.8112 -0.0252  0.4504
    1MOL   F263  263   7.211   4.031   4.543 -0.1406  0.2556 -0.4593
    1MOL   C264  264   7.007   3.912   4.584 -0.1045 -0.0673  0.3583
    1MOL   C265  265   6.868   3.899   4.557  0.3596  0.1992  0.6009
    1MOL   C266  266   6.654   3.850   4.341  0.3278 -0.3676  0.5929
    1MOL   H267  267   6.613   4.051   4.394 -0.6267  0.1284  1.0177
    1MOL   H268  268   6.832   4.149   4.334 -0.6452 -0.2876 -0.2721
    1MOL   H269  269   7.067   4.173   4.378  1.6567 -0.5135  0.1899
    1MOL   H270  270   7.052   3.829   4.636 -1.8071 -1.0676  0.2767
    1MOL   H271  271   6.816   3.813   4.597  0.0451  0.7705  1.4316
    1MOL   H272  272   6.724   3.873   4.260 -1.0676 -1.2383 -0.8933
    1MOL   H273  273   6.694   3.762   4.390  1.1129  0.3370  1.2374
    1MOL   C274  274   6.513   3.803   4.282 -0.1716 -0.1987 -1.0175
    1MOL   C275  275   6.421   3.917   4.237 -0.7467  0.3131 -0.3569
    1MOL   C276  276   6.302   3.943   4.306  0.3520  0.1218 -0.7075
    1MOL   C277  277   6.208   4.044   4.263  0.4762 -0.3157  0.3889
    1MOL   C278  278   6.231   4.120   4.148 -0.4152  0.1476 -0.0593
    1MOL   F279  279   6.141   4.210   4.107 -0.2076 -0.1517  0.3870
    1MOL   C280  280   6.348   4.085   4.079  0.0199 -1.4642 -0.5210
    1MOL   C281  281   6.450   3.999   4.126  0.4053 -0.2942  0.7859
    1MOL   C282  282   6.528   3.693   4.180 -0.2053 -0.1613  0.4577
    1MOL   H283  283   6.469   3.760   4.372 -1.9361  1.1589 -1.2155
    1MOL   H284  284   6.276   3.882   4.392  2.8428  1.4926  1.0629
    1MOL   H285  285   6.117   4.053   4.320 -0.6359  1.1827 -1.6054
    1MOL   H286  286   6.363   4.135   3.985 -2.0202  0.6228  0.2069
    1MOL   H287  287   6.547   3.990   4.079  0.8596  0.3782  1.5927
    1MOL   H288  288   6.578   3.739   4.094  1.1869 -1.2560  0.6605
    1MOL   H289  289   6.601   3.619   4.212 -0.2247 -0.4738 -0.2069
    1MOL   C290  290   6.396   3.621   4.130 -0.8400  0.0770  0.8809
    1MOL   C291  291   6.425   3.515   4.024  0.1547  0.1181  0.1942
    1MOL   C292  292   6.441   3.549   3.884  0.6578 -1.1704  0.2806
    1MOL   C293  293   6.473   3.451   3.793 -0.0700  0.2162  0.0128
    1MOL   C294  294   6.485   3.313   3.828  0.3294 -0.4014 -0.2724
    1MOL   F295  295   6.515   3.220   3.739  0.2457 -0.1636  0.2656
    1MOL   C296  296   6.470   3.279   3.965 -1.2981  0.2831 -1.0229
    1MOL   C297  297   6.445   3.376   4.065 -0.8031 -0.0690  0.0103
    1MOL   C298  298   6.307   3.583   4.248 -0.0198  0.0311 -0.1183
    1MOL   H299  299   6.339   3.701   4.084  0.5056  1.4519  1.5858
    1MOL   H300  300   6.418   3.646   3.843  2.1487 -1.5568 -1.5457
    1MOL   H301  301   6.492   3.492   3.695 -1.0199  0.6373 -0.0007
    1MOL   H302  302   6.480   3.177   3.998  0.9083  0.9624  0.5561
    1MOL   H303  303   6.426   3.350   4.168 -0.5782 -1.0976 -0.2083
    1MOL   H304  304   6.365   3.513   4.308  1.1625  1.5364  0.5414
    1MOL   H305  305   6.293   3.662   4.322 -1.2682  0.6765 -1.0328
    1MOL   C306  306   6.159   3.541   4.218 -0.2846 -0.1345  0.1509
    1MOL   C307  307   6.099   3.492   4.354  0.2151  0.1847 -0.4077
    1MOL   C308  308   6.168   3.390   4.432 -0.2227  0.2686 -0.3578
    1MOL   C309  309   6.105   3.349   4.551  0.0247  0.0359 -0.1255
    1MOL   C310  310   5.978   3.395   4.590 -0.2057 -0.3116 -0.1520
    1MOL   F311  311   5.912   3.337   4.695 -0.5343  0.1368  0.1356
    1MOL   C312  312   5.918   3.505   4.517 -0.5094 -0.8641  0.0713
    1MOL   C313  313   5.977   3.552   4.402  0.2130  0.2726  0.2234
    1MOL   C314  314   6.082   3.640   4.131  0.1414 -0.0089  1.1369
    1MOL   H315  315   6.169   3.446   4.165 -0.1376 -0.1387  0.1860
    1MOL   H316  316   6.258   3.335   4.411 -1.1062 -1.8995  1.3417
    1MOL   H317  317   6.159   3.277   4.611 -0.4236 -1.3886 -1.4018
    1MOL   H318  318   5.819   3.537   4.549 -1.1698 -2.3268 -0.4555
    1MOL   H319  319   5.918   3.629   4.355  0.2580 -0.5136 -1.1546
    1MOL   H320  320   6.061   3.734   4.183  0.4728  0.5449  0.2858
    1MOL   H321  321   6.136   3.668   4.041 -0.9024  1.6877  1.0104
    1MOL   H322  322   5.982   3.604   4.105  0.6157 -0.3703 -0.2315
    2MOL     C1  323   2.692   6.293   6.785 -0.4875 -0.1506  0.8355
    2MOL     C2  324   2.668   6.345   6.927 -0.5550  0.7811 -0.8726
    2MOL     C3  325   2.741   6.453   6.988 -0.0543  0.9538  0.6553
    2MOL     C4  326   2.715   6.489   7.122 -0.3938 -0.4712 -0.3644
    2MOL     C5  327   2.609   6.424   7.195  0.1730  0.0685  0.8164
    2MOL     F6  328   2.577   6.486   7.312 -0.1267 -0.0195 -0.4521
    2MOL     C7  329   2.542   6.313   7.137  0.2755 -0.0073  0.3915
    2MOL     C8  330   2.566   6.276   7.002  0.3703 -0.2191 -0.5000
    2MOL     C9  331   2.739   6.142   6.770 -0.3586  0.0153  0.6875
    2MOL    H10  332   2.768   6.352   6.734  0.7206 -1.2060  1.3830
    2MOL    H11  333   2.818   6.504   6.931  0.8283 -1.6376 -0.5391
    2MOL    H12  334   2.773   6.572   7.160 -1.8833  0.4014  0.0594
    2MOL    H13  335   2.479   6.247   7.195 -1.3339  2.0035  1.0220
    2MOL    H14  336   2.512   6.187   6.976  0.9103 -0.3978 -1.0105
    2MOL    H15  337   2.846   6.137   6.752 -0.2913  0.5874  0.9076
    2MOL    H16  338   2.711   6.093   6.863  0.0305  0.2712  0.9382
    2MOL    H17  339   2.596   6.300   6.733 -1.1633  0.4061  2.1243
    2MOL    C18  340   2.670   6.071   6.655 -0.7199  0.3299  0.3397
    2MOL    C19  341   2.523   6.029   6.678  0.5815 -0.1308  0.1815
    2MOL    C20  342   2.424   6.106   6.609  0.0842  1.0854  0.2334
    2MOL    C21  343   2.286   6.082   6.639  0.3949  0.2862 -0.3042
    2MOL    C22  344   2.256   5.986   6.738 -0.1697 -0.6214 -0.1163
    2MOL    F23  345   2.129   5.965   6.783  0.4916  0.0548  0.2715
    2MOL    C24  346   2.355   5.907   6.800  0.1089  0.2175  0.6311
    2MOL    C25  347   2.487   5.930   6.766  0.1689  0.0324 -0.2216
    2MOL    C26  348   2.695   6.137   6.509  0.6629 -0.5750 -1.1057
    2MOL    H27  349   2.714   5.971   6.658 -0.6810  0.2697 -1.5946
    2MOL    H28  350   2.451   6.192   6.549  2.2327 -0.7092 -1.4640
    2MOL    H29  351   2.202   6.137   6.599 -0.9950 -0.7275  1.1806
    2MOL    H30  352   2.345   5.839   6.884  0.0428  0.6543  0.9771
    2MOL    H31  353   2.566   5.875   6.816  0.1236  1.3903  1.3723
    2MOL    H32  354   2.620   6.104   6.438 -0.2421  0.4002 -0.6223
    2MOL    H33  355   2.676   6.244   6.519 -1.6081 -1.2027  2.9119
    2MOL    C34  356   2.839   6.119   6.455 -0.1543  0.2509 -0.0654
    2MOL    C35  357   2.891   5.973   6.478  0.8103 -1.4432 -0.1838
    2MOL    C36  358   2.879   5.875   6.375 -0.4276  0.0453  0.2788
    2MOL    C37  359   2.923   5.745   6.392  0.2479  0.2925 -0.1937
    2MOL    C38  360   2.981   5.706   6.515  0.7897  0.5049 -0.0400
    2MOL    F39  361   3.010   5.577   6.549 -0.0640 -0.4604  0.3122
    2MOL    C40  362   3.012   5.806   6.613 -0.2912  0.2641 -0.7423
    2MOL    C41  363   2.967   5.938   6.592 -0.7218 -0.4409  0.5906
    2MOL    C42  364   2.856   6.169   6.307 -0.4683  0.1097  0.1153
    2MOL    H43  365   2.915   6.176   6.508 -1.2034  1.7706 -0.1609
    2MOL    H44  366   2.822   5.902   6.287 -0.9936  2.7990  1.4168
    2MOL    H45  367   2.912   5.671   6.314  0.2170 -2.4717  2.3536
    2MOL    H46  368   3.064   5.783   6.704 -0.0553 -0.1067 -0.9681
    2MOL    H47  369   2.993   6.006   6.672  2.2461 -1.0269  0.1894
    2MOL    H48  370   2.961   6.150   6.287 -0.6878 -1.0756  0.0539
    2MOL    H49  371   2.791   6.113   6.239 -1.0892  0.6487  0.2589
    2MOL    C50  372   2.821   6.319   6.286 -0.2068  0.5111 -0.6434
    2MOL    C51  373   2.914   6.416   6.366 -1.3269 -0.0904 -0.9212
    2MOL    C52  374   2.867   6.500   6.468 -0.3624  0.3254  0.3797
    2MOL    C53  375   2.951   6.582   6.543  0.2341 -0.9072  0.0130
    2MOL    C54  376   3.083   6.605   6.493 -0.3870 -0.3453 -0.2126
    2MOL    F55  377   3.170   6.698   6.553  0.2090 -0.2663 -0.2379
    2MOL    C56  378   3.125   6.524   6.389 -0.5253  0.3796 -0.5766
    2MOL    C57  379   3.046   6.425   6.338 -0.2790  0.1959  0.4328
    2MOL    C58  380   2.809   6.350   6.137  0.5554 -0.3704 -0.2120
    2MOL    H59  381   2.721   6.341   6.324  0.5807  0.8646  1.3236
    2MOL    H60  382   2.764   6.499   6.501 -0.4343  0.3291  0.1583
    2MOL    H61  383   2.919   6.647   6.622 -2.1458 -0.9816 -0.8619
    2MOL    H62  384   3.227   6.530   6.352 -0.3816  0.0411 -0.2391
    2MOL    H63  385   3.087   6.357   6.264 -2.0246 -1.5872  1.0474
    2MOL    H64  386   2.809   6.455   6.106 -0.1910 -0.7436 -1.5349
    2MOL    H65  387   2.895   6.319   6.078 -1.5559 -0.6606 -3.2890
    2MOL    C66  388   2.693   6.287   6.053  0.7911  0.2754 -0.8218
    2MOL    C67  389   2.556   6.335   6.108  0.6452 -0.3079  0.1041
    2MOL    C68  390   2.468   6.247   6.178 -0.7742  0.5504  0.7216
    2MOL    C69  391   2.346   6.298   6.230  0.9915 -0.4058 -0.7400
    2MOL    C70  392   2.301   6.431   6.202  0.2985 -0.1886 -0.4775
    2MOL    F71  393   2.175   6.467   6.236  0.5449  0.2878 -0.5605
    2MOL    C72  394   2.388   6.518   6.136 -0.6832  0.4297 -0.3489
    2MOL    C73  395   2.516   6.470   6.091 -0.1167  0.2841 -0.0817
    2MOL    C74  396   2.704   6.317   5.902 -0.7551 -0.2082  0.6867
    2MOL    H75  397   2.701   6.180   6.067  1.0514  0.3347 -0.5237
    2MOL    H76  398   2.495   6.143   6.190  0.4749  1.0904  2.9493
    2MOL    H77  399   2.281   6.228   6.281 -1.0038 -0.2691 -2.9806
    2MOL    H78  400   2.370   6.622   6.114 -0.5787  0.4313 -0.4294
    2MOL    H79  401   2.577   6.545   6.043  2.1142  1.6840  4.6004
    2MOL    H80  402   2.691   6.424   5.888  0.1272 -0.2275 -0.3536
    2MOL    H81  403   2.810   6.311   5.880 -1.0906  0.1358 -1.0790
    2MOL    C82  404   2.617   6.231   5.805  0.6679 -0.0038 -0.6985
    2MOL    C83  405   2.466   6.257   5.816 -0.0316  0.2027 -0.3666
    2MOL    C84  406   2.414   6.391   5.806 -0.5528 -0.7990 -0.2350
    2MOL    C85  407   2.281   6.414   5.818  0.1294  0.1785  0.4478
    2MOL    C86  408   2.189   6.305   5.834  0.4438 -0.1626  0.8180
    2MOL    F87  409   2.059   6.322   5.843  0.0719 -0.3285  0.5075
    2MOL    C88  410   2.235   6.176   5.834  0.3797 -0.0309  0.0119
    2MOL    C89  411   2.373   6.149   5.829 -0.5970 -0.3045  0.7579
    2MOL    C90  412   2.657   6.231   5.660 -0.6509  0.1183 -0.1435
    2MOL    H91  413   2.627   6.130   5.845 -2.0301 -0.2249 -0.4774
    2MOL    H92  414   2.482   6.473   5.796 -0.5276 -0.7663  0.2212
    2MOL    H93  415   2.245   6.515   5.803  0.8376  0.3465 -0.1115
    2MOL    H94  416   2.176   6.089   5.860 -0.4299  0.5328  0.0717
    2MOL    H95  417   2.412   6.050   5.849 -0.3588 -0.3473  0.0826
    2MOL    H96  418   2.609   6.140   5.623  1.3797 -1.5814  1.2155
    2MOL    H97  419   2.632   6.323   5.609 -2.9054 -0.4150 -0.0586
    2MOL    C98  420   2.805   6.197   5.617 -0.1523 -0.1571  0.4456
    2MOL    C99  421   2.868   6.096   5.707  0.1085  0.2102 -0.0369
    2MOL   C100  422   2.987   6.126   5.780 -0.0872 -0.2923 -0.2134
    2MOL   C101  423   3.039   6.023   5.863  0.1077 -0.0915  0.2088
    2MOL   C102  424   2.964   5.905   5.896  0.1276 -0.7627  0.0564
    2MOL   F103  425   3.013   5.817   5.987  0.2593  0.1019 -0.7928
    2MOL   C104  426   2.849   5.877   5.823  0.4166 -0.4725  0.0772
    2MOL   C105  427   2.804   5.971   5.725  0.1692  0.2772 -0.5133
    2MOL   C106  428   2.818   6.155   5.475  0.4462 -0.1788  0.1028
    2MOL   H107  429   2.858   6.291   5.635  2.3475 -1.6132  1.0067
    2MOL   H108  430   3.058   6.207   5.771  1.3022 -1.5460 -0.7765
    2MOL   H109  431   3.129   6.044   5.918  0.3728 -0.6627 -0.0098
    2MOL   H110  432   2.786   5.792   5.845 -1.3455  0.9958  0.8401
    2MOL   H111  433   2.712   5.963   5.668  0.1642 -1.4642 -0.2902
    2MOL   H112  434   2.905   6.090   5.467 -1.1928 -2.3897 -0.3430
    2MOL   H113  435   2.733   6.101   5.433 -0.2323  0.5351  0.5576
    2MOL   C114  436   2.846   6.277   5.382 -0.1188  0.0303 -0.1634
    2MOL   C115  437   2.985   6.341   5.405 -0.6385 -0.0713  0.0620
    2MOL   C116  438   2.991   6.475   5.444 -0.0414  0.4071 -0.0690
    2MOL   C117  439   3.112   6.531   5.470 -0.5896  0.3733 -0.2109
    2MOL   C118  440   3.232   6.457   5.451 -0.7992 -0.1908 -0.7781
    2MOL   F119  441   3.346   6.523   5.472 -0.3938 -0.1299  0.4564
    2MOL   C120  442   3.233   6.323   5.407  0.2991  0.2465  0.1809
    2MOL   C121  443   3.109   6.271   5.379 -0.1500 -0.3035 -0.1418
    2MOL   C122  444   2.817   6.241   5.236  0.5684 -0.4229  0.1747
    2MOL   H123  445   2.769   6.349   5.409 -0.0915  0.2292 -0.6175
    2MOL   H124  446   2.902   6.537   5.444 -0.8913 -0.7714 -0.9482
    2MOL   H125  447   3.118   6.635   5.500  2.2031 -0.3327  1.8367
    2MOL   H126  448   3.327   6.273   5.391  0.5058 -0.4799  3.3327
    2MOL   H127  449   3.082   6.173   5.340 -1.2481 -0.5393  1.1754
    2MOL   H128  450   2.854   6.328   5.180 -0.9768 -0.4412 -0.8930
    2MOL   H129  451   2.878   6.158   5.202  2.1368  1.8276 -2.8030
    2MOL   C130  452   2.677   6.217   5.193  0.1933 -0.3675  0.2464
    2MOL   C131  453   2.631   6.312   5.079  0.1881 -0.7922  0.3749
    2MOL   C132  454   2.707   6.317   4.958  0.5230  0.1301 -0.2403
    2MOL   C133  455   2.669   6.405   4.855 -0.3205 -0.1218 -0.3141
    2MOL   C134  456   2.562   6.491   4.873 -1.1663 -0.2715  0.1398
    2MOL   F135  457   2.536   6.578   4.775  0.2414 -0.3778  0.2290
    2MOL   C136  458   2.484   6.489   4.988  0.2187 -0.0818  0.3411
    2MOL   C137  459   2.513   6.391   5.090 -0.2544 -0.7608 -0.5204
    2MOL   C138  460   2.653   6.065   5.154  0.7482 -0.0613  0.4027
    2MOL   H139  461   2.605   6.235   5.273 -0.7847  1.4732 -1.0165
    2MOL   H140  462   2.786   6.243   4.959  1.2582  0.9028  1.4562
    2MOL   H141  463   2.745   6.409   4.778  0.9448 -1.5826  0.8312
    2MOL   H142  464   2.417   6.573   4.996  1.9949  1.4416 -0.2418
    2MOL   H143  465   2.447   6.384   5.175  2.3369  0.5670  1.6832
    2MOL   H144  466   2.691   6.043   5.054  0.6276 -0.1434  0.3751
    2MOL   H145  467   2.706   6.008   5.230  1.3531 -0.0944 -0.0374
    2MOL   C146  468   2.504   6.013   5.167  0.0145  0.4866 -0.3020
    2MOL   C147  469   2.403   6.073   5.064  0.2762  0.3004  0.0662
    2MOL   C148  470   2.438   6.088   4.925 -0.3205 -0.4589 -0.3676
    2MOL   C149  471   2.352   6.153   4.837 -0.6256 -0.2985 -0.0867
    2MOL   C150  472   2.225   6.201   4.878 -0.0882 -0.2940  0.3661
    2MOL   F151  473   2.136   6.245   4.791 -0.0398 -0.4722  0.2931
    2MOL   C152  474   2.188   6.187   5.014  0.3113 -0.3413  0.2871
    2MOL   C153  475   2.276   6.117   5.104  0.1503 -0.5819  0.7165
    2MOL   C154  476   2.498   5.858   5.166 -0.8385  0.3109 -0.1086
    2MOL   H155  477   2.465   6.043   5.265 -2.7757 -2.7029 -0.3748
    2MOL   H156  478   2.538   6.067   4.890 -1.0318 -1.5340 -1.7854
    2MOL   H157  479   2.386   6.168   4.736 -3.5545  3.5422 -0.6196
    2MOL   H158  480   2.089   6.222   5.041 -0.7039 -0.2692 -3.2757
    2MOL   H159  481   2.257   6.102   5.209 -2.5851  0.2324  0.3930
    2MOL   H160  482   2.400   5.824   5.132 -0.3523 -0.9151 -0.3018
    2MOL   H161  483   2.571   5.829   5.090 -1.1797 -1.4034  0.2065
    2MOL   C162  484   2.544   5.788   5.300  0.5747  0.1771  0.2214
    2MOL   C163  485   2.453   5.799   5.420  0.2795 -0.6891  0.4706
    2MOL   C164  486   2.317   5.826   5.408  0.4683  0.3369 -0.1828
    2MOL   C165  487   2.225   5.819   5.519 -0.1496  0.0623  0.0892
    2MOL   C166  488   2.274   5.798   5.650 -0.0216  0.1833 -0.4922
    2MOL   F167  489   2.195   5.805   5.761  0.1539 -0.0107  0.3999
    2MOL   C168  490   2.409   5.785   5.663  0.3265  0.3762 -0.1572
    2MOL   C169  491   2.496   5.778   5.556  0.1838 -0.0965  0.0790
    2MOL   C170  492   2.575   5.642   5.274 -0.5086 -0.3471 -0.2270
    2MOL   H171  493   2.635   5.837   5.336 -1.0386  3.4422  0.0175
    2MOL   H172  494   2.271   5.845   5.313  1.4965 -1.6006 -1.1037
    2MOL   H173  495   2.122   5.848   5.504 -1.2164 -1.7413  3.4612
    2MOL   H174  496   2.437   5.773   5.767 -0.7608  2.6181  0.4393
    2MOL   H175  497   2.601   5.763   5.575  0.4559 -1.2898 -2.0840
    2MOL   H176  498   2.584   5.589   5.369  0.0590 -0.2379 -0.2169
    2MOL   H177  499   2.489   5.601   5.221 -0.3025  0.0852 -0.8948
    2MOL   C178  500   2.700   5.615   5.191 -0.4858 -0.6312 -0.4535
    2MOL   C179  501   2.830   5.684   5.246  0.4385  0.0309  0.2370
    2MOL   C180  502   2.879   5.652   5.374  0.7123 -0.2689 -0.5836
    2MOL   C181  503   2.981   5.733   5.426  0.2112  0.6633 -0.3332
    2MOL   C182  504   3.042   5.833   5.349 -0.2529 -0.1663 -0.2676
    2MOL   F183  505   3.141   5.900   5.405 -0.4431 -0.2907  0.0219
    2MOL   C184  506   2.989   5.872   5.225 -0.1506 -0.1060 -0.6552
    2MOL   C185  507   2.883   5.792   5.175 -0.0288  0.2213 -0.1449
    2MOL   C186  508   2.720   5.457   5.155  0.5694  1.0772  0.6020
    2MOL   H187  509   2.686   5.653   5.090 -3.4150  0.1201  0.1920
    2MOL   H188  510   2.833   5.570   5.427  1.5759 -1.4630 -1.6588
    2MOL   H189  511   3.015   5.705   5.525 -1.0831 -2.1247 -0.6181
    2MOL   H190  512   3.033   5.954   5.170 -1.9504  0.1985 -1.6957
    2MOL   H191  513   2.840   5.813   5.078  0.2354  1.0858 -0.0732
    2MOL   H192  514   2.731   5.409   5.252  1.2683 -2.1412 -0.9921
    2MOL   H193  515   2.627   5.425   5.109  1.0630  1.8480 -0.9909
    2MOL   C194  516   2.846   5.426   5.068  0.1239 -0.0622 -0.6551
    2MOL   C195  517   2.928   5.307   5.123 -0.7882 -0.1110  0.6373
    2MOL   C196  518   3.048   5.328   5.195  0.0506  0.1808  0.2177
    2MOL   C197  519   3.110   5.222   5.266  0.0941 -0.4366 -0.2427
    2MOL   C198  520   3.057   5.091   5.256  0.2080  0.1264  0.0162
    2MOL   F199  521   3.122   4.988   5.315 -0.0479  0.4733  0.1887
    2MOL   C200  522   2.946   5.069   5.172 -0.4858  0.9215  0.8928
    2MOL   C201  523   2.878   5.176   5.106 -0.0775 -0.5268 -0.5686
    2MOL   C202  524   2.809   5.409   4.921  0.3624 -0.7873 -0.4227
    2MOL   H203  525   2.910   5.513   5.086  1.1404 -0.9482  0.1273
    2MOL   H204  526   3.096   5.425   5.195  0.8957 -0.2282 -0.3125
    2MOL   H205  527   3.204   5.240   5.317 -0.4539 -0.7583  0.8802
    2MOL   H206  528   2.913   4.966   5.172  2.0746 -0.0738 -4.0058
    2MOL   H207  529   2.782   5.152   5.062 -0.7922 -1.0114  1.2266
    2MOL   H208  530   2.751   5.321   4.892 -0.5607  0.7935 -3.5252
    2MOL   H209  531   2.743   5.491   4.895  0.2795 -0.5847  0.4002
    2MOL   C210  532   2.929   5.410   4.824  0.6138  0.1758  0.6879
    2MOL   C211  533   2.880   5.378   4.682 -0.0179 -0.8237  1.0146
    2MOL   C212  534   2.943   5.280   4.607  0.8899  0.4621  0.5978
    2MOL   C213  535   2.905   5.246   4.475 -0.0279 -0.7075  0.2517
    2MOL   C214  536   2.803   5.318   4.411 -0.3350 -0.2581 -0.0589
    2MOL   F215  537   2.763   5.290   4.284 -0.7593 -0.1474 -0.1317
    2MOL   C216  538   2.730   5.411   4.491 -0.1495 -0.2491  1.2116
    2MOL   C217  539   2.771   5.446   4.620  1.3003 -0.2757 -0.6007
    2MOL   C218  540   3.012   5.545   4.817 -0.3826  0.5518  0.7707
    2MOL   H219  541   2.994   5.327   4.851 -1.8143 -1.0352  3.0744
    2MOL   H220  542   3.015   5.216   4.655  0.2923 -0.5129  0.2152
    2MOL   H221  543   2.959   5.169   4.422 -0.0025  0.1460 -0.9796
    2MOL   H222  544   2.649   5.461   4.439 -0.0443 -0.1263  1.1660
    2MOL   H223  545   2.711   5.521   4.670  1.1967  1.3880 -3.1574
    2MOL   H224  546   3.041   5.573   4.715  0.8955 -0.7742  0.7559
    2MOL   H225  547   2.966   5.636   4.857 -1.7823  0.7795 -1.2739
    2MOL   C226  548   3.154   5.532   4.887 -0.2735  0.3126 -0.6020
    2MOL   C227  549   3.254   5.436   4.821 -0.0773  0.1551  0.8264
    2MOL   C228  550   3.278   5.302   4.865 -0.1544 -0.0903 -0.6665
    2MOL   C229  551   3.361   5.218   4.786 -0.5284 -0.2168 -0.0137
    2MOL   C230  552   3.407   5.259   4.661 -0.2465  0.2194 -0.1803
    2MOL   F231  553   3.452   5.160   4.578  0.6399  0.6482 -0.3717
    2MOL   C232  554   3.394   5.394   4.623  0.1566  0.6709  0.3272
    2MOL   C233  555   3.315   5.479   4.702  0.0085  0.2984  0.2944
    2MOL   C234  556   3.223   5.666   4.933 -0.3703 -0.3064 -0.0728
    2MOL   H235  557   3.135   5.482   4.982 -2.4695 -2.3583 -2.3991
    2MOL   H236  558   3.235   5.270   4.959  0.5990 -3.0652 -1.2535
    2MOL   H237  559   3.377   5.115   4.815  0.8069 -0.2422 -0.8157
    2MOL   H238  560   3.449   5.422   4.535  2.0024 -1.3466  0.7883
    2MOL   H239  561   3.289   5.578   4.666 -1.7200  0.1849  1.1617
    2MOL   H240  562   3.308   5.678   4.865 -0.7794  2.0690 -0.2068
    2MOL   H241  563   3.148   5.739   4.901 -2.3485 -2.0042  0.5781
    2MOL   C242  564   3.259   5.674   5.083 -0.0295 -0.3267 -0.4074
    2MOL   C243  565   3.361   5.572   5.136 -0.1262 -0.2782 -0.0619
    2MOL   C244  566   3.478   5.543   5.060  0.1162 -0.0402  0.2218
    2MOL   C245  567   3.575   5.468   5.124  0.4314  0.1204  0.0407
    2MOL   C246  568   3.572   5.432   5.257  0.2337  0.6270  0.6822
    2MOL   F247  569   3.678   5.375   5.311  0.2624  0.2730  0.0706
    2MOL   C248  570   3.455   5.458   5.330 -0.0498 -0.0675 -0.1842
    2MOL   C249  571   3.349   5.524   5.268 -0.0321  0.1052 -0.1396
    2MOL   C250  572   3.288   5.816   5.128  0.1255 -0.1822  0.3727
    2MOL   H251  573   3.173   5.642   5.142  0.6551 -1.1519  0.1536
    2MOL   H252  574   3.488   5.580   4.959  0.4136  1.6290  0.8364
    2MOL   H253  575   3.667   5.443   5.073 -0.1939  0.4832 -1.3110
    2MOL   H254  576   3.435   5.426   5.431 -0.5545 -0.4729 -0.4156
    2MOL   H255  577   3.261   5.556   5.322 -1.6738 -1.4116 -1.8223
    2MOL   H256  578   3.212   5.883   5.088  1.1373 -0.0583 -1.3870
    2MOL   H257  579   3.286   5.814   5.237 -0.4730  1.5867  0.4081
    2MOL   C258  580   3.422   5.869   5.087 -0.3656 -0.5242 -0.0424
    2MOL   C259  581   3.423   5.925   4.945  0.4844  0.0868 -0.1660
    2MOL   C260  582   3.328   6.018   4.897 -0.6265  0.1468 -0.5920
    2MOL   C261  583   3.323   6.049   4.764 -0.6456  0.3685 -0.8922
    2MOL   C262  584   3.418   5.996   4.678  0.2870  0.2809  0.2602
    2MOL   F263  585   3.412   6.038   4.549  0.1738 -0.2485 -0.2146
    2MOL   C264  586   3.521   5.911   4.718 -0.4158 -1.0434 -0.1152
    2MOL   C265  587   3.518   5.873   4.854 -0.6271  0.6972 -0.0720
    2MOL   C266  588   3.471   5.977   5.186 -0.1906 -0.1098 -0.4222
    2MOL   H267  589   3.494   5.788   5.100 -0.2104 -0.2821  0.6371
    2MOL   H268  590   3.254   6.065   4.960  2.0659  1.9402  1.3389
    2MOL   H269  591   3.260   6.132   4.738  0.7709  1.0531 -2.2354
    2MOL   H270  592   3.594   5.885   4.643 -0.9490 -0.7185 -0.7544
    2MOL   H271  593   3.596   5.804   4.885  0.6850  2.5708  0.9052
    2MOL   H272  594   3.544   6.037   5.132 -0.0518 -1.6146 -1.9419
    2MOL   H273  595   3.380   6.037   5.187 -0.3838 -0.4100  1.3399
    2MOL   C274  596   3.524   5.935   5.326 -0.0946  0.0352 -0.0851
    2MOL   C275  597   3.673   5.915   5.308 -0.9509  0.0546  0.6716
    2MOL   C276  598   3.755   6.029   5.303 -0.0478 -0.4701  0.5874
    2MOL   C277  599   3.900   6.017   5.311 -0.0668  0.5540  0.2453
    2MOL   C278  600   3.954   5.885   5.324  0.3064 -0.5451  0.3832
    2MOL   F279  601   4.090   5.874   5.333  0.0701  0.1591  0.5306
    2MOL   C280  602   3.870   5.778   5.320  0.0331  0.7072  0.1946
    2MOL   C281  603   3.730   5.789   5.309  0.0976 -0.1915  0.3777
    2MOL   C282  604   3.464   6.032   5.439 -0.5234 -0.8077 -0.0925
    2MOL   H283  605   3.478   5.837   5.346  0.1565  0.1410  1.0889
    2MOL   H284  606   3.715   6.130   5.307  1.0957  0.0622 -1.0433
    2MOL   H285  607   3.975   6.094   5.305  1.5327 -0.9716  0.3165
    2MOL   H286  608   3.904   5.675   5.328 -1.5460  0.2200  0.7232
    2MOL   H287  609   3.664   5.706   5.325 -0.7517  0.7087  1.5747
    2MOL   H288  610   3.511   6.127   5.414  0.3471  0.0644  4.3931
    2MOL   H289  611   3.357   6.051   5.427 -0.2612  1.3832  0.8083
    2MOL   C290  612   3.487   5.989   5.589 -0.1583  0.2722  0.4774
    2MOL   C291  613   3.476   5.838   5.610 -0.1174 -0.2463  0.1746
    2MOL   C292  614   3.350   5.787   5.657 -0.0347 -0.0615 -0.3829
    2MOL   C293  615   3.340   5.650   5.689 -0.0828 -0.3192 -0.6207
    2MOL   C294  616   3.452   5.567   5.675  0.0644  0.4109 -0.2461
    2MOL   F295  617   3.434   5.440   5.708 -0.5737 -0.1058  0.5354
    2MOL   C296  618   3.577   5.617   5.631  0.7361  0.4343  0.0506
    2MOL   C297  619   3.588   5.756   5.598 -0.3863 -0.0449 -0.5101
    2MOL   C298  620   3.617   6.052   5.646 -0.0378 -0.3628  0.2632
    2MOL   H299  621   3.403   6.041   5.634 -2.3202 -0.5516 -2.4272
    2MOL   H300  622   3.270   5.857   5.676  1.9618  2.1536  0.2339
    2MOL   H301  623   3.252   5.598   5.722 -0.6068  2.1218  2.0924
    2MOL   H302  624   3.658   5.547   5.641 -0.1386 -0.4922  0.8796
    2MOL   H303  625   3.688   5.790   5.576 -0.3977  2.0030  2.3562
    2MOL   H304  626   3.660   6.011   5.738 -0.7407 -1.0595  0.2829
    2MOL   H305  627   3.704   6.042   5.581  1.6361  0.0545  2.3829
    2MOL   C306  628   3.598   6.207   5.664 -0.2425 -0.1194  0.1461
    2MOL   C307  629   3.495   6.248   5.773  0.2481 -0.0389 -0.2763
    2MOL   C308  630   3.464   6.168   5.889  0.2440  0.0689  0.3003
    2MOL   C309  631   3.379   6.218   5.991 -0.5410 -0.0234 -0.4419
    2MOL   C310  632   3.315   6.349   5.978 -0.1005 -0.2027  0.0495
    2MOL   F311  633   3.233   6.396   6.068 -0.1199  0.3260  0.8423
    2MOL   C312  634   3.338   6.426   5.861  0.2921  0.3611 -0.1722
    2MOL   C313  635   3.429   6.372   5.764  0.3807  0.1237 -0.5215
    2MOL   C314  636   3.729   6.270   5.699 -0.0572  0.1400  0.7496
    2MOL   H315  637   3.560   6.250   5.572 -0.6284  2.2185  1.3566
    2MOL   H316  638   3.513   6.073   5.902 -1.3400 -0.7654  0.3376
    2MOL   H317  639   3.371   6.169   6.086 -1.1597 -2.6477 -1.8126
    2MOL   H318  640   3.289   6.521   5.844  2.3587  1.9673  2.4722
    2MOL   H319  641   3.442   6.435   5.677 -1.1005  2.1009  0.6382
    2MOL   H320  642   3.765   6.236   5.796 -0.9494  0.1515  1.0939
    2MOL   H321  643   3.799   6.251   5.618  0.3366  0.6070  0.9779
    2MOL   H322  644   3.723   6.379   5.701 -0.2231  0.1409  0.3503
    3MOL     C1  645   6.497   7.463   5.687 -0.0326  0.7668  0.3428
    3MOL     C2  646   6.563   7.581   5.747 -0.2809 -0.3399 -0.6787
    3MOL     C3  647   6.535   7.620   5.879 -0.1476  0.2515 -0.3879
    3MOL     C4  648   6.614   7.721   5.941 -0.0971 -0.3339  0.2028
    3MOL     C5  649   6.717   7.783   5.870 -0.1604 -0.4419  0.0804
    3MOL     F6  650   6.800   7.872   5.931  0.2446 -0.3779  0.0466
    3MOL     C7  651   6.746   7.738   5.737  0.0385  0.7936 -0.2760
    3MOL     C8  652   6.658   7.647   5.678 -0.3989  0.5609 -0.2587
    3MOL     C9  653   6.591   7.353   5.638  0.1071  0.4148 -0.0134
    3MOL    H10  654   6.449   7.501   5.597  0.3131 -2.0386 -1.0976
    3MOL    H11  655   6.458   7.562   5.928 -0.3039 -1.5961 -2.7310
    3MOL    H12  656   6.594   7.737   6.046  1.2244  0.4874  0.3415
    3MOL    H13  657   6.838   7.764   5.687  0.7763  1.2071  1.2461
    3MOL    H14  658   6.675   7.600   5.582  0.4115 -1.0187  0.6410
    3MOL    H15  659   6.638   7.391   5.548 -0.2655  1.3159  0.1635
    3MOL    H16  660   6.671   7.329   5.708 -0.7434 -0.6205  0.6312
    3MOL    H17  661   6.424   7.410   5.748  1.7832 -3.7193 -1.1447
    3MOL    C18  662   6.510   7.216   5.608  0.5369  0.8047  0.4295
    3MOL    C19  663   6.380   7.238   5.528 -0.6676  0.3077  0.7561
    3MOL    C20  664   6.252   7.214   5.586 -0.8144  0.6246 -0.4425
    3MOL    C21  665   6.133   7.236   5.521  0.0836 -0.1505  0.4949
    3MOL    C22  666   6.142   7.278   5.388  0.5051  0.5009  0.5836
    3MOL    F23  667   6.032   7.300   5.312  0.4620  0.0423 -0.0670
    3MOL    C24  668   6.264   7.306   5.323 -0.3012 -0.4480  0.3469
    3MOL    C25  669   6.386   7.296   5.393 -0.4750 -0.0123 -0.2009
    3MOL    C26  670   6.606   7.110   5.537 -0.0708 -0.3839 -0.0334
    3MOL    H27  671   6.481   7.181   5.707 -0.4403 -0.3716 -0.2564
    3MOL    H28  672   6.259   7.189   5.691  2.9010  2.2471 -0.2229
    3MOL    H29  673   6.038   7.230   5.573 -0.2698 -0.6526 -0.2093
    3MOL    H30  674   6.261   7.344   5.222  0.3639 -1.4594 -0.0564
    3MOL    H31  675   6.470   7.335   5.337 -0.0553 -2.5353 -1.4055
    3MOL    H32  676   6.545   7.028   5.501  1.0923 -0.1909 -2.5569
    3MOL    H33  677   6.651   7.153   5.448 -0.1410 -0.7598 -0.2497
    3MOL    C34  678   6.721   7.050   5.626 -0.2774 -0.1524 -0.3865
    3MOL    C35  679   6.679   7.014   5.768 -0.5076 -0.1235 -0.0665
    3MOL    C36  680   6.769   7.040   5.874 -0.4323  1.1228 -0.1618
    3MOL    C37  681   6.742   6.998   6.007  0.9891 -1.0697 -0.0658
    3MOL    C38  682   6.627   6.923   6.031  0.4048 -0.0297  0.0948
    3MOL    F39  683   6.605   6.879   6.156  0.2231 -0.2370 -0.2994
    3MOL    C40  684   6.543   6.890   5.926 -0.1938  0.4314 -0.7731
    3MOL    C41  685   6.561   6.947   5.796  0.0295 -1.1264 -0.0648
    3MOL    C42  686   6.789   6.919   5.563 -0.1860 -0.1481  0.2194
    3MOL    H43  687   6.799   7.127   5.630 -0.9966  0.6865 -2.1113
    3MOL    H44  688   6.862   7.095   5.863 -0.0608  0.9875  2.0909
    3MOL    H45  689   6.813   7.036   6.079  1.1889 -1.2465 -0.1676
    3MOL    H46  690   6.459   6.827   5.946  1.1700 -1.0178  0.5274
    3MOL    H47  691   6.486   6.926   5.721  1.3000 -1.7561 -1.1746
    3MOL    H48  692   6.847   6.884   5.648 -0.8624 -1.8769 -0.0111
    3MOL    H49  693   6.717   6.838   5.547 -1.1419  0.9223 -1.0009
    3MOL    C50  694   6.885   6.942   5.446  0.4369  0.6082 -0.5388
    3MOL    C51  695   7.014   7.011   5.482 -0.5705  0.6568  0.8787
    3MOL    C52  696   7.098   6.971   5.593 -0.3631  0.0619  0.6196
    3MOL    C53  697   7.221   7.038   5.617 -0.3440 -0.2572 -0.2564
    3MOL    C54  698   7.254   7.162   5.555 -0.3039 -0.7388  0.0266
    3MOL    F55  699   7.349   7.239   5.609 -0.3525 -0.1307  0.6007
    3MOL    C56  700   7.168   7.203   5.450 -1.0910  0.1623 -0.0686
    3MOL    C57  701   7.057   7.131   5.412  0.1899 -0.2087 -0.1876
    3MOL    C58  702   6.918   6.819   5.357  0.2328  0.0070  0.4768
    3MOL    H59  703   6.831   7.011   5.382 -1.1427 -0.7988 -0.7618
    3MOL    H60  704   7.083   6.885   5.657  1.7403 -0.9784 -0.2360
    3MOL    H61  705   7.285   7.010   5.699 -0.5950  0.8548  0.3308
    3MOL    H62  706   7.186   7.293   5.394  1.7214 -0.1614  0.2412
    3MOL    H63  707   6.991   7.159   5.331 -0.4608 -2.3814 -0.4561
    3MOL    H64  708   7.001   6.833   5.288  0.2225 -2.1629  0.0128
    3MOL    H65  709   6.970   6.745   5.418  1.2338  0.6207  0.3820
    3MOL    C66  710   6.806   6.752   5.270  0.4969  0.3095 -0.3812
    3MOL    C67  711   6.717   6.858   5.203  0.3984  0.4193  0.2955
    3MOL    C68  712   6.578   6.859   5.225  0.6531  0.2097 -0.2939
    3MOL    C69  713   6.496   6.961   5.164  0.2021 -0.5732  0.0494
    3MOL    C70  714   6.557   7.070   5.091  0.1749  0.2898  0.6140
    3MOL    F71  715   6.485   7.167   5.029  0.6170 -0.6010  0.3431
    3MOL    C72  716   6.695   7.062   5.063 -0.6413 -1.1462 -0.3854
    3MOL    C73  717   6.776   6.959   5.120  0.1795 -0.4649 -0.8055
    3MOL    C74  718   6.874   6.646   5.178 -0.1199  0.0258  0.9018
    3MOL    H75  719   6.748   6.685   5.335  2.0258 -2.3227 -1.6352
    3MOL    H76  720   6.532   6.777   5.278  0.3716 -0.7456 -1.9590
    3MOL    H77  721   6.389   6.969   5.177  0.0745 -0.7398 -0.9107
    3MOL    H78  722   6.733   7.132   4.991 -1.7803  0.3509  0.4422
    3MOL    H79  723   6.884   6.956   5.112  0.3698  0.0555  1.2448
    3MOL    H80  724   6.950   6.694   5.116 -0.6034  0.4010  0.5964
    3MOL    H81  725   6.936   6.574   5.233  0.9766 -0.3436 -0.7665
    3MOL    C82  726   6.789   6.555   5.084  0.3617  0.3295 -0.5489
    3MOL    C83  727   6.723   6.449   5.172  0.1213  0.1148 -0.2657
    3MOL    C84  728   6.801   6.339   5.212 -0.3785 -0.5920 -0.5698
    3MOL    C85  729   6.752   6.251   5.303  0.8633  0.3322  0.0721
    3MOL    C86  730   6.628   6.273   5.368  0.5619  0.0077 -0.2553
    3MOL    F87  731   6.573   6.182   5.454 -0.1015  0.1147  0.3319
    3MOL    C88  732   6.549   6.378   5.329  0.0543 -0.2339 -0.1528
    3MOL    C89  733   6.596   6.465   5.228  1.3156 -0.2621  0.6535
    3MOL    C90  734   6.696   6.631   4.988 -0.0590 -0.3638  0.3887
    3MOL    H91  735   6.870   6.507   5.029  0.7400 -1.0164  1.1256
    3MOL    H92  736   6.897   6.323   5.168  1.5472  3.9916  1.5613
    3MOL    H93  737   6.808   6.163   5.330  3.6575  1.7540 -0.8918
    3MOL    H94  738   6.454   6.397   5.378 -0.7630  1.1172 -2.1668
    3MOL    H95  739   6.527   6.538   5.188  1.0661 -1.3938 -1.0438
    3MOL    H96  740   6.624   6.693   5.042 -1.2525  1.0267 -2.6794
    3MOL    H97  741   6.765   6.697   4.937  3.2485 -3.0184  1.2571
    3MOL    C98  742   6.619   6.541   4.887  0.1734 -0.1418  0.1223
    3MOL    C99  743   6.471   6.587   4.886  0.0019 -0.2426 -0.0905
    3MOL   C100  744   6.364   6.500   4.903  0.1412 -0.1492  0.4312
    3MOL   C101  745   6.236   6.548   4.914  0.5088  0.2844  0.1131
    3MOL   C102  746   6.209   6.688   4.904  0.0638  0.1877 -0.4654
    3MOL   F103  747   6.081   6.726   4.914 -0.0204 -0.0073 -0.9634
    3MOL   C104  748   6.311   6.775   4.880 -0.0431 -0.3273  0.3245
    3MOL   C105  749   6.445   6.724   4.873 -0.3578 -0.1629 -0.5454
    3MOL   C106  750   6.674   6.538   4.741 -0.8109  0.8683 -0.1152
    3MOL   H107  751   6.633   6.439   4.921 -0.0201 -0.6877 -1.3879
    3MOL   H108  752   6.385   6.396   4.924  0.9466 -0.4588 -1.8635
    3MOL   H109  753   6.144   6.496   4.934 -0.2270  0.9971 -1.3717
    3MOL   H110  754   6.294   6.881   4.869 -1.4255 -0.5277  0.4068
    3MOL   H111  755   6.531   6.788   4.858  0.7877 -0.8050  2.9553
    3MOL   H112  756   6.694   6.640   4.708  2.4603  1.1002  2.2986
    3MOL   H113  757   6.772   6.491   4.747 -1.8791 -1.5372 -1.1956
    3MOL   C114  758   6.591   6.454   4.642 -0.0117 -0.0329  0.6073
    3MOL   C115  759   6.528   6.539   4.536 -0.9930 -0.1371 -0.4022
    3MOL   C116  760   6.610   6.611   4.443 -0.1214  0.3592 -0.7072
    3MOL   C117  761   6.549   6.691   4.348  0.3912  0.0681 -0.3944
    3MOL   C118  762   6.408   6.714   4.352  0.6378 -0.3191  0.8210
    3MOL   F119  763   6.353   6.802   4.264 -0.2378  0.2468 -0.1193
    3MOL   C120  764   6.327   6.648   4.448  0.9783 -0.0250 -0.0686
    3MOL   C121  765   6.388   6.559   4.540 -0.0675 -0.1557  0.1815
    3MOL   C122  766   6.674   6.337   4.574  0.4607  0.2290 -0.2958
    3MOL   H123  767   6.510   6.407   4.698  1.2939 -1.5485  1.2430
    3MOL   H124  768   6.718   6.603   4.440 -0.0909  0.5604 -0.0920
    3MOL   H125  769   6.618   6.747   4.286  0.3923  2.8079  1.9815
    3MOL   H126  770   6.220   6.660   4.441  1.0544  0.8610  0.2491
    3MOL   H127  771   6.338   6.498   4.615  0.3389 -2.0322 -1.0445
    3MOL   H128  772   6.604   6.295   4.502 -0.0550  0.6982 -0.0704
    3MOL   H129  773   6.744   6.385   4.506 -0.4911  1.1838 -0.6138
    3MOL   C130  774   6.744   6.212   4.647  0.0092  0.1187  0.5728
    3MOL   C131  775   6.651   6.153   4.746 -0.5403 -0.1939 -0.0380
    3MOL   C132  776   6.513   6.131   4.726  0.0318  0.1044  0.4236
    3MOL   C133  777   6.429   6.082   4.831 -0.7194  0.0987 -1.0175
    3MOL   C134  778   6.479   6.069   4.960  0.2229  0.0325  0.6613
    3MOL   F135  779   6.399   6.039   5.063  0.2064  0.1839  0.4163
    3MOL   C136  780   6.616   6.087   4.979 -0.5987 -0.3984  0.2410
    3MOL   C137  781   6.703   6.125   4.876 -0.1309 -0.3571 -0.0949
    3MOL   C138  782   6.783   6.100   4.539 -0.2568 -1.0236 -0.0676
    3MOL   H139  783   6.838   6.251   4.686 -0.7208  2.2989  0.2363
    3MOL   H140  784   6.468   6.160   4.632 -0.3331  3.6607  1.6137
    3MOL   H141  785   6.324   6.061   4.817 -0.5728 -1.1364 -0.3294
    3MOL   H142  786   6.659   6.070   5.077  4.1473 -0.2613 -1.7224
    3MOL   H143  787   6.808   6.135   4.898 -0.1111  1.1961 -0.7878
    3MOL   H144  788   6.835   6.019   4.589  3.6431  0.5575 -1.3786
    3MOL   H145  789   6.691   6.065   4.492 -2.3254 -0.7079  3.5586
    3MOL   C146  790   6.877   6.152   4.423 -0.0749 -0.5021 -0.3027
    3MOL   C147  791   6.997   6.234   4.478  0.3257 -0.2191  0.1799
    3MOL   C148  792   7.018   6.363   4.426 -0.3185 -0.0642  0.3110
    3MOL   C149  793   7.131   6.437   4.456 -0.2976  0.2693  0.4403
    3MOL   C150  794   7.221   6.383   4.555 -0.2423  0.0015 -0.1526
    3MOL   F151  795   7.333   6.439   4.601  0.0824 -0.7227 -0.1381
    3MOL   C152  796   7.204   6.252   4.605  0.4371  0.9779  0.0769
    3MOL   C153  797   7.091   6.180   4.565 -0.2739  0.7843 -0.2381
    3MOL   C154  798   6.911   6.038   4.324 -0.4224  0.4082  0.1397
    3MOL   H155  799   6.811   6.219   4.369  1.6504  1.9791  0.5707
    3MOL   H156  800   6.946   6.405   4.358 -0.8140 -0.1413  0.7829
    3MOL   H157  801   7.142   6.538   4.420  2.3216 -0.5185 -1.1742
    3MOL   H158  802   7.272   6.207   4.676  0.0770  0.2959 -0.0065
    3MOL   H159  803   7.083   6.077   4.598  1.0497  0.6361 -0.3714
    3MOL   H160  804   6.988   5.976   4.367  0.3253  1.9446  1.0529
    3MOL   H161  805   6.828   5.972   4.299 -0.8386  0.8399  0.3726
    3MOL   C162  806   6.984   6.084   4.191  0.3906  0.0391  1.0683
    3MOL   C163  807   7.014   5.956   4.114 -0.5294 -0.0321  0.2013
    3MOL   C164  808   7.138   5.897   4.116 -0.6257  0.7426  0.3096
    3MOL   C165  809   7.166   5.776   4.047 -0.0721 -0.0509 -0.9554
    3MOL   C166  810   7.062   5.711   3.974 -0.5170 -0.0463  0.4845
    3MOL   F167  811   7.077   5.589   3.926  0.4427  0.1456  0.1181
    3MOL   C168  812   6.938   5.776   3.966  0.4581  0.1497 -0.1990
    3MOL   C169  813   6.918   5.895   4.034  0.1031 -0.9621  0.0485
    3MOL   C170  814   6.906   6.192   4.100  1.0402  0.3228  0.4331
    3MOL   H171  815   7.075   6.139   4.217  0.6838  0.7391 -1.3486
    3MOL   H172  816   7.216   5.943   4.175 -0.6795 -0.1079  1.0558
    3MOL   H173  817   7.257   5.720   4.056 -0.6695 -0.7389  1.1107
    3MOL   H174  818   6.858   5.729   3.910  0.0878 -1.2189  1.4447
    3MOL   H175  819   6.821   5.942   4.038 -0.3281 -1.9518  1.4170
    3MOL   H176  820   6.813   6.142   4.074  1.9684 -0.3532 -1.6700
    3MOL   H177  821   6.890   6.273   4.172  0.7013 -1.0260  1.9133
    3MOL   C178  822   6.975   6.254   3.969  0.4010  0.2350  0.5753
    3MOL   C179  823   6.872   6.275   3.863 -0.3898 -0.4379  0.4623
    3MOL   C180  824   6.801   6.394   3.859 -0.2622  0.4643  0.5550
    3MOL   C181  825   6.691   6.405   3.770  0.5354  0.2422  0.5326
    3MOL   C182  826   6.657   6.303   3.675  0.4578  0.1311 -0.2472
    3MOL   F183  827   6.546   6.312   3.596 -0.2113 -0.6357 -0.1281
    3MOL   C184  828   6.735   6.186   3.680  0.1838  0.3377 -0.1783
    3MOL   C185  829   6.835   6.168   3.774 -0.1140 -0.5077 -0.2669
    3MOL   C186  830   7.066   6.383   3.987 -0.0906  0.2300 -0.1228
    3MOL   H187  831   7.044   6.181   3.927 -0.1218 -1.2994  2.2896
    3MOL   H188  832   6.806   6.481   3.923  1.4922  0.2643  0.7176
    3MOL   H189  833   6.637   6.498   3.764 -0.3261 -0.3495 -1.5139
    3MOL   H190  834   6.713   6.105   3.612  0.1005 -1.7475  2.2432
    3MOL   H191  835   6.881   6.071   3.761  0.6199 -0.1521 -0.3633
    3MOL   H192  836   7.007   6.460   4.036  0.7149  0.8187 -0.0761
    3MOL   H193  837   7.137   6.355   4.065 -1.5047 -2.3216  0.3125
    3MOL   C194  838   7.154   6.437   3.867  0.5980  1.3951 -0.9562
    3MOL   C195  839   7.087   6.534   3.778  0.8147  0.1457  0.3375
    3MOL   C196  840   7.071   6.667   3.829 -0.4546  0.0314  0.3894
    3MOL   C197  841   7.018   6.762   3.737 -0.3177  1.5260  0.1628
    3MOL   C198  842   6.979   6.718   3.610  0.5479  0.5107  0.4894
    3MOL   F199  843   6.923   6.806   3.519  0.1135 -0.1515 -0.3099
    3MOL   C200  844   6.983   6.582   3.571 -0.1275 -0.2978 -0.4146
    3MOL   C201  845   7.052   6.490   3.649 -0.3978 -0.2664 -0.6995
    3MOL   C202  846   7.304   6.470   3.901 -0.1318 -0.3680 -0.4540
    3MOL   H203  847   7.162   6.350   3.802  1.0435  1.8482 -1.5158
    3MOL   H204  848   7.089   6.692   3.933 -0.8859 -2.7287  1.1892
    3MOL   H205  849   6.989   6.864   3.753 -2.5862  1.1254 -1.0654
    3MOL   H206  850   6.951   6.543   3.476  0.2767  1.8370 -1.4321
    3MOL   H207  851   7.060   6.388   3.616 -0.6100 -0.7656  0.7636
    3MOL   H208  852   7.299   6.556   3.967 -0.8239 -0.2248 -0.6949
    3MOL   H209  853   7.357   6.393   3.958  0.5531 -0.2625 -0.9482
    3MOL   C210  854   7.390   6.510   3.779 -0.8011  0.3826 -0.1592
    3MOL   C211  855   7.508   6.590   3.821 -0.2453  0.2011 -0.2757
    3MOL   C212  856   7.539   6.714   3.754  0.3437 -0.3890 -0.3805
    3MOL   C213  857   7.657   6.787   3.788 -0.1175 -0.0669 -0.2247
    3MOL   C214  858   7.736   6.741   3.891  0.1172 -0.1109 -0.0401
    3MOL   F215  859   7.849   6.804   3.917  0.1765 -0.1470  0.1840
    3MOL   C216  860   7.703   6.621   3.960  0.1623 -0.1498 -0.3319
    3MOL   C217  861   7.591   6.541   3.923  0.8586 -0.7416 -0.4451
    3MOL   C218  862   7.441   6.386   3.704 -0.2039 -0.2575  0.5963
    3MOL   H219  863   7.334   6.575   3.712 -0.1287 -0.3371 -1.4454
    3MOL   H220  864   7.471   6.747   3.677 -0.5083  2.3269  1.4379
    3MOL   H221  865   7.685   6.872   3.729  1.1170  0.9916  1.8314
    3MOL   H222  866   7.760   6.592   4.047 -0.0615  1.5003  0.3781
    3MOL   H223  867   7.563   6.459   3.988 -0.6062  0.7415  0.8378
    3MOL   H224  868   7.503   6.325   3.769  0.5694  1.9049  1.9446
    3MOL   H225  869   7.358   6.323   3.671  1.2775 -1.3587 -1.1582
    3MOL   C226  870   7.529   6.422   3.576 -0.8773  0.5341  0.5494
    3MOL   C227  871   7.602   6.300   3.517 -0.8816 -0.7926  0.7797
    3MOL   C228  872   7.540   6.172   3.510  0.2507  0.0790  0.7722
    3MOL   C229  873   7.625   6.066   3.460  0.8668 -0.2379 -0.0193
    3MOL   C230  874   7.754   6.089   3.412  0.2744  0.4537 -0.1944
    3MOL   F231  875   7.819   5.984   3.359 -0.4919 -0.3694 -0.1853
    3MOL   C232  876   7.810   6.213   3.424  0.3007 -0.4944 -0.0970
    3MOL   C233  877   7.735   6.324   3.475  0.3453  0.4462  0.9794
    3MOL   C234  878   7.440   6.493   3.462 -0.9182  0.1933 -0.0937
    3MOL   H235  879   7.608   6.487   3.613  0.0997  0.2221 -0.9262
    3MOL   H236  880   7.435   6.154   3.528 -0.3799  2.0227 -0.8397
    3MOL   H237  881   7.581   5.968   3.464 -0.0240  0.0564 -2.2067
    3MOL   H238  882   7.911   6.236   3.395  0.0927  0.0308 -0.4165
    3MOL   H239  883   7.786   6.418   3.491 -2.1039  1.6661  1.9036
    3MOL   H240  884   7.378   6.412   3.426  2.2043 -2.1441 -0.4514
    3MOL   H241  885   7.376   6.571   3.505 -0.3359 -0.2742  1.6559
    3MOL   C242  886   7.523   6.565   3.355 -0.0450  0.3706  0.3104
    3MOL   C243  887   7.433   6.609   3.239 -0.5800  0.0664 -0.1045
    3MOL   C244  888   7.421   6.529   3.127  0.1884  0.3145 -0.0137
    3MOL   C245  889   7.357   6.584   3.007  0.5224 -0.2385 -0.6373
    3MOL   C246  890   7.294   6.713   3.012  0.1762  0.3002  0.4683
    3MOL   F247  891   7.237   6.766   2.899  0.7890  0.2848  0.2203
    3MOL   C248  892   7.296   6.788   3.131  0.0125 -0.6453  0.2746
    3MOL   C249  893   7.361   6.732   3.243 -0.0370  0.9158 -0.2098
    3MOL   C250  894   7.619   6.680   3.399 -0.5288 -0.8245  0.5116
    3MOL   H251  895   7.584   6.490   3.306  0.2118  1.1902 -0.6364
    3MOL   H252  896   7.459   6.427   3.126  1.0433  0.6323 -0.3591
    3MOL   H253  897   7.362   6.526   2.916 -1.0748 -2.6466  0.7720
    3MOL   H254  898   7.250   6.884   3.143 -0.9111 -0.9258 -0.9273
    3MOL   H255  899   7.361   6.784   3.337  1.5019  0.2008  0.2009
    3MOL   H256  900   7.560   6.756   3.450  2.0672  1.1073  0.7449
    3MOL   H257  901   7.693   6.646   3.472  0.1223 -0.9002 -0.1811
    3MOL   C258  902   7.706   6.748   3.291 -0.6783  1.2321  0.3475
    3MOL   C259  903   7.746   6.887   3.334 -0.1083 -0.1882  0.5138
    3MOL   C260  904   7.840   6.899   3.437 -0.2402 -0.3922 -0.3491
    3MOL   C261  905   7.883   7.031   3.477 -0.1494  0.1820  0.5432
    3MOL   C262  906   7.830   7.145   3.401  0.4416 -0.3804 -0.4938
    3MOL   F263  907   7.870   7.275   3.424 -0.2719  0.1737  0.1522
    3MOL   C264  908   7.727   7.123   3.308 -0.3891 -0.2169  0.3569
    3MOL   C265  909   7.685   6.995   3.268 -0.2873 -0.3197 -0.4638
    3MOL   C266  910   7.820   6.650   3.245 -0.5208  0.5962  0.2487
    3MOL   H267  911   7.642   6.760   3.204  2.4629  0.5494 -2.1397
    3MOL   H268  912   7.893   6.818   3.486 -0.5001  0.5359  1.4867
    3MOL   H269  913   7.966   7.054   3.543  1.1349  0.2766 -1.0838
    3MOL   H270  914   7.680   7.202   3.253 -2.0130 -2.0145 -0.9118
    3MOL   H271  915   7.609   6.993   3.191 -0.2478  0.8059 -0.5385
    3MOL   H272  916   7.896   6.638   3.322 -2.7172 -0.9829  2.2084
    3MOL   H273  917   7.772   6.554   3.223 -0.3986  0.7742 -0.8627
    3MOL   C274  918   7.898   6.697   3.115  0.8076 -0.0851 -0.2440
    3MOL   C275  919   8.030   6.623   3.104 -0.7708 -0.3363 -0.4898
    3MOL   C276  920   8.031   6.483   3.103 -0.2046  0.3056  0.1610
    3MOL   C277  921   8.149   6.407   3.094 -0.3297  0.6136  0.3336
    3MOL   C278  922   0.037   6.472   3.078 -0.3890 -0.4535  0.0341
    3MOL   F279  923   0.144   6.403   3.044 -0.1705  0.5311 -0.2135
    3MOL   C280  924   0.039   6.614   3.084  0.3616 -0.0931  0.2423
    3MOL   C281  925   8.153   6.686   3.110  0.1072 -0.5304 -0.1480
    3MOL   C282  926   7.820   6.681   2.987  0.0479  0.0915  0.7119
    3MOL   H283  927   7.910   6.804   3.134 -0.2470  0.3565 -1.9848
    3MOL   H284  928   7.937   6.430   3.105  0.2938 -0.5715  0.8002
    3MOL   H285  929   8.136   6.300   3.084  1.1535  0.4908 -0.3620
    3MOL   H286  930   0.124   6.679   3.065  0.6596 -0.0524  1.6643
    3MOL   H287  931   8.158   6.791   3.135 -2.4607 -0.7960  1.7378
    3MOL   H288  932   7.869   6.600   2.934  0.2995  2.3318 -2.7200
    3MOL   H289  933   7.716   6.653   3.007 -0.4446  0.8916 -0.6291
    3MOL   C290  934   7.816   6.800   2.890 -0.5195 -0.5056 -0.3094
    3MOL   C291  935   7.954   6.866   2.864  0.4139  0.2878 -0.5771
    3MOL   C292  936   8.055   6.784   2.801 -0.3308 -0.3509 -0.0834
    3MOL   C293  937   8.180   6.841   2.789 -0.0941  0.0769  0.6272
    3MOL   C294  938   8.217   6.970   2.832 -0.0727  0.1684 -0.3871
    3MOL   F295  939   0.113   7.013   2.812  0.7177 -0.1907 -0.3637
    3MOL   C296  940   8.111   7.050   2.882 -0.4752 -0.0008 -0.5735
    3MOL   C297  941   7.984   7.002   2.898  0.5274 -0.1263 -0.1457
    3MOL   C298  942   7.743   6.756   2.764 -0.5960 -0.5211 -0.4634
    3MOL   H299  943   7.747   6.873   2.932 -1.2670 -1.2953 -0.1636
    3MOL   H300  944   8.025   6.686   2.768 -0.5071 -1.1306  2.3382
    3MOL   H301  945   0.016   6.773   2.744 -0.5496 -0.0940  0.1615
    3MOL   H302  946   8.144   7.145   2.923  1.5837 -2.2721  3.3242
    3MOL   H303  947   7.905   7.060   2.944 -0.4934 -2.0426  0.5511
    3MOL   H304  948   7.803   6.671   2.732  1.2991  1.0103 -1.0943
    3MOL   H305  949   7.647   6.712   2.792 -0.2151 -0.1552  1.4917
    3MOL   C306  950   7.733   6.851   2.635 -0.8839 -0.0081  0.2209
    3MOL   C307  951   7.786   6.775   2.508  0.2247  0.1020 -0.5379
    3MOL   C308  952   7.687   6.712   2.422 -0.0433 -0.4034  0.6569
    3MOL   C309  953   7.720   6.647   2.305 -0.1090  0.3580  1.0669
    3MOL   C310  954   7.853   6.653   2.259 -0.2597  0.7270  0.5071
    3MOL   F311  955   7.874   6.606   2.139 -0.5207  0.1923 -0.3472
    3MOL   C312  956   7.951   6.722   2.342 -0.2434  0.2611 -0.2090
    3MOL   C313  957   7.919   6.777   2.468  0.5284 -0.4719 -1.1024
    3MOL   C314  958   7.595   6.905   2.621  0.2095  0.1414  0.1821
    3MOL   H315  959   7.804   6.933   2.650 -0.8221  0.0794 -0.5177
    3MOL   H316  960   7.582   6.711   2.445 -0.2719  1.8478 -0.1412
    3MOL   H317  961   7.642   6.608   2.241  0.3111 -1.0086  1.3752
    3MOL   H318  962   8.053   6.722   2.304  0.3145 -2.7389  1.1558
    3MOL   H319  963   7.984   6.837   2.530 -0.9325  1.5692 -1.4818
    3MOL   H320  964   7.595   7.001   2.569  1.2164  0.8572  1.4600
    3MOL   H321  965   7.520   6.837   2.582 -0.7651  1.9846 -1.2183
    3MOL   H322  966   7.563   6.924   2.724  0.8885  0.0769  0.4116
    4MOL     C1  967   6.675   3.236   5.806  0.1829 -0.1732  0.5050
    4MOL     C2  968   6.665   3.108   5.724  0.2777 -0.1530  0.3015
    4MOL     C3  969   6.618   3.122   5.591  0.1321 -0.5045  0.5103
    4MOL     C4  970   6.605   3.006   5.508  0.4953 -0.5691  0.2480
    4MOL     C5  971   6.632   2.880   5.563 -0.0675 -0.1131  0.0603
    4MOL     F6  972   6.635   2.774   5.475  0.0934 -0.6370 -0.0253
    4MOL     C7  973   6.684   2.865   5.691 -0.1815 -0.2819 -0.7150
    4MOL     C8  974   6.705   2.980   5.777  0.8909 -0.6699  0.3320
    4MOL     C9  975   6.548   3.277   5.885  0.4301  0.7978 -0.0175
    4MOL    H10  976   6.718   3.312   5.742  3.3011 -0.2258  2.4416
    4MOL    H11  977   6.603   3.220   5.549  3.1331 -0.8227 -1.4389
    4MOL    H12  978   6.575   3.020   5.406  0.7280  0.8410  0.3645
    4MOL    H13  979   6.702   2.764   5.725 -1.1448  0.5132  2.3010
    4MOL    H14  980   6.745   2.961   5.876 -1.6032 -0.0201  1.4901
    4MOL    H15  981   6.473   3.301   5.809 -0.8476 -2.0282  0.2823
    4MOL    H16  982   6.498   3.194   5.936 -0.1248  0.7765 -0.5903
    4MOL    H17  983   6.756   3.214   5.875  0.5944  0.8720  0.3542
    4MOL    C18  984   6.570   3.404   5.973 -0.6979  0.2666 -0.4401
    4MOL    C19  985   6.607   3.529   5.888  0.7916 -0.0134  0.2643
    4MOL    C20  986   6.721   3.602   5.918  0.6069  0.4401 -0.4310
    4MOL    C21  987   6.737   3.728   5.861 -0.3306  0.5147  0.6717
    4MOL    C22  988   6.650   3.785   5.766  0.5519 -1.6083  0.0271
    4MOL    F23  989   6.669   3.912   5.714  0.0823  0.6359  0.0402
    4MOL    C24  990   6.546   3.705   5.724 -0.3672 -0.1793  0.1444
    4MOL    C25  991   6.523   3.572   5.782  0.4347  0.2676 -0.6007
    4MOL    C26  992   6.444   3.431   6.056  0.5112  0.3682  0.0125
    4MOL    H27  993   6.650   3.379   6.042  1.0604  2.6112 -1.5417
    4MOL    H28  994   6.782   3.561   5.998  0.5488  1.7989  0.3395
    4MOL    H29  995   6.820   3.791   5.889  0.5679  0.4065 -1.6767
    4MOL    H30  996   6.479   3.731   5.643 -1.0896  0.2081  0.8641
    4MOL    H31  997   6.443   3.509   5.746  1.2785 -0.6431 -0.9208
    4MOL    H32  998   6.440   3.537   6.079  0.1915  0.3465  0.0619
    4MOL    H33  999   6.360   3.428   5.986  0.3937 -0.4097  0.1780
    4MOL    C34 1000   6.419   3.345   6.174 -0.7052 -0.3770 -0.4467
    4MOL    C35 1001   6.547   3.305   6.247 -0.2534 -0.1932 -0.7460
    4MOL    C36 1002   6.605   3.179   6.226 -0.0632 -0.0213  0.5090
    4MOL    C37 1003   6.723   3.138   6.295  0.2436  0.2717  0.0570
    4MOL    C38 1004   6.785   3.216   6.390 -0.9800 -0.2869  0.1428
    4MOL    F39 1005   6.897   3.178   6.452 -1.0271  0.2683 -0.2107
    4MOL    C40 1006   6.739   3.351   6.398 -0.9876  0.0032 -0.0874
    4MOL    C41 1007   6.622   3.392   6.328 -0.3932 -0.5226 -0.1171
    4MOL    C42 1008   6.319   3.423   6.269 -0.0733 -0.5504  0.0779
    4MOL    H43 1009   6.364   3.254   6.147  3.1153 -2.7268 -0.5713
    4MOL    H44 1010   6.559   3.117   6.150 -0.5800  2.6795 -1.4882
    4MOL    H45 1011   6.772   3.046   6.265 -0.0412  0.2363 -0.3183
    4MOL    H46 1012   6.796   3.417   6.461 -1.1099  2.4989 -2.5231
    4MOL    H47 1013   6.578   3.488   6.350 -1.8605 -1.6452  1.9534
    4MOL    H48 1014   6.311   3.356   6.355  1.8017  0.9283  1.4245
    4MOL    H49 1015   6.366   3.514   6.306  2.1320 -1.9559  0.8241
    4MOL    C50 1016   6.183   3.439   6.208  0.6661  0.7104 -0.0175
    4MOL    C51 1017   6.092   3.323   6.247 -0.6206  0.2158  0.1089
    4MOL    C52 1018   6.044   3.226   6.152  0.4604 -0.1850  0.1662
    4MOL    C53 1019   5.964   3.119   6.193 -0.8891  0.9707  0.1878
    4MOL    C54 1020   5.923   3.109   6.325 -0.0602  0.0571  0.1377
    4MOL    F55 1021   5.831   3.014   6.352 -0.1541 -0.3850 -0.2189
    4MOL    C56 1022   5.973   3.200   6.422  0.1294  0.0881  0.7444
    4MOL    C57 1023   6.057   3.306   6.381  0.1203  0.0254 -0.1041
    4MOL    C58 1024   6.122   3.570   6.242 -0.2463 -0.2773  0.3021
    4MOL    H59 1025   6.184   3.437   6.099  2.4568 -1.0880 -0.0025
    4MOL    H60 1026   6.072   3.231   6.048  1.0546 -1.0123  0.2816
    4MOL    H61 1027   5.933   3.038   6.129  0.0801 -0.1486  1.1056
    4MOL    H62 1028   5.952   3.188   6.527  1.1803  0.0895  0.9594
    4MOL    H63 1029   6.095   3.380   6.449  1.1813  2.9229 -3.6933
    4MOL    H64 1030   6.018   3.573   6.210 -0.1128 -0.0852 -0.1152
    4MOL    H65 1031   6.124   3.570   6.351  0.9643  0.8922  0.2908
    4MOL    C66 1032   6.196   3.694   6.190 -0.3196 -0.1456  0.5234
    4MOL    C67 1033   6.134   3.721   6.056 -0.5281  0.1307  0.4324
    4MOL    C68 1034   6.003   3.776   6.031  0.0081  0.3066  0.0552
    4MOL    C69 1035   5.956   3.797   5.902 -0.2556 -0.5373  0.3050
    4MOL    C70 1036   6.041   3.779   5.790  0.8554  0.1102  0.1263
    4MOL    F71 1037   6.001   3.814   5.665  0.3217 -0.2098 -0.1779
    4MOL    C72 1038   6.175   3.735   5.813 -0.4108  0.7352 -0.0468
    4MOL    C73 1039   6.219   3.701   5.946  0.1987 -0.0517 -0.7426
    4MOL    C74 1040   6.164   3.820   6.273 -0.1384  0.7345  0.2551
    4MOL    H75 1041   6.301   3.673   6.170 -1.0156 -3.2367 -0.0961
    4MOL    H76 1042   5.934   3.791   6.113 -0.1875 -0.2519 -0.0011
    4MOL    H77 1043   5.853   3.829   5.891 -0.6085 -2.0198 -0.8602
    4MOL    H78 1044   6.243   3.730   5.729 -1.6831  3.1037 -1.2654
    4MOL    H79 1045   6.324   3.681   5.965 -0.0016 -1.2933 -0.9527
    4MOL    H80 1046   6.164   3.906   6.206  1.6953  0.0733 -0.6176
    4MOL    H81 1047   6.061   3.815   6.309 -0.1512  0.8261  0.2303
    4MOL    C82 1048   6.259   3.846   6.392 -0.5831 -0.8121  0.0037
    4MOL    C83 1049   6.404   3.857   6.344 -0.2085 -0.0330 -0.0806
    4MOL    C84 1050   6.451   3.966   6.266 -0.2141  0.2595  0.6828
    4MOL    C85 1051   6.588   3.975   6.223 -0.2346  0.4279 -0.5242
    4MOL    C86 1052   6.680   3.874   6.260  0.1036 -0.5156  0.5749
    4MOL    F87 1053   6.810   3.895   6.235 -0.6489  0.0402  0.5114
    4MOL    C88 1054   6.633   3.760   6.326 -0.2172  0.1634 -0.0885
    4MOL    C89 1055   6.501   3.751   6.367  0.3070 -0.1247 -0.3410
    4MOL    C90 1056   6.231   3.963   6.488 -0.5110  1.0611 -0.2821
    4MOL    H91 1057   6.269   3.757   6.455  0.3932 -0.4556  0.3690
    4MOL    H92 1058   6.387   4.045   6.227  0.9419  0.8097 -0.1328
    4MOL    H93 1059   6.626   4.059   6.166  0.4606  0.0728 -0.5855
    4MOL    H94 1060   6.702   3.683   6.356  1.4077  1.4247 -0.4463
    4MOL    H95 1061   6.475   3.656   6.411  0.8180  0.0030  0.2477
    4MOL    H96 1062   6.308   3.985   6.562 -0.3811 -2.5738  0.7495
    4MOL    H97 1063   6.230   4.048   6.420  2.4364 -0.9993 -3.0278
    4MOL    C98 1064   6.098   3.949   6.579  0.3851 -0.4357  0.0533
    4MOL    C99 1065   6.081   3.809   6.661  0.3886 -0.6702  0.2463
    4MOL   C100 1066   6.032   3.697   6.596  0.1118  0.2651  0.0273
    4MOL   C101 1067   6.031   3.569   6.659 -0.2857  0.3433 -0.0402
    4MOL   C102 1068   6.084   3.559   6.791 -0.3295 -0.6108 -0.6235
    4MOL   F103 1069   6.098   3.443   6.847  0.4255  0.5422  0.2786
    4MOL   C104 1070   6.137   3.670   6.856  0.2243  0.5199  0.2640
    4MOL   C105 1071   6.130   3.798   6.790  0.1021  0.5561  0.3022
    4MOL   C106 1072   6.066   4.078   6.672  0.0983 -0.0762  0.6681
    4MOL   H107 1073   6.013   3.934   6.512  0.0579 -0.0963  0.3866
    4MOL   H108 1074   5.990   3.722   6.500 -0.3136 -0.1273  0.1056
    4MOL   H109 1075   5.998   3.471   6.627 -1.6354  0.4493  0.9677
    4MOL   H110 1076   6.177   3.658   6.956 -3.1574 -0.4512  1.5519
    4MOL   H111 1077   6.168   3.884   6.842  1.8160 -0.9775  1.6764
    4MOL   H112 1078   5.987   4.050   6.742  0.0477  1.1366  1.1243
    4MOL   H113 1079   6.140   4.107   6.748  0.4153  1.2789 -0.1461
    4MOL   C114 1080   6.034   4.207   6.595  0.1895 -0.3966  0.2021
    4MOL   C115 1081   5.911   4.203   6.506 -0.0344 -0.0122  0.5694
    4MOL   C116 1082   5.926   4.243   6.372  0.1704 -0.5349  0.4158
    4MOL   C117 1083   5.809   4.241   6.288 -0.2835 -0.0723 -0.3890
    4MOL   C118 1084   5.681   4.212   6.337 -0.3430 -0.4736 -0.0163
    4MOL   F119 1085   5.575   4.205   6.256  0.2652  0.1261 -0.0330
    4MOL   C120 1086   5.669   4.188   6.474 -0.6688  0.0464 -0.0772
    4MOL   C121 1087   5.783   4.171   6.554 -0.0827  0.1061 -0.6321
    4MOL   C122 1088   6.029   4.336   6.675  0.3267 -0.7508  0.1326
    4MOL   H123 1089   6.126   4.218   6.537 -0.1193  1.6630  0.0694
    4MOL   H124 1090   6.022   4.278   6.338  0.1268  0.2922  1.1367
    4MOL   H125 1091   5.821   4.281   6.188 -0.7153  1.9667  0.3428
    4MOL   H126 1092   5.570   4.164   6.509 -2.1732  2.2593 -2.6797
    4MOL   H127 1093   5.778   4.151   6.660  1.6365  0.9436 -0.3794
    4MOL   H128 1094   5.983   4.412   6.612  0.8578  1.2264  2.0552
    4MOL   H129 1095   5.959   4.323   6.757  0.2819 -0.1193  0.1990
    4MOL   C130 1096   6.161   4.386   6.728 -0.3041  0.0253 -0.0339
    4MOL   C131 1097   6.265   4.412   6.620 -0.9278 -0.2404  0.2736
    4MOL   C132 1098   6.249   4.525   6.539  0.1093  0.3481  0.2694
    4MOL   C133 1099   6.346   4.553   6.441 -0.1506  0.3104  0.4542
    4MOL   C134 1100   6.463   4.473   6.421  0.1776 -0.0629  0.1933
    4MOL   F135 1101   6.549   4.486   6.318 -0.1535 -0.2649 -0.1643
    4MOL   C136 1102   6.482   4.365   6.511 -0.3550 -0.4707  0.0008
    4MOL   C137 1103   6.378   4.330   6.601 -0.0391  0.1235 -0.6644
    4MOL   C138 1104   6.153   4.506   6.826  0.4739  0.0683  0.0357
    4MOL   H139 1105   6.209   4.312   6.793  0.7514 -0.1241 -0.9799
    4MOL   H140 1106   6.163   4.589   6.553 -0.7797 -1.0870  1.5305
    4MOL   H141 1107   6.338   4.630   6.366  3.2475 -0.9606 -1.3133
    4MOL   H142 1108   6.564   4.296   6.503 -0.0212 -0.1108  0.2878
    4MOL   H143 1109   6.382   4.241   6.662  0.0436  1.3943  1.1920
    4MOL   H144 1110   6.250   4.551   6.846  0.2827 -0.7942  3.2595
    4MOL   H145 1111   6.085   4.585   6.794 -1.1107 -1.3394 -0.1077
    4MOL   C146 1112   6.102   4.484   6.972 -0.1309 -0.3406 -0.2600
    4MOL   C147 1113   6.156   4.358   7.041  0.2846 -0.9743  0.0024
    4MOL   C148 1114   6.294   4.357   7.083  0.0737 -0.4632 -0.3207
    4MOL   C149 1115   6.345   4.243   7.146 -0.3647 -0.1014 -0.2736
    4MOL   C150 1116   6.269   4.126   7.159  0.3868 -0.0868  0.6707
    4MOL   F151 1117   6.321   4.022   7.219  0.0060  0.0537  0.1561
    4MOL   C152 1118   6.136   4.130   7.119  0.2356 -0.1341  0.1116
    4MOL   C153 1119   6.078   4.240   7.054 -0.1916 -0.4138 -0.0927
    4MOL   C154 1120   6.118   4.620   7.064  0.2830  1.2038  0.1125
    4MOL   H155 1121   5.998   4.456   6.956  0.4052 -2.6336  0.1268
    4MOL   H156 1122   6.365   4.437   7.071 -0.6792  0.2438 -0.0751
    4MOL   H157 1123   6.447   4.237   7.181  0.2337  0.2107 -1.9025
    4MOL   H158 1124   6.070   4.044   7.125  0.0382  0.0610  0.7585
    4MOL   H159 1125   5.973   4.239   7.029 -0.0962 -0.1196 -0.5061
    4MOL   H160 1126   6.218   4.618   7.107 -0.0867  1.0401  0.9756
    4MOL   H161 1127   6.106   4.707   7.000  0.8129  1.0850 -0.1501
    4MOL   C162 1128   6.029   4.627   7.187  0.2715  0.4417  0.1923
    4MOL   C163 1129   6.045   4.760   7.263 -0.1835  0.1193 -0.2947
    4MOL   C164 1130   6.104   4.766   7.388  0.4033 -0.1947 -0.2080
    4MOL   C165 1131   6.125   4.893   7.447  0.0849 -0.1012  0.5390
    4MOL   C166 1132   6.062   5.008   7.396 -0.8462 -0.4015 -0.3443
    4MOL   F167 1133   6.071   5.129   7.456 -0.1916  0.1018 -0.4164
    4MOL   C168 1134   6.001   5.001   7.271  0.6298 -0.1255  0.2484
    4MOL   C169 1135   5.993   4.878   7.205  0.7770  0.3471  0.4889
    4MOL   C170 1136   5.873   4.605   7.148 -0.3015 -0.3092 -0.6109
    4MOL   H171 1137   6.046   4.550   7.263  0.1479 -0.0958 -0.3291
    4MOL   H172 1138   6.145   4.678   7.435 -2.9334 -1.9150 -0.3276
    4MOL   H173 1139   6.178   4.896   7.541  2.1761  0.5592 -0.6088
    4MOL   H174 1140   5.961   5.089   7.223  1.4454  0.0523 -0.1269
    4MOL   H175 1141   5.949   4.878   7.106  0.8807 -1.4286  0.4137
    4MOL   H176 1142   5.859   4.665   7.058 -1.9677  0.0379 -0.1393
    4MOL   H177 1143   5.857   4.498   7.143 -1.6362 -0.1753  0.3180
    4MOL   C178 1144   5.775   4.648   7.257  0.1267  0.7191 -0.6444
    4MOL   C179 1145   5.636   4.660   7.196 -0.0678  0.1540 -0.6747
    4MOL   C180 1146   5.597   4.791   7.157  0.6059  0.0695 -0.8493
    4MOL   C181 1147   5.473   4.812   7.091 -0.3218  0.2131 -0.9376
    4MOL   C182 1148   5.393   4.700   7.066  0.0648  0.0505 -0.1585
    4MOL   F183 1149   5.273   4.718   7.001 -0.2141 -0.1203  0.3211
    4MOL   C184 1150   5.427   4.568   7.108 -0.0760  0.6909 -0.3416
    4MOL   C185 1151   5.554   4.549   7.166  0.1137  0.6567  0.0691
    4MOL   C186 1152   5.783   4.555   7.382 -0.5365  0.2390  0.5605
    4MOL   H187 1153   5.792   4.750   7.291 -1.9085  0.3876  1.5177
    4MOL   H188 1154   5.653   4.883   7.169  1.2500 -0.6759  2.0806
    4MOL   H189 1155   5.441   4.911   7.063  0.9292  0.6733 -0.7663
    4MOL   H190 1156   5.365   4.482   7.089 -0.0226  1.1149 -2.5331
    4MOL   H191 1157   5.590   4.451   7.192 -0.6102  0.1142 -0.9722
    4MOL   H192 1158   5.769   4.450   7.355 -1.2920  0.4560  0.0791
    4MOL   H193 1159   5.882   4.554   7.427  0.0006  0.4494 -0.6248
    4MOL   C194 1160   5.689   4.593   7.504 -0.3698  0.3139 -0.3473
    4MOL   C195 1161   5.727   4.510   7.627  0.6497 -0.2065  0.1840
    4MOL   C196 1162   5.635   4.408   7.670 -0.9865  0.3063 -0.5766
    4MOL   C197 1163   5.657   4.340   7.794  0.4180  0.1106 -0.2289
    4MOL   C198 1164   5.785   4.368   7.857  0.4634  0.4693 -0.4613
    4MOL   F199 1165   5.820   4.294   7.966 -0.1058 -0.5099  0.6189
    4MOL   C200 1166   5.876   4.455   7.809 -0.4430 -0.8316 -0.1776
    4MOL   C201 1167   5.848   4.534   7.692 -0.6178  0.2077 -0.5566
    4MOL   C202 1168   5.698   4.745   7.528 -0.4104 -0.1937  0.4262
    4MOL   H203 1169   5.586   4.572   7.477  0.2267 -0.5196 -2.0466
    4MOL   H204 1170   5.553   4.374   7.609 -0.0997 -0.8188 -1.1517
    4MOL   H205 1171   5.601   4.255   7.832 -0.4301 -0.1795 -2.0615
    4MOL   H206 1172   5.975   4.467   7.851  0.0082 -1.8290 -0.9217
    4MOL   H207 1173   5.913   4.610   7.651 -0.7516  0.4593 -0.3019
    4MOL   H208 1174   5.797   4.782   7.504 -1.2770  0.0931 -3.1194
    4MOL   H209 1175   5.645   4.793   7.445  0.1014 -1.9337 -0.9443
    4MOL   C210 1176   5.633   4.818   7.658 -0.1466  0.7520 -0.2281
    4MOL   C211 1177   5.737   4.858   7.760 -0.4012  0.1412 -1.0830
    4MOL   C212 1178   5.846   4.943   7.717  0.1713  0.3436  0.6107
    4MOL   C213 1179   5.933   5.006   7.813 -0.3170  0.1702  0.0325
    4MOL   C214 1180   5.916   4.984   7.948 -0.2951 -0.3166  0.1193
    4MOL   F215 1181   6.015   5.021   8.033  0.4538  0.7679 -0.1372
    4MOL   C216 1182   5.803   4.908   7.991  0.1291 -0.0124 -0.2025
    4MOL   C217 1183   5.720   4.842   7.899  0.0227 -0.2185  0.8008
    4MOL   C218 1184   5.549   4.945   7.621  0.1526  0.8118  0.2652
    4MOL   H219 1185   5.569   4.750   7.712  0.1230  0.3847 -0.3691
    4MOL   H220 1186   5.864   4.953   7.611  1.6522  2.2450  1.0162
    4MOL   H221 1187   6.021   5.058   7.778 -0.7551  0.2571 -0.9683
    4MOL   H222 1188   5.779   4.901   8.096  1.2971  1.3474  0.1750
    4MOL   H223 1189   5.632   4.787   7.929  0.0714  0.5506  2.4163
    4MOL   H224 1190   5.520   4.994   7.715 -4.7311 -2.0455  0.4232
    4MOL   H225 1191   5.613   5.020   7.574  1.9947 -2.0404 -1.9074
    4MOL   C226 1192   5.419   4.929   7.530  0.0904  0.2591  0.1373
    4MOL   C227 1193   5.326   4.822   7.593  0.6580  0.2962  0.3639
    4MOL   C228 1194   5.311   4.696   7.524  0.2621 -0.3591 -0.2381
    4MOL   C229 1195   5.229   4.596   7.581  0.0432  0.0817  0.3089
    4MOL   C230 1196   5.148   4.627   7.696 -0.4355  0.3666  0.3133
    4MOL   F231 1197   5.064   4.544   7.756  0.5206  0.0328  0.5196
    4MOL   C232 1198   5.168   4.748   7.761  0.7342  0.5127 -0.2661
    4MOL   C233 1199   5.257   4.845   7.713  0.4040  0.5073 -0.1637
    4MOL   C234 1200   5.349   5.059   7.510  0.1054  0.6913  0.6780
    4MOL   H235 1201   5.450   4.904   7.429  2.2852  2.1446  0.2857
    4MOL   H236 1202   5.357   4.662   7.432  1.2572  0.2176  0.0342
    4MOL   H237 1203   5.219   4.495   7.544  1.0786 -0.0698  0.4308
    4MOL   H238 1204   5.108   4.769   7.849 -1.2691  0.8399 -1.6868
    4MOL   H239 1205   5.269   4.941   7.761  0.7037 -0.9693  2.8516
    4MOL   H240 1206   5.285   5.092   7.592  0.2451 -1.1441  1.5617
    4MOL   H241 1207   5.431   5.130   7.501  1.2130 -0.9023 -2.4436
    4MOL   C242 1208   5.262   5.053   7.386  0.4907  0.5799 -0.6019
    4MOL   C243 1209   5.137   4.961   7.390 -0.2633  0.0079 -0.4417
    4MOL   C244 1210   5.127   4.837   7.314 -0.5126 -0.2804 -0.6453
    4MOL   C245 1211   5.006   4.761   7.316 -0.3658  0.6206  0.2004
    4MOL   C246 1212   4.897   4.801   7.396 -0.6555  0.4117  0.0043
    4MOL   F247 1213   4.783   4.727   7.377 -0.3763  0.3625 -0.0217
    4MOL   C248 1214   4.903   4.918   7.474 -0.3391  0.0870  0.2399
    4MOL   C249 1215   5.027   4.990   7.475  0.1014 -0.2698  0.6789
    4MOL   C250 1216   5.216   5.191   7.340  0.4858 -0.4447 -0.0669
    4MOL   H251 1217   5.316   5.005   7.304  0.4937 -1.8787  0.7755
    4MOL   H252 1218   5.213   4.816   7.252  1.5016 -0.2259  2.0297
    4MOL   H253 1219   4.998   4.669   7.260  1.2158  0.1839  0.6712
    4MOL   H254 1220   4.812   4.946   7.524 -0.0784  0.0241  0.7529
    4MOL   H255 1221   5.039   5.073   7.542  3.0280  0.8055 -1.0925
    4MOL   H256 1222   5.167   5.178   7.244  2.0227 -0.1834 -0.9031
    4MOL   H257 1223   5.138   5.225   7.408 -0.5561 -2.2538 -0.3255
    4MOL   C258 1224   5.318   5.307   7.310  0.0548 -0.4084  0.3098
    4MOL   C259 1225   5.438   5.255   7.231  0.1850 -1.0539 -0.1117
    4MOL   C260 1226   5.423   5.215   7.096 -0.0888 -0.4431 -0.1110
    4MOL   C261 1227   5.538   5.177   7.016 -0.3455 -0.2824 -0.3508
    4MOL   C262 1228   5.660   5.161   7.082  0.5196 -0.2310 -0.5557
    4MOL   F263 1229   5.769   5.119   7.007 -0.2785 -0.0902 -0.0987
    4MOL   C264 1230   5.665   5.191   7.223 -0.3015  0.3829  0.2933
    4MOL   C265 1231   5.562   5.246   7.296  0.2393 -0.7983  0.5598
    4MOL   C266 1232   5.257   5.427   7.225 -0.2734  0.4928  0.3927
    4MOL   H267 1233   5.349   5.354   7.403 -0.3494  2.6532 -1.0349
    4MOL   H268 1234   5.328   5.231   7.048  1.4273  1.7562 -2.5301
    4MOL   H269 1235   5.533   5.174   6.908  0.0056  1.4549 -0.4350
    4MOL   H270 1236   5.760   5.183   7.274  0.8486 -2.6647 -2.1640
    4MOL   H271 1237   5.573   5.275   7.400  2.1442  1.2972 -0.2022
    4MOL   H272 1238   5.334   5.491   7.182 -2.8186  2.0130 -2.1132
    4MOL   H273 1239   5.211   5.388   7.134 -1.9338 -0.1681  1.4755
    4MOL   C274 1240   5.161   5.518   7.301 -0.2248  0.1702 -0.6082
    4MOL   C275 1241   5.222   5.589   7.418 -0.1628 -0.6459  0.0334
    4MOL   C276 1242   5.291   5.702   7.389  0.6057 -0.3952 -0.3966
    4MOL   C277 1243   5.348   5.774   7.494 -0.2461  0.7229  0.2843
    4MOL   C278 1244   5.328   5.729   7.627  0.3108 -0.2806  0.9045
    4MOL   F279 1245   5.394   5.787   7.725 -0.0846  0.5513  0.3422
    4MOL   C280 1246   5.249   5.621   7.655  0.2235 -0.1599  0.6540
    4MOL   C281 1247   5.211   5.539   7.552 -0.1111 -0.4949  0.1465
    4MOL   C282 1248   5.062   5.603   7.221  0.1476  0.0594  0.7690
    4MOL   H283 1249   5.088   5.454   7.352 -0.4333 -2.2196 -3.7268
    4MOL   H284 1250   5.304   5.737   7.287  0.7264  0.5372 -0.0628
    4MOL   H285 1251   5.411   5.859   7.473  1.7035 -0.4519  1.1411
    4MOL   H286 1252   5.225   5.601   7.758  0.8688  1.5128  1.1493
    4MOL   H287 1253   5.168   5.443   7.575  2.0938 -1.5760 -0.1208
    4MOL   H288 1254   5.007   5.660   7.296 -1.3193 -0.9126  0.4605
    4MOL   H289 1255   5.111   5.676   7.157  1.1200 -1.6493 -0.4929
    4MOL   C290 1256   4.953   5.525   7.142 -0.9831 -0.1782 -0.1685
    4MOL   C291 1257   4.879   5.428   7.234  0.3465  0.0326 -0.1386
    4MOL   C292 1258   4.897   5.289   7.218  0.1425  0.3699  1.1854
    4MOL   C293 1259   4.817   5.197   7.286 -0.1710 -0.0790  0.0160
    4MOL   C294 1260   4.714   5.244   7.369 -0.0208 -0.0397  0.2479
    4MOL   F295 1261   4.650   5.149   7.436 -0.0911 -0.0793  0.2384
    4MOL   C296 1262   4.690   5.380   7.384  0.1188 -0.3670  0.7425
    4MOL   C297 1263   4.772   5.470   7.314 -0.7760  0.3787  0.0444
    4MOL   C298 1264   4.870   5.619   7.049 -0.7555 -0.0979 -0.2729
    4MOL   H299 1265   4.993   5.452   7.072  1.2855 -0.5491  1.4800
    4MOL   H300 1266   4.979   5.254   7.157 -0.7091  2.1852 -1.0484
    4MOL   H301 1267   4.831   5.092   7.264  2.0775  0.0262  0.8372
    4MOL   H302 1268   4.620   5.415   7.458 -0.1731 -0.0047  0.3034
    4MOL   H303 1269   4.755   5.577   7.316  1.4311  0.7270  3.5426
    4MOL   H304 1270   4.833   5.700   7.111 -1.1038  0.4211 -1.1567
    4MOL   H305 1271   4.935   5.666   6.975 -0.8702  0.0535 -0.2778
    4MOL   C306 1272   4.766   5.540   6.966  0.6130  0.0784  0.1543
    4MOL   C307 1273   4.643   5.628   6.941 -0.2538  0.2947  0.1226
    4MOL   C308 1274   4.516   5.560   6.951 -0.4556 -0.2276 -0.1887
    4MOL   C309 1275   4.399   5.627   6.921 -0.9332  0.0291 -0.3695
    4MOL   C310 1276   4.407   5.764   6.891 -0.0434  0.5828  1.1344
    4MOL   F311 1277   4.291   5.831   6.885 -0.2522 -0.1934  0.6126
    4MOL   C312 1278   4.523   5.834   6.881 -0.2896  1.0364 -0.3999
    4MOL   C313 1279   4.643   5.762   6.899 -0.3138 -0.6241  0.0749
    4MOL   C314 1280   4.829   5.502   6.835 -0.3967  0.6386  1.0152
    4MOL   H315 1281   4.747   5.452   7.029 -0.6870  0.0451 -0.2727
    4MOL   H316 1282   4.517   5.457   6.984  0.2701 -0.0033  0.4972
    4MOL   H317 1283   4.302   5.581   6.925 -0.7814 -0.3398 -0.8223
    4MOL   H318 1284   4.532   5.937   6.850  3.3541  1.2628  1.1277
    4MOL   H319 1285   4.735   5.817   6.885  0.2051 -0.9620  2.0698
    4MOL   H320 1286   4.856   5.593   6.781  2.1427  0.1124  1.3244
    4MOL   H321 1287   4.922   5.445   6.837  0.5846  2.0172 -1.9340
    4MOL   H322 1288   4.764   5.441   6.773 -1.0963  1.4168  0.9707
    5MOL     C1 1289   0.346   4.001   8.050 -0.3881  0.3596 -0.1847
    5MOL     C2 1290   0.491   4.020   8.099 -0.0843  0.3133 -0.3299
    5MOL     C3 1291   0.580   4.114   8.030  1.0345  1.1196  0.0021
    5MOL     C4 1292   0.716   4.130   8.084 -0.3784  0.5088  0.9415
    5MOL     C5 1293   0.758   4.070   8.204  0.4292  0.1205 -0.6708
    5MOL     F6 1294   0.883   4.102   0.023  0.3926  0.4671 -0.6618
    5MOL     C7 1295   0.669   3.983   0.030  0.2170  0.0010 -0.4677
    5MOL     C8 1296   0.538   3.958   8.216 -0.4721 -0.4912 -0.4868
    5MOL     C9 1297   0.262   4.105   8.112 -0.1306  0.4423  0.5468
    5MOL    H10 1298   0.317   3.900   8.082  0.9747  0.0680  0.1283
    5MOL    H11 1299   0.556   4.170   7.940 -0.5240  1.4072  0.5750
    5MOL    H12 1300   0.782   4.194   8.029 -1.2336  0.2730 -0.3733
    5MOL    H13 1301   0.691   3.938   0.125 -0.2232 -0.1909 -0.4551
    5MOL    H14 1302   0.470   3.893   0.035 -0.3451 -0.5839 -0.4351
    5MOL    H15 1303   0.264   4.083   8.219 -0.4284  0.7465  0.6162
    5MOL    H16 1304   0.300   4.207   8.104  2.7142 -0.2662  3.7716
    5MOL    H17 1305   0.351   3.999   7.941 -1.5781  3.2296 -0.3503
    5MOL    C18 1306   0.114   4.109   8.072  0.3911 -0.2542  0.3437
    5MOL    C19 1307   0.064   3.966   8.037 -0.2942  0.0215 -0.0861
    5MOL    C20 1308   0.011   3.937   7.906  0.1246 -0.3167  0.0852
    5MOL    C21 1309   8.196   3.808   7.873  0.1604 -0.7246 -0.4172
    5MOL    C22 1310   8.197   3.709   7.972  0.9966  0.0259  0.5584
    5MOL    F23 1311   8.140   3.589   7.938 -0.4684 -0.2626 -0.0104
    5MOL    C24 1312   0.011   3.740   8.105 -0.1840  0.3222  0.9452
    5MOL    C25 1313   0.063   3.864   8.132 -0.8804 -0.1362 -0.2216
    5MOL    C26 1314   0.021   4.172   8.176  0.3103 -0.2424 -0.2359
    5MOL    H27 1315   0.106   4.169   7.981  1.1173  0.6932  0.8874
    5MOL    H28 1316   8.232   4.008   7.825 -2.0341 -0.0130  0.6687
    5MOL    H29 1317   8.164   3.794   7.771 -2.8807  1.6011  0.1348
    5MOL    H30 1318   8.228   3.667   8.183  0.0402  2.4599  3.0609
    5MOL    H31 1319   0.093   3.877   0.000  3.1060  1.4053 -1.5032
    5MOL    H32 1320   8.151   4.146   8.156  0.3608 -0.6400 -0.0029
    5MOL    H33 1321   0.046   4.132   0.039 -0.8692 -0.5603 -0.0476
    5MOL    C34 1322   0.030   4.330   8.181  0.4130 -0.1398  0.0849
    5MOL    C35 1323   8.181   4.384   8.067 -0.0102 -0.7265  0.2698
    5MOL    C36 1324   0.015   4.449   7.961 -0.6797  0.3904  0.3242
    5MOL    C37 1325   8.175   4.522   7.871 -0.9354  0.8310 -0.5247
    5MOL    C38 1326   8.032   4.520   7.864 -0.0401  0.5339 -0.5537
    5MOL    F39 1327   7.967   4.587   7.769  0.3502 -0.5508 -0.4263
    5MOL    C40 1328   7.966   4.449   7.967  0.1789 -0.2503  0.1518
    5MOL    C41 1329   8.039   4.385   8.068 -0.1607  0.6680  0.0785
    5MOL    C42 1330   8.212   4.385   0.078 -0.4029 -0.3277  0.8714
    5MOL    H43 1331   0.135   4.360   8.178  0.8927 -1.6032  1.4009
    5MOL    H44 1332   0.123   4.443   7.954 -0.5262  2.4163  0.7484
    5MOL    H45 1333   8.225   4.579   7.794 -0.3634  1.3276  0.2157
    5MOL    H46 1334   7.859   4.459   7.973  0.5262  2.9017  1.8390
    5MOL    H47 1335   7.977   4.344   8.146  1.6405  0.1737  1.2840
    5MOL    H48 1336   8.190   4.491   0.071 -1.9895 -0.5312  2.2128
    5MOL    H49 1337   8.114   4.345   0.103  0.7706 -3.8905  0.1093
    5MOL    C50 1338   0.068   4.362   0.201 -0.4661 -0.0645  0.2290
    5MOL    C51 1339   0.219   4.371   0.171  0.7212  1.0277 -0.6511
    5MOL    C52 1340   0.302   4.263   0.189  0.3573  0.2621 -0.2250
    5MOL    C53 1341   0.434   4.283   0.158 -0.5303  0.8033 -0.9368
    5MOL    C54 1342   0.488   4.401   0.100 -0.7236  0.0790 -0.1275
    5MOL    F55 1343   0.621   4.412   0.061 -0.3639  0.3275  0.1223
    5MOL    C56 1344   0.399   4.510   0.086 -0.5143 -0.3479  0.8788
    5MOL    C57 1345   0.263   4.494   0.117  0.0512 -0.0948 -0.7738
    5MOL    C58 1346   0.028   4.440   0.331  0.1184 -0.1899 -0.2804
    5MOL    H59 1347   0.042   4.260   0.229  1.9765 -1.0616 -1.0361
    5MOL    H60 1348   0.275   4.167   0.230 -1.4931  0.8952  0.1315
    5MOL    H61 1349   0.489   4.193   0.179  1.9201  3.0525  2.9044
    5MOL    H62 1350   0.427   4.609   0.051 -1.9274  0.6164  2.4009
    5MOL    H63 1351   0.202   4.582   0.104 -0.2720 -0.4550 -1.7173
    5MOL    H64 1352   0.105   4.424   0.406  0.6431  0.4933 -0.6649
    5MOL    H65 1353   0.047   4.547   0.319  1.5838 -0.4438 -0.3319
    5MOL    C66 1354   8.129   4.397   0.400 -0.0510 -0.1620  1.3263
    5MOL    C67 1355   8.128   4.262   0.470  0.3947  1.3441 -0.2564
    5MOL    C68 1356   8.027   4.169   0.431 -0.0987 -0.7197 -0.3940
    5MOL    C69 1357   8.012   4.038   0.491  0.2113 -0.1162 -0.8175
    5MOL    C70 1358   8.087   4.015   0.610 -0.0033 -0.2499  0.5579
    5MOL    F71 1359   8.072   3.909   0.682  0.1778  0.2350 -0.4152
    5MOL    C72 1360   8.196   4.101   0.638 -0.0609  0.0059 -0.4692
    5MOL    C73 1361   8.219   4.227   0.575  0.2776 -0.1921  0.4990
    5MOL    C74 1362   8.070   4.517   0.488 -0.1396 -0.1169  0.2812
    5MOL    H75 1363   8.065   4.378   0.313  1.2291  2.4774 -0.2835
    5MOL    H76 1364   7.962   4.202   0.351 -1.0533 -2.5892 -0.4313
    5MOL    H77 1365   7.936   3.971   0.454 -0.7542  0.8966 -0.6956
    5MOL    H78 1366   0.019   4.071   0.724 -0.4266  0.9878  0.1322
    5MOL    H79 1367   0.065   4.288   0.613 -1.1681  0.7176  2.1728
    5MOL    H80 1368   8.002   4.467   0.557  1.4437 -0.5524  1.5708
    5MOL    H81 1369   8.153   4.547   0.553 -1.0139  0.6882  1.0354
    5MOL    C82 1370   8.009   4.634   0.417  0.5950 -0.3811  0.0714
    5MOL    C83 1371   7.925   4.577   0.298 -0.5024 -0.7471 -0.4753
    5MOL    C84 1372   7.817   4.487   0.315 -0.3418 -0.1040  0.4015
    5MOL    C85 1373   7.744   4.452   0.202 -0.3073  0.2669 -0.2949
    5MOL    C86 1374   7.767   4.510   0.078  0.2060 -0.9253  0.5253
    5MOL    F87 1375   7.681   4.479   8.208 -0.4873 -0.4150 -0.0617
    5MOL    C88 1376   7.865   4.611   0.066 -0.5989  0.1881  0.1066
    5MOL    C89 1377   7.949   4.642   0.172 -0.8618  0.2998 -0.3106
    5MOL    C90 1378   7.917   4.717   0.519 -0.1909 -0.1142  0.2623
    5MOL    H91 1379   8.096   4.688   0.379  0.0215  0.4575 -0.0853
    5MOL    H92 1380   7.787   4.448   0.411 -1.4547 -0.3157 -0.0261
    5MOL    H93 1381   7.666   4.378   0.212  0.0467  0.3008  3.2923
    5MOL    H94 1382   7.886   4.664   8.209  2.2944  1.8226  1.6396
    5MOL    H95 1383   8.026   4.714   0.152 -0.6434 -0.0239 -0.6344
    5MOL    H96 1384   7.856   4.649   0.579 -0.7679  1.6057  1.6462
    5MOL    H97 1385   7.980   4.766   0.593  0.7869 -1.3175  0.2560
    5MOL    C98 1386   7.835   4.817   0.457 -0.1252 -0.7546  0.2293
    5MOL    C99 1387   7.688   4.825   0.517 -0.0039  0.0751  0.2789
    5MOL   C100 1388   7.582   4.778   0.440 -1.0830  0.6565 -0.7213
    5MOL   C101 1389   7.457   4.773   0.512  0.3280 -0.6353  0.0793
    5MOL   C102 1390   7.435   4.815   0.643  0.2272  0.4458 -0.4126
    5MOL   F103 1391   7.313   4.798   0.704 -0.5273 -0.2468 -0.2497
    5MOL   C104 1392   7.548   4.865   0.716 -0.2153  0.2216  0.7684
    5MOL   C105 1393   7.677   4.860   0.652  0.2262 -0.2401 -0.3666
    5MOL   C106 1394   7.916   4.946   0.447  0.5525 -0.0330 -1.2338
    5MOL   H107 1395   7.827   4.784   0.353  2.2900 -2.0046  0.3992
    5MOL   H108 1396   7.594   4.732   0.343  0.5959  0.4982 -0.4509
    5MOL   H109 1397   7.370   4.730   0.465  0.2052 -0.7108  0.3726
    5MOL   H110 1398   7.539   4.904   0.817 -2.7313  2.3339 -0.2081
    5MOL   H111 1399   7.766   4.891   0.704 -0.5015 -0.6302  1.1497
    5MOL   H112 1400   7.931   4.981   0.550 -2.9302 -0.2749 -0.5953
    5MOL   H113 1401   8.013   4.932   0.398  1.4816  3.5181 -0.5750
    5MOL   C114 1402   7.841   5.063   0.374  0.8223  0.2188 -0.1648
    5MOL   C115 1403   7.881   5.207   0.420  0.4656  0.1747 -1.0694
    5MOL   C116 1404   7.794   5.294   0.490 -0.2247  0.2479  0.2966
    5MOL   C117 1405   7.831   5.425   0.500  0.6669 -0.1172 -0.1363
    5MOL   C118 1406   7.952   5.477   0.445 -0.4340 -0.2353  1.4024
    5MOL   F119 1407   7.980   5.608   0.467  0.1710  0.1613  0.1947
    5MOL   C120 1408   8.029   5.395   0.362 -0.1717 -0.4909 -0.3282
    5MOL   C121 1409   7.997   5.261   0.358 -0.1605  0.3426 -0.3248
    5MOL   C122 1410   7.828   5.050   0.219  0.0188 -0.2078 -0.0364
    5MOL   H123 1411   7.742   5.052   0.418 -0.2534 -0.4492 -2.6663
    5MOL   H124 1412   7.698   5.259   0.526 -0.3021  0.0604 -0.0890
    5MOL   H125 1413   7.767   5.487   0.561  0.0599 -2.0167  1.1920
    5MOL   H126 1414   8.120   5.430   0.316  0.2960 -1.1802  0.0638
    5MOL   H127 1415   8.067   5.201   0.300 -0.3423  0.4585 -0.6647
    5MOL   H128 1416   7.927   5.084   0.186  0.3882  0.4765  1.7183
    5MOL   H129 1417   7.828   4.945   0.190 -0.1743 -0.0963 -0.4358
    5MOL   C130 1418   7.706   5.119   0.151  0.3358  0.0980 -0.4729
    5MOL   C131 1419   7.746   5.257   0.110 -0.0194  0.0239 -0.4490
    5MOL   C132 1420   7.850   5.272   0.021 -0.0896  0.1370  0.7258
    5MOL   C133 1421   7.890   5.406   8.232  0.8020  0.1297  0.0583
    5MOL   C134 1422   7.810   5.518   0.033 -0.2051 -1.4207  0.0670
    5MOL   F135 1423   7.843   5.645   0.001  0.4683  0.0670  0.3393
    5MOL   C136 1424   7.699   5.499   0.113 -0.0781  0.3078 -0.8660
    5MOL   C137 1425   7.669   5.367   0.153  0.1411  0.4650  0.1007
    5MOL   C138 1426   7.636   5.045   0.038 -0.1884 -0.6215  0.3451
    5MOL   H139 1427   7.632   5.130   0.230  0.8736  0.2752  0.0162
    5MOL   H140 1428   7.913   5.194   8.218  1.1778  0.4823  2.0989
    5MOL   H141 1429   7.983   5.425   8.181  1.2154 -0.0811  0.7342
    5MOL   H142 1430   7.633   5.579   0.141 -1.2539 -1.0632  0.3434
    5MOL   H143 1431   7.588   5.349   0.223  1.0508 -0.1287  1.0176
    5MOL   H144 1432   7.709   5.042   8.192 -0.1251 -0.0425  0.3784
    5MOL   H145 1433   7.623   4.942   0.071 -2.4987  0.0795  1.7321
    5MOL   C146 1434   7.502   5.105   8.233  0.0901  0.0322 -0.0564
    5MOL   C147 1435   7.494   5.096   8.084 -0.9171  0.1339 -0.1324
    5MOL   C148 1436   7.486   5.217   8.001 -0.3179  0.2328 -0.3830
    5MOL   C149 1437   7.471   5.201   7.859 -0.4387  0.1281  0.4995
    5MOL   C150 1438   7.464   5.073   7.798  0.1616 -0.8159  0.8658
    5MOL   F151 1439   7.454   5.071   7.666  0.2490  0.2437 -0.1455
    5MOL   C152 1440   7.481   4.960   7.880  0.8428 -0.4464  0.1070
    5MOL   C153 1441   7.498   4.970   8.018 -0.1013  0.6374 -0.3105
    5MOL   C154 1442   7.380   5.026   0.052 -0.3537  0.2676 -0.1452
    5MOL   H155 1443   7.479   5.208   0.028 -3.5436  0.1629 -3.0280
    5MOL   H156 1444   7.496   5.314   8.046 -1.4298 -0.8420  2.2636
    5MOL   H157 1445   7.459   5.283   7.789 -0.2045 -1.2940 -1.2472
    5MOL   H158 1446   7.487   4.861   7.838  1.5173 -0.5295  0.3963
    5MOL   H159 1447   7.505   4.875   8.069 -0.9876 -0.0936 -1.5246
    5MOL   H160 1448   7.286   5.060   0.007 -1.9109 -0.3098  2.5483
    5MOL   H161 1449   7.386   4.919   0.036 -1.1736  0.2390 -0.3029
    5MOL   C162 1450   7.363   5.036   0.205  0.4743  0.0055 -0.0772
    5MOL   C163 1451   7.344   5.177   0.259 -0.1814 -0.6613 -0.4203
    5MOL   C164 1452   7.421   5.212   0.369  0.0942 -0.0921  1.1161
    5MOL   C165 1453   7.410   5.345   0.422  0.4720  0.2244 -0.3710
    5MOL   C166 1454   7.314   5.436   0.370  0.7385  0.7453 -0.1392
    5MOL   F167 1455   7.311   5.560   0.426 -0.0231 -0.2018 -0.3192
    5MOL   C168 1456   7.233   5.392   0.266  0.0952 -0.1407 -0.2815
    5MOL   C169 1457   7.253   5.267   0.203 -0.7481  0.2868 -0.0868
    5MOL   C170 1458   7.252   4.942   0.267 -0.4335  0.5863  0.3477
    5MOL   H171 1459   7.453   5.005   0.258 -0.3735  3.0742  3.3341
    5MOL   H172 1460   7.488   5.142   0.416  0.7679  0.2201  0.6268
    5MOL   H173 1461   7.475   5.385   0.498 -0.7236  0.5231  0.5024
    5MOL   H174 1462   7.167   5.460   0.214  0.3312  1.1107  1.0359
    5MOL   H175 1463   7.204   5.244   0.110  1.1911 -0.5668 -0.9090
    5MOL   H176 1464   7.278   4.840   0.240 -0.3076  1.0501 -1.3711
    5MOL   H177 1465   7.250   4.950   0.376 -2.5539  0.9157  0.3016
    5MOL   C178 1466   7.107   4.957   0.225  1.4207  0.8151 -0.6135
    5MOL   C179 1467   7.066   4.894   0.085  0.0681  0.0450 -0.0820
    5MOL   C180 1468   7.078   4.759   0.057 -0.0117 -0.0166 -0.3326
    5MOL   C181 1469   7.034   4.711   8.168 -0.4389 -0.1548 -0.3153
    5MOL   C182 1470   6.990   4.802   8.073 -0.7744  0.2117  0.5744
    5MOL   F183 1471   6.963   4.755   7.945  0.1611  0.4173 -0.1821
    5MOL   C184 1472   6.972   4.940   8.094 -0.1746  0.4623 -0.0841
    5MOL   C185 1473   7.012   4.989   8.221  0.2361 -0.7344 -0.9326
    5MOL   C186 1474   7.016   4.896   0.332  0.0574  0.2256  0.2063
    5MOL   H187 1475   7.081   5.062   0.227 -1.8302  0.0665 -0.7571
    5MOL   H188 1476   7.124   4.695   0.130 -1.1029 -2.4558 -1.7217
    5MOL   H189 1477   7.037   4.605   8.150 -2.8420 -0.4930  1.0814
    5MOL   H190 1478   6.949   5.012   8.016 -2.0524  0.1637  0.1941
    5MOL   H191 1479   6.996   5.093   0.010 -1.2804 -1.1501 -0.0763
    5MOL   H192 1480   7.036   4.789   0.341  0.9503  0.4047  0.3353
    5MOL   H193 1481   7.037   4.935   0.432  1.0872 -1.7292  0.7819
    5MOL   C194 1482   6.864   4.918   0.312 -0.4113  0.2158  0.0551
    5MOL   C195 1483   6.801   4.777   0.334 -0.0765  0.2353 -0.4617
    5MOL   C196 1484   6.817   4.723   0.463  0.2037  0.1827 -0.2910
    5MOL   C197 1485   6.760   4.596   0.492 -0.6745 -0.1874  0.0628
    5MOL   C198 1486   6.706   4.522   0.387  0.2379 -0.6327  0.3212
    5MOL   F199 1487   6.656   4.394   0.415  0.2652  0.7323 -0.2878
    5MOL   C200 1488   6.702   4.574   0.256 -0.5253 -0.0099  0.4536
    5MOL   C201 1489   6.754   4.699   0.227 -0.7391 -0.1601  0.2934
    5MOL   C202 1490   6.801   5.037   0.401  0.5341 -0.3556  0.6588
    5MOL   H203 1491   6.855   4.924   0.204  3.6624 -2.5982 -0.5477
    5MOL   H204 1492   6.865   4.781   0.540  1.0291  1.6310 -1.8409
    5MOL   H205 1493   6.776   4.556   0.591 -1.6186 -1.1626 -0.1734
    5MOL   H206 1494   6.661   4.502   0.186  1.7314 -0.1975 -0.7338
    5MOL   H207 1495   6.756   4.724   0.121  3.7399  0.1165  0.3439
    5MOL   H208 1496   6.693   5.025   0.396  0.6869 -1.6921  0.5685
    5MOL   H209 1497   6.828   5.003   0.501  1.8741  0.7137  0.6930
    5MOL   C210 1498   6.839   5.180   0.362 -0.3560 -0.8640 -0.1640
    5MOL   C211 1499   6.790   5.218   0.221 -0.5885  0.6839  0.2823
    5MOL   C212 1500   6.861   5.320   0.144  0.3551  0.2498  0.3224
    5MOL   C213 1501   6.834   5.335   0.006 -0.2877  0.4376  0.0979
    5MOL   C214 1502   6.734   5.261   8.182 -0.0192 -0.4038  0.4779
    5MOL   F215 1503   6.711   5.270   8.048  0.0555 -0.1711  0.3653
    5MOL   C216 1504   6.658   5.174   0.023 -0.0719  0.1485  0.8967
    5MOL   C217 1505   6.684   5.155   0.161 -0.1614 -0.2645  0.7863
    5MOL   C218 1506   6.792   5.288   0.468  0.0541  0.0404  0.5164
    5MOL   H219 1507   6.947   5.165   0.360  0.0274  1.7856 -0.8602
    5MOL   H220 1508   6.937   5.374   0.197  1.6914 -0.6519 -0.6353
    5MOL   H221 1509   6.886   5.404   8.176  0.2586  1.2392  1.3750
    5MOL   H222 1510   6.587   5.109   8.209  0.0351  0.5274  0.2291
    5MOL   H223 1511   6.632   5.070   0.203  1.6490 -2.3086 -0.9835
    5MOL   H224 1512   6.850   5.376   0.440 -0.3056  0.5810  1.4762
    5MOL   H225 1513   6.689   5.312   0.443 -0.7456 -0.6301  3.0336
    5MOL   C226 1514   6.810   5.247   0.615  0.2495  0.8641  0.0926
    5MOL   C227 1515   6.948   5.205   0.654 -0.4814  0.7328  0.2305
    5MOL   C228 1516   7.066   5.282   0.627  0.9321 -0.1002  0.6728
    5MOL   C229 1517   7.185   5.230   0.681 -0.2435  0.4158  0.0611
    5MOL   C230 1518   7.189   5.122   0.769 -0.5311  0.1923 -0.1845
    5MOL   F231 1519   7.310   5.085   0.817 -0.0731  0.0830 -0.3625
    5MOL   C232 1520   7.071   5.050   0.793 -0.4724 -0.3017  0.1115
    5MOL   C233 1521   6.956   5.095   0.740  0.5138  0.0242  0.1737
    5MOL   C234 1522   6.767   5.366   0.706 -0.6117  0.6164  0.0224
    5MOL   H235 1523   6.740   5.167   0.638  1.8202  0.0787  2.3594
    5MOL   H236 1524   7.066   5.377   0.576  1.3084  0.2094  1.2483
    5MOL   H237 1525   7.278   5.277   0.650  1.1334 -3.1136 -1.5186
    5MOL   H238 1526   7.074   4.974   0.869  1.8238  1.9636  2.4129
    5MOL   H239 1527   6.865   5.041   0.761  0.3713  0.8339  1.6897
    5MOL   H240 1528   6.823   5.357   0.800  1.2812 -1.6743 -1.2702
    5MOL   H241 1529   6.810   5.458   0.668 -1.2555  1.5050  1.4046
    5MOL   C242 1530   6.625   5.384   0.745  0.0409  1.0671 -0.1078
    5MOL   C243 1531   6.571   5.262   0.822 -0.5066 -0.3388  0.2607
    5MOL   C244 1532   6.653   5.180   0.903  0.5796  0.0152  1.7822
    5MOL   C245 1533   6.602   5.069   0.973  0.3351 -0.5103 -0.8469
    5MOL   C246 1534   6.461   5.042   0.975 -0.1514 -0.3184 -0.1984
    5MOL   F247 1535   6.413   4.940   1.047  0.0401  0.4624 -0.5706
    5MOL   C248 1536   6.378   5.122   0.887 -0.3801 -0.0864  0.0268
    5MOL   C249 1537   6.434   5.230   0.809  0.2784 -0.3566 -0.6725
    5MOL   C250 1538   6.604   5.515   0.832 -0.2030  0.1663 -0.0736
    5MOL   H251 1539   6.557   5.398   0.661 -1.9919 -1.0696  1.1189
    5MOL   H252 1540   6.759   5.197   0.910  0.7327 -0.2266  0.2113
    5MOL   H253 1541   6.661   4.998   1.028  2.8232 -0.3018 -3.1339
    5MOL   H254 1542   6.274   5.094   0.881  0.0909 -1.6520 -1.3232
    5MOL   H255 1543   6.368   5.293   0.751  0.4483  0.3234 -0.1298
    5MOL   H256 1544   6.512   5.503   0.888 -0.5367 -1.5257 -0.9320
    5MOL   H257 1545   6.683   5.520   0.907 -1.0882 -0.8538  0.9455
    5MOL   C258 1546   6.620   5.648   0.756  0.9434  0.1516  0.3463
    5MOL   C259 1547   6.501   5.684   0.670  0.5325  0.2429 -0.2754
    5MOL   C260 1548   6.375   5.706   0.736 -0.5670  0.0925  0.2030
    5MOL   C261 1549   6.261   5.746   0.660  0.0504  0.6099  0.2913
    5MOL   C262 1550   6.281   5.771   0.522 -0.3216  0.2758  0.3599
    5MOL   F263 1551   6.178   5.812   0.455 -0.4710 -0.8409 -0.2637
    5MOL   C264 1552   6.403   5.753   0.458 -0.1446 -0.2946  0.7936
    5MOL   C265 1553   6.513   5.704   0.532  0.3622  0.2693  0.0350
    5MOL   C266 1554   6.648   5.760   0.855 -0.1286  0.1268 -0.0322
    5MOL   H267 1555   6.703   5.647   0.686  0.4204  0.1150 -0.2822
    5MOL   H268 1556   6.357   5.702   0.843 -0.5779 -1.6539  0.1501
    5MOL   H269 1557   6.172   5.766   0.719  0.1220 -0.1462  0.6524
    5MOL   H270 1558   6.424   5.777   0.355  0.1319 -0.2803  0.8529
    5MOL   H271 1559   6.612   5.687   0.490 -0.1125 -1.0447 -0.5720
    5MOL   H272 1560   6.600   5.852   0.824 -2.2871 -1.0952 -0.4461
    5MOL   H273 1561   6.585   5.748   0.943  1.0745 -1.4123  0.6462
    5MOL   C274 1562   6.796   5.779   0.904  0.5291 -0.0490  0.3667
    5MOL   C275 1563   6.897   5.797   0.795  0.0077 -0.6219  0.0221
    5MOL   C276 1564   6.890   5.912   0.713 -0.7747  1.0590 -0.4502
    5MOL   C277 1565   6.981   5.925   0.607  0.0206  0.2686  0.1106
    5MOL   C278 1566   7.079   5.823   0.584  0.3452 -0.9360  0.9516
    5MOL   F279 1567   7.163   5.838   0.478 -0.4221 -0.1233  0.4048
    5MOL   C280 1568   7.086   5.703   0.664  0.2512  0.0587 -0.2035
    5MOL   C281 1569   6.989   5.691   0.765  0.2161  0.3505  0.4089
    5MOL   C282 1570   6.811   5.897   1.001 -0.4274 -0.6255  0.1705
    5MOL   H283 1571   6.822   5.692   0.964 -1.0052 -0.7734  0.0261
    5MOL   H284 1572   6.812   5.984   0.728 -0.2007  0.7382  5.0283
    5MOL   H285 1573   6.983   6.019   0.554 -3.0738  1.5006  1.9869
    5MOL   H286 1574   7.147   5.617   0.642 -0.4502 -0.7968  1.0530
    5MOL   H287 1575   6.989   5.604   0.829 -3.8752 -0.1740 -0.1633
    5MOL   H288 1576   6.916   5.910   1.029 -0.3675  0.2556 -0.4626
    5MOL   H289 1577   6.781   5.992   0.958  1.4676 -0.5025 -0.9153
    5MOL   C290 1578   6.722   5.906   1.127 -0.3833  0.4010 -0.4213
    5MOL   C291 1579   6.724   5.768   1.203  0.1063  0.1099 -0.3109
    5MOL   C292 1580   6.610   5.681   1.219 -0.0241  0.4173  0.4990
    5MOL   C293 1581   6.615   5.569   1.300 -0.1647  0.4685  0.0016
    5MOL   C294 1582   6.736   5.531   1.365  0.2809 -0.1684  0.5943
    5MOL   F295 1583   6.746   5.420   1.437 -0.1270  0.1359 -0.3558
    5MOL   C296 1584   6.857   5.600   1.339  0.3308  0.3759  0.9024
    5MOL   C297 1585   6.849   5.719   1.260  0.7280  0.1794 -0.0849
    5MOL   C298 1586   6.767   6.028   1.214  0.3307 -0.2354 -0.5855
    5MOL   H299 1587   6.623   5.937   1.091 -1.3133 -0.5876  1.2000
    5MOL   H300 1588   6.514   5.711   1.180  0.6654  1.5540 -0.3517
    5MOL   H301 1589   6.527   5.509   1.317  0.1612  0.0431  0.1979
    5MOL   H302 1590   6.944   5.573   1.397 -0.5026  0.6937  2.3328
    5MOL   H303 1591   6.940   5.774   1.241  0.7434  1.6514  3.8471
    5MOL   H304 1592   6.875   6.015   1.222  0.3342 -0.0711 -0.3675
    5MOL   H305 1593   6.745   6.115   1.151  0.2765  1.1171  1.2730
    5MOL   C306 1594   6.711   6.068   1.349 -0.3491  0.2223  0.9992
    5MOL   C307 1595   6.775   6.201   1.401  0.0075 -0.0901 -0.4462
    5MOL   C308 1596   6.719   6.327   1.367 -0.0883 -0.2044  1.1047
    5MOL   C309 1597   6.781   6.447   1.418  0.9453 -0.0358  0.1812
    5MOL   C310 1598   6.898   6.442   1.491  0.1770 -0.4166 -1.0201
    5MOL   F311 1599   6.948   6.552   1.542  0.7254  0.5890 -0.1807
    5MOL   C312 1600   6.954   6.322   1.526  0.5566  0.0261 -0.5444
    5MOL   C313 1601   6.894   6.202   1.483 -0.6250  0.3017 -0.2581
    5MOL   C314 1602   6.558   6.077   1.346  0.1168 -0.2619  0.4337
    5MOL   H315 1603   6.736   5.984   1.414 -0.0528 -0.9038 -0.5246
    5MOL   H316 1604   6.629   6.329   1.308 -0.1909 -0.4691  1.2503
    5MOL   H317 1605   6.740   6.540   1.381  0.4028  0.6115  2.3136
    5MOL   H318 1606   7.045   6.329   1.584 -0.4833  1.8609  0.8837
    5MOL   H319 1607   6.939   6.109   1.515  0.6962  0.2571 -2.1503
    5MOL   H320 1608   6.524   6.147   1.270 -2.2190 -1.3295  0.4645
    5MOL   H321 1609   6.529   5.977   1.315 -1.7126  0.7023 -1.1100
    5MOL   H322 1610   6.501   6.098   1.436 -3.1461 -1.7146 -1.2158
    6MOL     C1 1611   2.370   5.819   4.300  0.8411  0.0671  0.1281
    6MOL     C2 1612   2.349   5.726   4.186 -0.1005  0.4025  0.0297
    6MOL     C3 1613   2.344   5.586   4.211  0.3700  0.0226 -0.1587
    6MOL     C4 1614   2.303   5.499   4.112 -0.9412 -0.0315 -0.3539
    6MOL     C5 1615   2.275   5.548   3.979  0.1683  0.2404  0.6565
    6MOL     F6 1616   2.218   5.460   3.890  0.1481 -0.1287  0.5889
    6MOL     C7 1617   2.294   5.683   3.957  0.0674  0.6354  0.2820
    6MOL     C8 1618   2.321   5.778   4.061  0.4094  0.2923  0.4282
    6MOL     C9 1619   2.248   5.863   4.383  0.1625 -0.5033  0.3432
    6MOL    H10 1620   2.407   5.912   4.257 -1.5068  0.6146 -0.8169
    6MOL    H11 1621   2.352   5.543   4.310 -0.7301 -0.8778 -0.4476
    6MOL    H12 1622   2.291   5.395   4.137  1.8599  0.1515  2.0555
    6MOL    H13 1623   2.273   5.725   3.860  0.7926  1.7076  0.5779
    6MOL    H14 1624   2.330   5.884   4.043  2.7279 -0.0788 -0.7323
    6MOL    H15 1625   2.266   5.949   4.447 -1.0377 -0.6431  0.8703
    6MOL    H16 1626   2.171   5.898   4.314  0.8064 -1.2606 -0.7763
    6MOL    H17 1627   2.452   5.779   4.360  1.1702  0.4129 -0.0920
    6MOL    C18 1628   2.192   5.753   4.471  0.2523  0.3617  0.4591
    6MOL    C19 1629   2.274   5.711   4.593  0.1745 -0.3684  0.7488
    6MOL    C20 1630   2.297   5.578   4.622  0.0666 -0.1517  0.5235
    6MOL    C21 1631   2.368   5.544   4.739  0.6348 -0.0580  0.1928
    6MOL    C22 1632   2.423   5.643   4.824  0.2217  0.1062 -0.6178
    6MOL    F23 1633   2.501   5.607   4.933  0.1340  0.5195  0.3398
    6MOL    C24 1634   2.390   5.779   4.803  0.0307 -0.4923  0.1197
    6MOL    C25 1635   2.314   5.810   4.687 -0.5822  0.0913 -0.2121
    6MOL    C26 1636   2.051   5.784   4.513  0.1050 -0.6112 -0.4595
    6MOL    H27 1637   2.183   5.659   4.417 -0.6083 -0.1692  1.5039
    6MOL    H28 1638   2.258   5.501   4.557 -2.0190  0.8476  0.5704
    6MOL    H29 1639   2.401   5.446   4.771  1.3246 -0.1024 -0.6219
    6MOL    H30 1640   2.416   5.848   4.882  1.0448 -0.7904  0.0572
    6MOL    H31 1641   2.289   5.914   4.679 -1.5348  0.1492  2.8278
    6MOL    H32 1642   2.031   5.722   4.600 -1.4373  0.1677 -0.2486
    6MOL    H33 1643   2.045   5.885   4.555  2.5273 -0.1099 -1.1969
    6MOL    C34 1644   1.943   5.758   4.414 -0.4966  0.5885  0.3101
    6MOL    C35 1645   1.955   5.618   4.358  0.0506  0.3749 -0.1497
    6MOL    C36 1646   1.919   5.506   4.438 -0.0818 -0.6167 -0.1593
    6MOL    C37 1647   1.913   5.377   4.374  0.3096 -0.1668  0.3624
    6MOL    C38 1648   1.931   5.366   4.235  0.0423 -0.0538 -0.3946
    6MOL    F39 1649   1.915   5.235   4.187  0.1471  0.0034  0.4788
    6MOL    C40 1650   1.975   5.473   4.154  0.4172  0.1946  0.0894
    6MOL    C41 1651   1.989   5.597   4.221  0.3443 -0.0771 -0.1458
    6MOL    C42 1652   1.815   5.782   4.495  0.4821 -0.2720  0.6162
    6MOL    H43 1653   1.956   5.829   4.332  0.1143 -0.8664 -0.8738
    6MOL    H44 1654   1.899   5.523   4.543 -1.2137 -0.6009 -0.3777
    6MOL    H45 1655   1.887   5.287   4.429 -2.7172  0.2613 -0.2556
    6MOL    H46 1656   2.006   5.468   4.050  1.2412 -1.0554  0.3950
    6MOL    H47 1657   2.026   5.676   4.159  1.3858 -1.4925 -1.3574
    6MOL    H48 1658   1.729   5.753   4.435 -0.1769  1.6360  0.5929
    6MOL    H49 1659   1.825   5.726   4.588 -1.3631  1.2274  1.7496
    6MOL    C50 1660   1.768   5.926   4.537  0.4835 -0.2529 -0.4163
    6MOL    C51 1661   1.759   6.015   4.412 -0.0664 -0.2975  0.2672
    6MOL    C52 1662   1.841   6.128   4.398 -0.0293  0.1974 -0.2585
    6MOL    C53 1663   1.829   6.218   4.288  0.0112  0.9306 -0.8389
    6MOL    C54 1664   1.725   6.196   4.196  0.4036  0.4696  0.9875
    6MOL    F55 1665   1.709   6.278   4.092  0.2953  0.0110 -0.6625
    6MOL    C56 1666   1.645   6.079   4.209  0.3234 -0.2397 -0.3301
    6MOL    C57 1667   1.664   5.995   4.317  0.2834  0.2726 -0.8465
    6MOL    C58 1668   1.636   5.933   4.622  0.3207  0.3954 -0.7902
    6MOL    H59 1669   1.832   5.975   4.610  0.5250  0.1351 -0.7074
    6MOL    H60 1670   1.908   6.142   4.482 -1.2775 -1.1290  0.9785
    6MOL    H61 1671   1.897   6.301   4.280 -0.0374  0.9877 -0.6652
    6MOL    H62 1672   1.569   6.050   4.138  0.4083 -0.9355 -0.1354
    6MOL    H63 1673   1.601   5.908   4.327 -2.0522  2.0110 -0.0962
    6MOL    H64 1674   1.630   6.036   4.658  1.4477  0.5900 -1.1537
    6MOL    H65 1675   1.553   5.924   4.552  2.2826 -0.8323 -3.0385
    6MOL    C66 1676   1.630   5.837   4.735  1.3755 -0.4516  0.8006
    6MOL    C67 1677   1.579   5.914   4.859 -0.9657 -0.1951 -0.5467
    6MOL    C68 1678   1.659   5.920   4.975  0.0122  0.3192 -0.1680
    6MOL    C69 1679   1.609   5.989   5.088  0.0715  0.4286  0.4620
    6MOL    C70 1680   1.492   6.067   5.078 -0.7252 -0.3404 -0.3634
    6MOL    F71 1681   1.465   6.156   5.176  0.5151  0.1807 -0.1106
    6MOL    C72 1682   1.409   6.052   4.969  0.4557  0.7117 -0.0464
    6MOL    C73 1683   1.452   5.977   4.858 -0.0666  0.2386  0.3563
    6MOL    C74 1684   1.546   5.712   4.699 -0.0612 -0.3227  0.3545
    6MOL    H75 1685   1.722   5.787   4.763  1.4355 -1.0537 -0.4389
    6MOL    H76 1686   1.758   5.879   4.975 -0.9748 -2.1597 -0.2900
    6MOL    H77 1687   1.675   5.998   5.172  1.8421  0.4406 -0.8976
    6MOL    H78 1688   1.322   6.117   4.967 -1.1715 -1.2512  2.7097
    6MOL    H79 1689   1.387   5.959   4.774  0.2463 -3.8013  0.8865
    6MOL    H80 1690   1.443   5.743   4.684 -0.3056 -1.3802 -0.1508
    6MOL    H81 1691   1.587   5.676   4.604  1.8373  0.1395  0.9759
    6MOL    C82 1692   1.551   5.589   4.797  0.3866 -0.1984 -0.0473
    6MOL    C83 1693   1.433   5.490   4.762  0.3378  0.9466  0.0000
    6MOL    C84 1694   1.328   5.460   4.857 -0.1498  0.0196  1.0286
    6MOL    C85 1695   1.228   5.367   4.823  0.0391  0.0106  0.2769
    6MOL    C86 1696   1.234   5.297   4.702 -0.0954 -0.2945 -0.2048
    6MOL    F87 1697   1.141   5.201   4.668 -0.2693 -0.1963 -0.2054
    6MOL    C88 1698   1.338   5.322   4.616 -0.4000 -0.0830  0.3126
    6MOL    C89 1699   1.435   5.420   4.644 -0.3657  0.1896  0.0535
    6MOL    C90 1700   1.693   5.523   4.793  0.9275  0.6689 -0.2107
    6MOL    H91 1701   1.541   5.633   4.896 -0.2944  1.6827 -0.9250
    6MOL    H92 1702   1.323   5.509   4.953  1.0504 -0.1093  1.1677
    6MOL    H93 1703   1.149   5.348   4.894 -1.0785  2.3661 -0.2938
    6MOL    H94 1704   1.337   5.275   4.519 -3.7121  1.8816 -0.7060
    6MOL    H95 1705   1.519   5.437   4.578  1.8988 -0.2992  2.7228
    6MOL    H96 1706   1.713   5.503   4.688 -0.4161 -1.9840  0.0011
    6MOL    H97 1707   1.771   5.597   4.811 -0.9888  2.5869  0.3596
    6MOL    C98 1708   1.716   5.397   4.884  0.7752 -0.2325 -0.6189
    6MOL    C99 1709   1.836   5.327   4.822  0.4468  0.1923  0.6705
    6MOL   C100 1710   1.813   5.205   4.744 -0.1075 -0.2293 -0.0095
    6MOL   C101 1711   1.920   5.134   4.686  0.6322 -0.4320 -0.2417
    6MOL   C102 1712   2.053   5.172   4.709  0.6229 -0.3617  0.2649
    6MOL   F103 1713   2.155   5.095   4.664 -0.2592 -0.2093 -0.5827
    6MOL   C104 1714   2.075   5.289   4.781 -0.0687  0.1146 -0.2138
    6MOL   C105 1715   1.973   5.364   4.837 -0.1184 -0.7723 -0.5012
    6MOL   C106 1716   1.730   5.433   5.038 -1.0888  0.0207  1.0077
    6MOL   H107 1717   1.630   5.332   4.867  0.7759  0.5341 -3.9120
    6MOL   H108 1718   1.711   5.171   4.736  0.4965 -2.3678  1.0609
    6MOL   H109 1719   1.912   5.046   4.623  1.5438 -0.2171 -0.6695
    6MOL   H110 1720   2.179   5.316   4.795 -0.3680  0.6679  0.9468
    6MOL   H111 1721   1.990   5.438   4.913  0.0509 -2.8481  1.5099
    6MOL   H112 1722   1.782   5.528   5.051  0.1608 -0.5285  0.1152
    6MOL   H113 1723   1.632   5.448   5.083 -1.8790 -3.8673  0.7565
    6MOL   C114 1724   1.797   5.317   5.124  0.9391  0.2141 -0.0575
    6MOL   C115 1725   1.936   5.355   5.178 -0.0258  0.3758 -0.4577
    6MOL   C116 1726   1.948   5.461   5.268  0.6929  0.5455  0.1876
    6MOL   C117 1727   2.072   5.494   5.321  0.6707 -0.1881  0.1584
    6MOL   C118 1728   2.195   5.427   5.289  0.6343  0.0129 -0.1123
    6MOL   F119 1729   2.311   5.460   5.352 -0.3772  0.3923 -0.1135
    6MOL   C120 1730   2.184   5.321   5.198 -0.1905  0.5358  0.7308
    6MOL   C121 1731   2.056   5.281   5.151 -0.1703 -0.3378 -0.0155
    6MOL   C122 1732   1.703   5.277   5.242  0.7827  0.0137  0.7881
    6MOL   H123 1733   1.811   5.232   5.058 -1.4597 -0.8678  0.7626
    6MOL   H124 1734   1.855   5.513   5.286 -1.2634 -3.2500  1.6366
    6MOL   H125 1735   2.061   5.574   5.393  3.4586 -0.6903  1.2016
    6MOL   H126 1736   2.275   5.274   5.163 -0.6668  0.6061 -0.6496
    6MOL   H127 1737   2.065   5.196   5.085  2.0328 -0.6465  0.6115
    6MOL   H128 1738   1.768   5.237   5.320  0.2196 -2.4706  0.0565
    6MOL   H129 1739   1.662   5.363   5.295  0.2953  0.1777  0.1583
    6MOL   C130 1740   1.593   5.162   5.203  0.6495  0.0998  0.5769
    6MOL   C131 1741   1.642   5.035   5.136 -0.6771 -0.0016 -0.3420
    6MOL   C132 1742   1.638   5.022   4.993 -0.5952  0.2094  0.0409
    6MOL   C133 1743   1.689   4.904   4.937 -0.0460 -0.4422 -0.3593
    6MOL   C134 1744   1.745   4.802   5.015 -0.4597 -0.3134 -0.2345
    6MOL   F135 1745   1.790   4.690   4.951  0.7249 -0.3972  0.1375
    6MOL   C136 1746   1.742   4.807   5.155  0.2482 -0.6986  0.1105
    6MOL   C137 1747   1.688   4.925   5.212 -0.1584 -0.5122  0.5416
    6MOL   C138 1748   1.491   5.125   5.318  1.2484  0.2846 -0.5894
    6MOL   H139 1749   1.538   5.213   5.124  0.0320  0.1539  1.0365
    6MOL   H140 1750   1.595   5.098   4.929  0.9948  0.2676 -1.0097
    6MOL   H141 1751   1.688   4.898   4.829 -1.8716  1.7576 -0.5227
    6MOL   H142 1752   1.769   4.720   5.213 -2.7237 -1.9578 -0.3274
    6MOL   H143 1753   1.692   4.936   5.320 -0.7593  1.0419  0.4154
    6MOL   H144 1754   1.478   5.018   5.333  0.0845  0.6173  0.8215
    6MOL   H145 1755   1.536   5.160   5.412 -0.8042 -0.7877  0.8269
    6MOL   C146 1756   1.342   5.189   5.308  0.6770 -0.3018 -0.0790
    6MOL   C147 1757   1.242   5.146   5.418  0.1290  0.5580  0.2795
    6MOL   C148 1758   1.266   5.177   5.552 -0.2162  0.2949  0.7488
    6MOL   C149 1759   1.168   5.141   5.648 -0.0010 -1.6181  0.6199
    6MOL   C150 1760   1.059   5.059   5.617 -0.0989 -0.0655 -0.3618
    6MOL   F151 1761   0.971   5.033   5.717  0.1560 -0.0776  0.0510
    6MOL   C152 1762   1.036   5.022   5.484  0.0371  0.5038 -0.1237
    6MOL   C153 1763   1.126   5.075   5.386 -0.1232  0.1807  0.2130
    6MOL   C154 1764   1.353   5.342   5.294  0.9466 -0.3820 -0.0769
    6MOL   H155 1765   1.306   5.157   5.210  5.3853 -0.8689 -1.7758
    6MOL   H156 1766   1.350   5.235   5.586  0.4462  0.1451 -0.6235
    6MOL   H157 1767   1.183   5.170   5.751  0.4029 -1.0009  0.3888
    6MOL   H158 1768   0.949   4.969   5.450  0.7756 -1.2306  0.6306
    6MOL   H159 1769   1.120   5.049   5.281 -1.0463 -1.3228  0.6216
    6MOL   H160 1770   1.421   5.383   5.369  0.2807  2.0039 -0.7367
    6MOL   H161 1771   1.403   5.365   5.201  0.8921  0.2076  0.0371
    6MOL   C162 1772   1.225   5.424   5.312  0.0537  0.0587 -0.8422
    6MOL   C163 1773   1.262   5.572   5.334  0.0003 -0.5504  0.1780
    6MOL   C164 1774   1.184   5.650   5.419 -0.3723  0.0692 -0.6589
    6MOL   C165 1775   1.216   5.785   5.454 -0.2198 -0.0799  0.1890
    6MOL   C166 1776   1.337   5.838   5.405 -0.0193  0.7308  0.3118
    6MOL   F167 1777   1.378   5.962   5.436 -0.0603  0.2198 -0.1188
    6MOL   C168 1778   1.415   5.767   5.312  0.4495 -0.2256 -0.8386
    6MOL   C169 1779   1.374   5.637   5.277 -0.1770 -0.6934 -0.5280
    6MOL   C170 1780   1.125   5.395   5.195 -0.1486 -0.1797  0.7969
    6MOL   H171 1781   1.183   5.395   5.408  1.3651  2.5724  0.5429
    6MOL   H172 1782   1.104   5.595   5.467  1.5852 -1.9251  0.3551
    6MOL   H173 1783   1.168   5.842   5.532  0.8433 -2.0338  2.3185
    6MOL   H174 1784   1.492   5.821   5.260 -0.5032  1.0909 -0.8990
    6MOL   H175 1785   1.434   5.579   5.209 -2.0865 -1.9094 -1.2100
    6MOL   H176 1786   1.178   5.439   5.110  0.5783 -1.9536  0.3124
    6MOL   H177 1787   1.123   5.287   5.187 -0.3907 -0.3206  2.5670
    6MOL   C178 1788   0.988   5.458   5.201 -0.0596 -0.5486 -0.0811
    6MOL   C179 1789   0.914   5.454   5.066  0.3875  1.2063  0.4178
    6MOL   C180 1790   0.878   5.574   5.000 -0.5535  0.3554  0.3389
    6MOL   C181 1791   0.813   5.574   4.873 -0.2370  0.1291  0.3692
    6MOL   C182 1792   0.773   5.447   4.822 -0.0748 -0.0435  0.0695
    6MOL   F183 1793   0.708   5.444   4.704 -0.0950 -0.5089  0.1091
    6MOL   C184 1794   0.801   5.332   4.890  0.0475 -0.5722 -0.1136
    6MOL   C185 1795   0.875   5.332   5.009 -0.2006  0.4611 -0.1059
    6MOL   C186 1796   0.906   5.402   5.316 -0.2974 -0.5738 -0.2465
    6MOL   H187 1797   1.011   5.563   5.216 -3.2853  0.5558 -2.3387
    6MOL   H188 1798   0.914   5.669   5.035 -0.8304  1.4681 -2.2995
    6MOL   H189 1799   0.786   5.662   4.816  1.5302 -0.9771 -2.2549
    6MOL   H190 1800   0.772   5.233   4.859 -0.4077 -0.5662  0.2852
    6MOL   H191 1801   0.898   5.237   5.056 -1.0034  0.1587 -0.3135
    6MOL   H192 1802   0.886   5.298   5.289  0.2008 -0.3618 -1.4429
    6MOL   H193 1803   0.968   5.403   5.405  0.4892  0.0002 -0.7933
    6MOL   C194 1804   0.771   5.470   5.347  0.4280 -0.1320  0.4025
    6MOL   C195 1805   0.698   5.401   5.458 -0.8259  0.8059 -0.2115
    6MOL   C196 1806   0.752   5.390   5.589 -0.0826  0.6759 -0.0215
    6MOL   C197 1807   0.684   5.327   5.694  1.4112  0.1770  0.3009
    6MOL   C198 1808   0.551   5.273   5.675 -0.5116  0.2203 -0.5168
    6MOL   F199 1809   0.486   5.208   5.774  0.4351 -0.2852 -0.6739
    6MOL   C200 1810   0.500   5.280   5.548  0.0238 -0.3508 -0.0832
    6MOL   C201 1811   0.572   5.337   5.444  0.5390  0.0538  0.4815
    6MOL   C202 1812   0.797   5.622   5.380  0.1842  0.7625 -0.7337
    6MOL   H203 1813   0.705   5.465   5.260  1.8618  0.4656 -0.7424
    6MOL   H204 1814   0.853   5.418   5.616 -0.3675  1.4470  0.2947
    6MOL   H205 1815   0.730   5.320   5.791 -1.4488  1.0803  1.7834
    6MOL   H206 1816   0.404   5.237   5.524  0.1158 -0.3951 -0.3641
    6MOL   H207 1817   0.537   5.342   5.342  0.3483  0.8624  0.5752
    6MOL   H208 1818   0.872   5.620   5.459 -1.2061  0.1434  0.5932
    6MOL   H209 1819   0.844   5.668   5.293 -0.4650  0.6031 -1.1732
    6MOL   C210 1820   0.675   5.705   5.421 -0.1179  0.5505  0.6113
    6MOL   C211 1821   0.641   5.689   5.565 -0.1445 -0.4147 -0.5134
    6MOL   C212 1822   0.741   5.717   5.656 -0.1717 -0.2853  0.0709
    6MOL   C213 1823   0.717   5.697   5.794 -0.0214  0.2239 -0.3123
    6MOL   C214 1824   0.592   5.657   5.844  0.1155 -0.6909  0.4628
    6MOL   F215 1825   0.563   5.648   5.970  0.7019  0.5141 -0.1664
    6MOL   C216 1826   0.491   5.624   5.747  0.7007  0.3991  0.7325
    6MOL   C217 1827   0.515   5.645   5.612 -0.7942  0.5763  0.1389
    6MOL   C218 1828   0.690   5.855   5.381  0.8075 -0.3506  0.4872
    6MOL   H219 1829   0.592   5.663   5.364  1.2512 -0.8171 -0.4101
    6MOL   H220 1830   0.840   5.744   5.623 -0.8652  1.7348 -0.4205
    6MOL   H221 1831   0.797   5.716   5.863  0.9800 -1.6993 -0.9249
    6MOL   H222 1832   0.403   5.575   5.785  0.2662  0.9615  0.4494
    6MOL   H223 1833   0.432   5.631   5.544 -1.0424  0.8966  0.3678
    6MOL   H224 1834   0.616   5.909   5.441  1.6062 -0.9376  2.0315
    6MOL   H225 1835   0.786   5.886   5.421  0.4021  0.4115  0.8923
    6MOL   C226 1836   0.678   5.882   5.233 -0.0562 -0.4449 -0.0881
    6MOL   C227 1837   0.542   5.833   5.179 -0.1367 -0.2525  0.4953
    6MOL   C228 1838   0.426   5.872   5.251  0.3371 -0.3254  0.4713
    6MOL   C229 1839   0.299   5.841   5.193  0.0287  0.0680 -0.4702
    6MOL   C230 1840   0.281   5.768   5.077  0.6328 -0.6184  0.5853
    6MOL   F231 1841   0.158   5.735   5.038 -0.1639  0.1341 -0.0643
    6MOL   C232 1842   0.397   5.730   5.006 -0.0711  0.4220 -0.1959
    6MOL   C233 1843   0.527   5.769   5.058 -0.0262  0.5053  0.1569
    6MOL   C234 1844   0.700   6.040   5.200 -0.5284  0.0178 -0.5989
    6MOL   H235 1845   0.750   5.816   5.183 -1.8922 -2.5532 -0.0326
    6MOL   H236 1846   0.432   5.922   5.347  2.4661 -1.7911  1.1365
    6MOL   H237 1847   0.210   5.877   5.243 -0.1225  0.6533 -1.1646
    6MOL   H238 1848   0.395   5.662   4.922  1.5736 -0.7182  0.6361
    6MOL   H239 1849   0.616   5.725   5.014 -0.6827 -3.2836  2.4448
    6MOL   H240 1850   0.667   6.059   5.098  0.1711 -1.4936 -1.1212
    6MOL   H241 1851   0.641   6.097   5.271  0.9301 -0.3368  0.9397
    6MOL   C242 1852   0.850   6.087   5.192 -0.0762 -0.4872  0.2536
    6MOL   C243 1853   0.949   6.004   5.110  0.3278 -0.3006  0.5346
    6MOL   C244 1854   1.057   5.939   5.171  0.9693 -0.0496 -0.5628
    6MOL   C245 1855   1.139   5.861   5.087 -0.2032  0.0245  0.2065
    6MOL   C246 1856   1.124   5.857   4.948 -0.6203 -0.7997 -0.4005
    6MOL   F247 1857   1.206   5.775   4.880  0.0905  0.5883 -0.2916
    6MOL   C248 1858   1.019   5.929   4.883 -0.5397 -0.3227  1.1099
    6MOL   C249 1859   0.931   6.001   4.970  0.4129  0.4328  0.2550
    6MOL   C250 1860   0.845   6.241   5.143 -0.4987  0.4153 -0.4288
    6MOL   H251 1861   0.906   6.096   5.285  0.6312 -0.8739 -0.1332
    6MOL   H252 1862   1.077   5.950   5.277 -0.0778 -0.2782 -0.3352
    6MOL   H253 1863   1.209   5.789   5.128 -0.9119  0.3504  2.0268
    6MOL   H254 1864   1.008   5.932   4.775 -1.1329  2.9143  1.1984
    6MOL   H255 1865   0.842   6.046   4.928 -0.8715 -0.7491  1.6678
    6MOL   H256 1866   0.778   6.235   5.058 -1.1841  2.5586 -0.0657
    6MOL   H257 1867   0.784   6.292   5.218  0.1312  1.4128 -0.5844
    6MOL   C258 1868   0.971   6.317   5.098 -0.4032  0.0776  0.6204
    6MOL   C259 1869   0.927   6.426   5.005  0.6309  0.2219  0.4912
    6MOL   C260 1870   0.851   6.537   5.052 -0.3049 -0.0779 -0.1166
    6MOL   C261 1871   0.794   6.631   4.964 -0.1209  0.2175  0.4875
    6MOL   C262 1872   0.819   6.621   4.829 -0.4154  0.7095 -0.0117
    6MOL   F263 1873   0.752   6.703   4.747  0.4224  0.4418  0.2104
    6MOL   C264 1874   0.890   6.506   4.779  0.1135 -0.1745  0.2391
    6MOL   C265 1875   0.941   6.409   4.863 -0.0940  0.2129 -0.9035
    6MOL   C266 1876   1.062   6.359   5.219 -0.0328 -0.2971  0.8589
    6MOL   H267 1877   1.023   6.242   5.039  0.1389 -0.6533  1.9867
    6MOL   H268 1878   0.839   6.559   5.157  1.1627  0.7165 -0.0913
    6MOL   H269 1879   0.733   6.712   5.002 -0.6840 -0.2458  0.5741
    6MOL   H270 1880   0.897   6.492   4.673 -0.8757 -0.1897  0.1646
    6MOL   H271 1881   0.985   6.317   4.826 -0.5567  0.1385 -1.2682
    6MOL   H272 1882   0.995   6.388   5.300  0.3917  0.1623  1.0463
    6MOL   H273 1883   1.112   6.268   5.251  0.5525 -0.7262 -1.2321
    6MOL   C274 1884   1.165   6.468   5.185 -0.5476 -0.0427  0.0506
    6MOL   C275 1885   1.214   6.544   5.308  0.2008 -0.2235 -0.4391
    6MOL   C276 1886   1.195   6.682   5.334  0.7648  0.0845  0.5169
    6MOL   C277 1887   1.236   6.735   5.455  0.2102 -0.0018  0.6084
    6MOL   C278 1888   1.308   6.654   5.548 -0.1372 -0.2842  0.0777
    6MOL   F279 1889   1.370   6.707   5.659  0.0469  0.3564  0.2339
    6MOL   C280 1890   1.348   6.523   5.517  0.4539  0.4327 -0.0654
    6MOL   C281 1891   1.287   6.466   5.402 -0.5131  0.1648 -0.4610
    6MOL   C282 1892   1.274   6.417   5.095  0.0487 -0.6722 -0.8937
    6MOL   H283 1893   1.112   6.550   5.137 -2.1102 -1.8363 -1.3518
    6MOL   H284 1894   1.142   6.743   5.262  1.6410 -2.0778 -2.0357
    6MOL   H285 1895   1.224   6.838   5.486  0.4352  0.3648 -0.5277
    6MOL   H286 1896   1.411   6.466   5.584 -1.2318  0.7048  1.7753
    6MOL   H287 1897   1.310   6.366   5.370 -0.1301  0.0547  0.1448
    6MOL   H288 1898   1.327   6.336   5.146 -1.8687 -1.0563  0.5396
    6MOL   H289 1899   1.228   6.391   5.000 -1.1375  0.7993 -0.7381
    6MOL   C290 1900   1.388   6.509   5.051  0.3186  0.0501 -0.3498
    6MOL   C291 1901   1.483   6.441   4.948 -0.0405 -0.1116 -0.0445
    6MOL   C292 1902   1.444   6.406   4.814 -0.1614 -0.4881  0.3432
    6MOL   C293 1903   1.536   6.342   4.731  0.0356  0.4561 -0.6509
    6MOL   C294 1904   1.661   6.307   4.777  0.8208 -0.4367  0.0503
    6MOL   F295 1905   1.748   6.233   4.711 -0.2134 -0.1969  0.0892
    6MOL   C296 1906   1.705   6.347   4.905  0.1700  0.1142  0.2421
    6MOL   C297 1907   1.613   6.400   4.996  0.0762  0.3675 -0.1528
    6MOL   C298 1908   1.328   6.642   4.987 -0.2888  0.2853  0.0928
    6MOL   H299 1909   1.440   6.545   5.140 -2.1775  0.1809  1.0894
    6MOL   H300 1910   1.343   6.417   4.777  0.0390  1.0856  0.2077
    6MOL   H301 1911   1.512   6.309   4.631  1.0687  0.2102 -0.8248
    6MOL   H302 1912   1.806   6.330   4.941  1.5337  1.4413 -2.7754
    6MOL   H303 1913   1.656   6.428   5.091 -0.7260  0.6171  0.1462
    6MOL   H304 1914   1.249   6.614   4.917 -0.7985 -0.6221  1.0172
    6MOL   H305 1915   1.276   6.692   5.068 -1.4976 -1.4258  0.3894
    6MOL   C306 1916   1.432   6.738   4.920 -0.1232  0.3006  0.7525
    6MOL   C307 1917   1.377   6.801   4.794  0.1002  0.1440  0.0074
    6MOL   C308 1918   1.279   6.903   4.792  0.5777 -0.0793 -0.5417
    6MOL   C309 1919   1.244   6.978   4.680  0.4233  0.6376  0.2140
    6MOL   C310 1920   1.306   6.940   4.560 -0.2581 -0.0848  0.4638
    6MOL   F311 1921   1.288   7.000   4.444  0.1417  0.3274  0.2133
    6MOL   C312 1922   1.400   6.835   4.553 -0.2793  0.1271 -0.1832
    6MOL   C313 1923   1.435   6.769   4.672  0.2972 -0.2543  1.5602
    6MOL   C314 1924   1.486   6.842   5.023  0.2643  0.1023  0.9392
    6MOL   H315 1925   1.522   6.682   4.893  0.2342  1.1733  0.0977
    6MOL   H316 1926   1.236   6.936   4.885  0.1834 -0.4215 -0.6035
    6MOL   H317 1927   1.169   7.054   4.695 -1.2982 -1.1163  0.7619
    6MOL   H318 1928   1.443   6.805   4.458 -0.5682  0.1289 -0.3156
    6MOL   H319 1929   1.508   6.690   4.664 -0.1372 -1.0111  4.3937
    6MOL   H320 1930   1.541   6.802   5.108  2.1245 -0.4021 -0.4610
    6MOL   H321 1931   1.545   6.926   4.985 -0.9291  0.0320 -1.1268
    6MOL   H322 1932   1.400   6.896   5.061 -0.6171 -0.9792  0.4761
    7MOL     C1 1933   7.209   4.366   3.368 -0.2352  0.8652 -0.9384
    7MOL     C2 1934   7.218   4.244   3.282 -0.5793  0.4067  0.7614
    7MOL     C3 1935   7.326   4.233   3.191  0.2982  0.0435  0.5275
    7MOL     C4 1936   7.343   4.116   3.114  0.1925  0.0084  0.7965
    7MOL     C5 1937   7.243   4.019   3.117  0.3382  0.5755  0.7746
    7MOL     F6 1938   7.257   3.906   3.038  0.3795 -0.2668  0.0387
    7MOL     C7 1939   7.142   4.025   3.211  0.2324  0.6871  0.4174
    7MOL     C8 1940   7.131   4.136   3.299 -0.2445 -0.7709  0.3137
    7MOL     C9 1941   7.237   4.342   3.516  0.0553 -0.1155  0.7669
    7MOL    H10 1942   7.110   4.411   3.362 -0.3645  0.6676 -0.3209
    7MOL    H11 1943   7.393   4.317   3.190 -0.4870  0.6763 -0.0562
    7MOL    H12 1944   7.417   4.109   3.036  0.6610  1.5479  1.0999
    7MOL    H13 1945   7.071   3.943   3.211  0.2840  0.6434 -0.1004
    7MOL    H14 1946   7.056   4.149   3.376  1.2112  1.7122  1.3648
    7MOL    H15 1947   7.170   4.262   3.548  0.9188 -1.2894 -0.2741
    7MOL    H16 1948   7.334   4.291   3.513 -0.0348 -0.2551  0.1014
    7MOL    H17 1949   7.272   4.445   3.326  1.0564 -1.4942 -3.5724
    7MOL    C18 1950   7.232   4.453   3.624  0.1704  0.7138 -0.8491
    7MOL    C19 1951   7.093   4.530   3.624  0.5299 -0.5137 -0.2753
    7MOL    C20 1952   6.984   4.467   3.691  0.0989 -0.2187 -0.5413
    7MOL    C21 1953   6.861   4.533   3.705 -0.4155 -0.4511  0.2991
    7MOL    C22 1954   6.841   4.649   3.632 -1.0036 -0.0138  0.4062
    7MOL    F23 1955   6.723   4.710   3.632 -0.9245  0.5037  0.0225
    7MOL    C24 1956   6.943   4.698   3.544 -0.0620 -0.6870  0.1982
    7MOL    C25 1957   7.069   4.640   3.547 -0.3800 -0.3137  1.2855
    7MOL    C26 1958   7.280   4.412   3.761  0.9020  0.0235 -0.0404
    7MOL    H27 1959   7.296   4.533   3.588  1.4425  0.6652  1.2031
    7MOL    H28 1960   6.990   4.375   3.748  1.7783 -0.7123 -1.4737
    7MOL    H29 1961   6.781   4.498   3.769 -0.8634  0.4145  0.2313
    7MOL    H30 1962   6.916   4.784   3.484 -1.9712 -1.1338  0.3854
    7MOL    H31 1963   7.150   4.693   3.498 -1.9644  0.7315 -0.2701
    7MOL    H32 1964   7.255   4.492   3.831 -0.1717 -1.6586  1.5685
    7MOL    H33 1965   7.235   4.318   3.795 -1.9377  1.9373  1.7081
    7MOL    C34 1966   7.431   4.403   3.774 -0.3633  1.3270  0.3712
    7MOL    C35 1967   7.500   4.543   3.784 -0.2872 -0.0155  0.1735
    7MOL    C36 1968   7.493   4.614   3.906  0.0539 -0.4377  0.1151
    7MOL    C37 1969   7.549   4.738   3.915 -0.0685  0.6317 -0.8763
    7MOL    C38 1970   7.614   4.801   3.809  0.0118  0.3729  0.8492
    7MOL    F39 1971   7.662   4.925   3.816  0.2098 -0.3269  0.2110
    7MOL    C40 1972   7.630   4.729   3.685 -0.3528 -0.2707  0.0732
    7MOL    C41 1973   7.570   4.600   3.674  0.2040 -1.4483  0.0688
    7MOL    C42 1974   7.479   4.317   3.896 -0.2750 -0.2262  0.0495
    7MOL    H43 1975   7.474   4.354   3.687  1.8512  0.5174  1.8582
    7MOL    H44 1976   7.443   4.581   3.996 -0.6049  0.2059 -0.0077
    7MOL    H45 1977   7.532   4.796   4.005 -0.8741  0.3387 -0.8385
    7MOL    H46 1978   7.680   4.778   3.603 -1.6961 -1.7324 -1.6633
    7MOL    H47 1979   7.573   4.557   3.574  1.6139 -0.2032 -0.4431
    7MOL    H48 1980   7.582   4.345   3.918 -1.2163  2.9344  0.6728
    7MOL    H49 1981   7.423   4.347   3.985  0.8008  0.8482  0.3778
    7MOL    C50 1982   7.453   4.165   3.887 -0.5997 -0.2462  0.6327
    7MOL    C51 1983   7.483   4.109   3.747  0.0177 -1.0042 -0.4788
    7MOL    C52 1984   7.611   4.113   3.690  0.3198  0.3152  0.1833
    7MOL    C53 1985   7.628   4.071   3.557 -0.0827 -0.3044  0.5898
    7MOL    C54 1986   7.519   4.028   3.483 -0.3236  0.1358  0.7080
    7MOL    F55 1987   7.543   4.001   3.345  0.2806  0.3535 -0.1695
    7MOL    C56 1988   7.392   4.010   3.544  1.1560  0.1845  0.3499
    7MOL    C57 1989   7.374   4.059   3.673  0.3315 -0.2167 -0.3223
    7MOL    C58 1990   7.525   4.098   4.004  0.5702 -0.5156 -0.2452
    7MOL    H59 1991   7.346   4.149   3.900 -0.7295  0.5316  0.5873
    7MOL    H60 1992   7.687   4.160   3.750 -0.1215 -0.1951  1.1365
    7MOL    H61 1993   7.728   4.078   3.517  0.4237 -1.9965  1.5086
    7MOL    H62 1994   7.319   3.986   3.468  1.9538 -1.3429  0.0400
    7MOL    H63 1995   7.276   4.059   3.716  0.4552  0.3382 -0.0282
    7MOL    H64 1996   7.546   3.993   3.985 -1.0406 -0.8342 -0.3314
    7MOL    H65 1997   7.623   4.142   4.022 -0.3273  1.2888  0.3058
    7MOL    C66 1998   7.432   4.111   4.131  0.6091 -0.0731  0.1303
    7MOL    C67 1999   7.312   4.017   4.109 -0.1212 -0.2104 -0.2864
    7MOL    C68 2000   7.175   4.059   4.127  0.3009  0.1127 -0.1261
    7MOL    C69 2001   7.066   3.969   4.120 -0.3108 -0.1984 -0.2369
    7MOL    C70 2002   7.091   3.832   4.115  1.1085  0.5292 -0.2071
    7MOL    F71 2003   6.991   3.732   4.129  0.3689 -0.1403  0.5076
    7MOL    C72 2004   7.218   3.784   4.108  0.3877 -0.0254  0.0001
    7MOL    C73 2005   7.325   3.877   4.101 -0.5971  0.1672 -0.0390
    7MOL    C74 2006   7.512   4.076   4.259  0.2413  0.4912  0.0625
    7MOL    H75 2007   7.400   4.214   4.143 -1.1065 -0.5660  0.0357
    7MOL    H76 2008   7.156   4.163   4.150 -1.1676 -0.3475  0.7994
    7MOL    H77 2009   6.966   4.009   4.128 -1.2101 -2.1558 -1.4504
    7MOL    H78 2010   7.235   3.678   4.118 -2.1126 -0.8468 -3.4828
    7MOL    H79 2011   7.423   3.833   4.105 -1.0697 -0.8897  0.1948
    7MOL    H80 2012   7.433   4.087   4.333  0.8219  1.2016  0.5854
    7MOL    H81 2013   7.544   3.972   4.257 -1.5979 -0.0857 -0.3997
    7MOL    C82 2014   7.632   4.176   4.297  0.5457 -0.9990 -0.2604
    7MOL    C83 2015   7.595   4.330   4.300 -0.7538  0.0316  0.7382
    7MOL    C84 2016   7.695   4.425   4.264  0.2342 -0.0375  0.5445
    7MOL    C85 2017   7.667   4.561   4.260  0.2031 -1.0118  0.1326
    7MOL    C86 2018   7.545   4.615   4.293 -0.2774  0.3259  0.5650
    7MOL    F87 2019   7.519   4.745   4.288 -0.4981 -0.2585 -0.7701
    7MOL    C88 2020   7.450   4.523   4.344 -0.5886 -0.7297  0.8746
    7MOL    C89 2021   7.475   4.382   4.340 -0.2588  0.6142  0.1497
    7MOL    C90 2022   7.706   4.136   4.423 -0.3890 -0.1152  0.2929
    7MOL    H91 2023   7.707   4.170   4.218  0.4863 -1.8588 -0.2582
    7MOL    H92 2024   7.787   4.380   4.230 -0.3697 -0.8556 -0.0062
    7MOL    H93 2025   7.744   4.626   4.221 -0.6090 -0.8357 -1.2505
    7MOL    H94 2026   7.351   4.557   4.373 -0.8308 -1.0942  0.4887
    7MOL    H95 2027   7.407   4.309   4.379  1.4655  0.1501  2.4231
    7MOL    H96 2028   7.755   4.229   4.453 -0.3109  0.5999 -1.9486
    7MOL    H97 2029   7.633   4.109   4.499 -2.3080  2.1342 -0.6894
    7MOL    C98 2030   7.815   4.031   4.411  0.4580 -0.6886 -0.6952
    7MOL    C99 2031   7.920   4.058   4.296  0.4737  0.0106 -0.4088
    7MOL   C100 2032   7.944   3.964   4.195  0.1835  0.1886 -0.1854
    7MOL   C101 2033   8.048   3.983   4.101 -0.2147  0.4482  0.1154
    7MOL   C102 2034   8.138   4.089   4.110  0.0539  0.2451 -0.6228
    7MOL   F103 2035   0.010   4.111   4.025 -0.0502 -0.3474  0.5300
    7MOL   C104 2036   8.116   4.177   4.215  1.1556 -0.1551  0.2913
    7MOL   C105 2037   8.001   4.171   4.299  0.7892  0.2253 -0.1344
    7MOL   C106 2038   7.878   3.993   4.547 -0.0330  0.4651  0.3976
    7MOL   H107 2039   7.759   3.944   4.377 -1.0941 -0.6230  1.6208
    7MOL   H108 2040   7.873   3.883   4.186  0.7135 -0.4307  1.0614
    7MOL   H109 2041   8.061   3.915   4.018 -0.7993  1.7947 -1.0906
    7MOL   H110 2042   8.184   4.261   4.220  2.2839 -1.1288  1.6891
    7MOL   H111 2043   7.994   4.236   4.385  4.0754 -0.6013  0.8325
    7MOL   H112 2044   7.904   4.082   4.604 -0.7016  1.2924 -0.5633
    7MOL   H113 2045   7.795   3.957   4.607 -1.2236  2.3153 -0.0924
    7MOL   C114 2046   8.007   3.906   4.551  0.0886 -0.1321 -0.3428
    7MOL   C115 2047   8.065   3.907   4.693 -0.7162 -0.2682  0.8948
    7MOL   C116 2048   8.175   3.989   4.717 -0.2703  0.2772  0.1002
    7MOL   C117 2049   8.231   3.980   4.849 -0.1036 -0.1486 -0.7494
    7MOL   C118 2050   8.171   3.902   4.951 -0.3112 -0.6917 -0.0866
    7MOL   F119 2051   8.221   3.909   5.079 -0.3907 -0.1149 -0.2192
    7MOL   C120 2052   8.057   3.829   4.926 -0.2017  0.6364 -0.2524
    7MOL   C121 2053   8.003   3.830   4.793 -0.0300  0.1966  0.6286
    7MOL   C122 2054   8.006   3.753   4.502  0.0987 -0.3132 -0.4290
    7MOL   H123 2055   8.082   3.948   4.484 -1.0440 -0.9223 -2.1504
    7MOL   H124 2056   8.224   4.057   4.649  1.5215 -0.8135  0.2446
    7MOL   H125 2057   0.085   4.039   4.865 -0.1007 -0.8201  1.8934
    7MOL   H126 2058   8.003   3.776   5.003  0.3591  1.2956  0.6047
    7MOL   H127 2059   7.919   3.768   4.767 -0.0064  0.0334  0.9447
    7MOL   H128 2060   7.928   3.697   4.553 -1.3000  0.9257 -1.1769
    7MOL   H129 2061   7.980   3.757   4.396 -2.8341  0.5662  0.2686
    7MOL   C130 2062   8.143   3.689   4.512  0.1741  0.2492  0.1122
    7MOL   C131 2063   8.124   3.542   4.479  0.5904 -0.3847  0.1914
    7MOL   C132 2064   8.163   3.447   4.575  0.3251  0.2077 -0.0188
    7MOL   C133 2065   8.142   3.308   4.564  0.4378 -0.1833 -0.0324
    7MOL   C134 2066   8.083   3.269   4.435  0.3848  0.3752  0.0536
    7MOL   F135 2067   8.077   3.137   4.408 -0.2064 -0.2862  0.2548
    7MOL   C136 2068   8.040   3.360   4.338 -0.7004 -0.2438  0.0928
    7MOL   C137 2069   8.070   3.496   4.353 -0.5259  0.7168 -0.4361
    7MOL   C138 2070   0.010   3.744   4.410 -0.2791 -0.0518 -0.0634
    7MOL   H139 2071   8.190   3.709   4.608  0.5225  3.3712 -0.6560
    7MOL   H140 2072   8.207   3.491   4.663 -0.0487  1.1588 -0.3010
    7MOL   H141 2073   8.172   3.236   4.639 -0.9889 -1.5780 -0.7589
    7MOL   H142 2074   7.990   3.331   4.247  0.6141  2.3152 -1.5066
    7MOL   H143 2075   8.061   3.561   4.267 -0.9269  3.9774  1.9685
    7MOL   H144 2076   8.209   3.722   4.310 -2.1639 -1.2830  0.8561
    7MOL   H145 2077   0.029   3.850   4.426  0.7345 -0.3917  1.1202
    7MOL   C146 2078   0.148   3.677   4.404  0.2175 -0.9488 -0.0698
    7MOL   C147 2079   0.214   3.713   4.278  0.5413  0.7384 -0.5417
    7MOL   C148 2080   0.235   3.845   4.240 -0.7671 -0.4294  0.4225
    7MOL   C149 2081   0.289   3.880   4.117 -0.2160  0.8108  0.2715
    7MOL   C150 2082   0.339   3.782   4.032  0.7292 -0.3547  0.0392
    7MOL   F151 2083   0.396   3.817   3.913 -0.5155 -0.1828 -0.1753
    7MOL   C152 2084   0.321   3.645   4.066 -0.1608  0.2687 -0.2361
    7MOL   C153 2085   0.252   3.615   4.183  0.2070 -0.2093 -0.4218
    7MOL   C154 2086   0.224   3.701   4.528 -1.2162  0.6548  0.6016
    7MOL   H155 2087   0.127   3.572   4.384  0.6632 -1.2859  1.2348
    7MOL   H156 2088   0.214   3.928   4.306  2.3025  1.5506 -0.9851
    7MOL   H157 2089   0.291   3.983   4.084 -1.6932  0.5268 -0.7683
    7MOL   H158 2090   0.367   3.567   4.007  1.1269  0.4469  0.5132
    7MOL   H159 2091   0.239   3.512   4.210  2.1228 -0.5914 -0.8947
    7MOL   H160 2092   0.219   3.810   4.540 -0.1255  0.9217 -1.1627
    7MOL   H161 2093   0.173   3.653   4.611 -1.0372  0.1507  0.4162
    7MOL   C162 2094   0.369   3.650   4.543  0.3234 -0.1399  0.2602
    7MOL   C163 2095   0.367   3.495   4.519  0.1649 -0.7413  0.7057
    7MOL   C164 2096   0.297   3.419   4.618 -0.1200 -0.2826 -0.0678
    7MOL   C165 2097   0.269   3.285   4.597 -0.2331 -0.3872 -0.2558
    7MOL   C166 2098   0.298   3.221   4.476 -0.0026  0.4145 -0.0683
    7MOL   F167 2099   0.268   3.092   4.448  0.3560  0.3497 -0.0090
    7MOL   C168 2100   0.365   3.295   4.376 -0.5002 -0.1656 -0.4658
    7MOL   C169 2101   0.409   3.431   4.403 -0.5762  0.2683  0.4560
    7MOL   C170 2102   0.477   3.729   4.456 -0.5581  0.2717 -0.2626
    7MOL   H171 2103   0.403   3.675   4.644 -1.3190  0.7380  0.6161
    7MOL   H172 2104   0.265   3.468   4.709 -0.1109  0.3574 -0.4076
    7MOL   H173 2105   0.220   3.232   4.677 -0.5361  0.9397  0.4471
    7MOL   H174 2106   0.396   3.243   4.287  0.8527  2.1635 -1.4096
    7MOL   H175 2107   0.455   3.487   4.324 -0.8919 -0.2963 -0.1277
    7MOL   H176 2108   0.444   3.718   4.353 -0.8804 -0.7609 -0.0532
    7MOL   H177 2109   0.463   3.836   4.475  1.2668 -0.3805  5.5988
    7MOL   C178 2110   0.627   3.705   4.478 -0.3036 -0.3661 -0.3061
    7MOL   C179 2111   0.713   3.721   4.352  0.4213 -0.3027  0.2279
    7MOL   C180 2112   0.705   3.840   4.281  0.3839  0.8761  0.1987
    7MOL   C181 2113   0.762   3.853   4.155  0.1578 -0.0138 -0.2178
    7MOL   C182 2114   0.853   3.757   4.114 -0.0891  0.2677 -0.0236
    7MOL   F183 2115   0.923   3.776   3.993  0.5255 -0.2019  0.0881
    7MOL   C184 2116   0.874   3.641   4.190 -0.1563 -0.1066  0.6327
    7MOL   C185 2117   0.800   3.620   4.307 -0.0464 -0.2010 -0.8639
    7MOL   C186 2118   0.683   3.782   4.598 -0.7456 -0.3458 -0.1997
    7MOL   H187 2119   0.645   3.606   4.520  0.2608 -0.3740 -0.5721
    7MOL   H188 2120   0.644   3.922   4.316  1.0623  0.6215  1.9861
    7MOL   H189 2121   0.752   3.937   4.088 -0.2162  1.7326  1.9556
    7MOL   H190 2122   0.946   3.572   4.149  0.1793 -0.0596  1.1421
    7MOL   H191 2123   0.810   3.534   4.372  0.3950  0.7366  0.3362
    7MOL   H192 2124   0.686   3.888   4.571  2.8934  0.1432  1.8009
    7MOL   H193 2125   0.604   3.786   4.673 -0.0908 -2.3898  0.6255
    7MOL   C194 2126   0.816   3.737   4.663  0.0247 -0.4677 -0.0977
    7MOL   C195 2127   0.923   3.847   4.662  0.2658 -0.8301 -0.6422
    7MOL   C196 2128   1.034   3.825   4.578 -0.2475 -1.1476  0.1947
    7MOL   C197 2129   1.109   3.933   4.548 -0.3872 -0.0133 -0.4891
    7MOL   C198 2130   1.099   4.059   4.605  0.1944 -0.1733 -0.3617
    7MOL   F199 2131   1.187   4.162   4.576 -0.1561 -0.1456  0.1515
    7MOL   C200 2132   0.992   4.081   4.693  0.7189  0.5108  0.3903
    7MOL   C201 2133   0.903   3.977   4.718  0.6060  0.4815  0.2275
    7MOL   C202 2134   0.799   3.680   4.805 -0.2083 -0.1441 -0.1410
    7MOL   H203 2135   0.851   3.658   4.597 -2.1474 -0.9254 -0.7157
    7MOL   H204 2136   1.052   3.728   4.534 -0.5549 -1.2906  0.3854
    7MOL   H205 2137   1.194   3.922   4.481  1.9680  0.4795  2.3242
    7MOL   H206 2138   0.973   4.179   4.734  1.8010  0.9525 -0.1459
    7MOL   H207 2139   0.820   4.000   4.783  1.7829 -0.8810  2.2714
    7MOL   H208 2140   0.894   3.661   4.855 -1.5106 -0.1078  2.4504
    7MOL   H209 2141   0.764   3.755   4.876  0.5887  0.2902 -0.2030
    7MOL   C210 2142   0.711   3.556   4.821 -0.2376  0.5271 -0.8076
    7MOL   C211 2143   0.753   3.437   4.735  0.2387 -0.0534  0.6409
    7MOL   C212 2144   0.653   3.350   4.679 -0.3888  0.1004  0.3089
    7MOL   C213 2145   0.693   3.246   4.595 -0.1048 -0.2160 -0.8747
    7MOL   C214 2146   0.829   3.205   4.581 -0.5135  0.3908 -0.3673
    7MOL   F215 2147   0.863   3.099   4.514 -0.3215  0.1108 -0.1541
    7MOL   C216 2148   0.929   3.290   4.635 -0.3013  0.4284 -0.5469
    7MOL   C217 2149   0.890   3.405   4.708  0.5534  0.2504  0.0160
    7MOL   C218 2150   0.696   3.515   4.970  0.5627 -0.1767 -0.4298
    7MOL   H219 2151   0.612   3.574   4.777 -1.4854 -1.4868  1.0428
    7MOL   H220 2152   0.546   3.353   4.692 -0.6136  0.1388 -1.4232
    7MOL   H221 2153   0.627   3.183   4.538 -0.0805 -0.1029 -1.0265
    7MOL   H222 2154   1.031   3.258   4.621 -0.5756  0.1599 -2.0226
    7MOL   H223 2155   0.968   3.469   4.747  0.0593  0.6386  0.3696
    7MOL   H224 2156   0.645   3.419   4.979  0.2809  0.1586  1.6652
    7MOL   H225 2157   0.796   3.507   5.013 -0.4096  0.1485  1.9816
    7MOL   C226 2158   0.614   3.610   5.063 -0.7039  0.0517  0.2461
    7MOL   C227 2159   0.467   3.621   5.020  0.1837 -0.0891 -0.1214
    7MOL   C228 2160   0.430   3.709   4.912 -0.3547  0.1635 -0.7989
    7MOL   C229 2161   0.300   3.719   4.868  0.4524 -0.2459 -0.6550
    7MOL   C230 2162   0.200   3.633   4.919 -0.0320 -0.1593 -0.5063
    7MOL   F231 2163   0.072   3.643   4.885 -0.2997  0.1276  0.3045
    7MOL   C232 2164   0.233   3.546   5.025 -0.2788  0.3265  0.0804
    7MOL   C233 2165   0.369   3.532   5.069 -0.0782  0.2551  0.6184
    7MOL   C234 2166   0.629   3.583   5.216  0.1887 -0.3541 -0.1522
    7MOL   H235 2167   0.647   3.714   5.054 -1.4244  0.1418 -1.5487
    7MOL   H236 2168   0.501   3.777   4.867  1.2172 -0.2301  1.0134
    7MOL   H237 2169   0.272   3.795   4.798  1.1181  1.4994  0.9314
    7MOL   H238 2170   0.161   3.481   5.074 -2.1252  1.3628 -1.1986
    7MOL   H239 2171   0.398   3.467   5.151 -1.7374 -0.5657  0.5696
    7MOL   H240 2172   0.563   3.652   5.270  0.7928 -0.1213  0.2998
    7MOL   H241 2173   0.582   3.487   5.237  0.9132 -0.7935 -0.5374
    7MOL   C242 2174   0.776   3.591   5.275 -0.5876 -0.3822  0.7014
    7MOL   C243 2175   0.858   3.712   5.236 -0.6204  1.3053  0.3220
    7MOL   C244 2176   0.956   3.702   5.136 -0.4424 -0.2701 -0.1649
    7MOL   C245 2177   1.013   3.825   5.090  0.5156 -0.3206  0.2680
    7MOL   C246 2178   0.964   3.949   5.129 -0.3301  0.6549  0.3713
    7MOL   F247 2179   1.009   4.059   5.069  0.2578 -0.4934 -0.5495
    7MOL   C248 2180   0.880   3.955   5.244  0.5165  0.3991 -0.4600
    7MOL   C249 2181   0.824   3.832   5.293  0.5697  0.4246  0.3868
    7MOL   C250 2182   0.779   3.565   5.424  0.2575  0.0307  0.0943
    7MOL   H251 2183   0.831   3.503   5.239 -1.5295 -0.2518 -1.0869
    7MOL   H252 2184   1.000   3.613   5.094  1.2423 -0.0100  1.0306
    7MOL   H253 2185   1.097   3.819   5.022 -0.1624 -0.3345 -0.5654
    7MOL   H254 2186   0.845   4.050   5.281 -0.5553  0.4941 -1.6577
    7MOL   H255 2187   0.758   3.828   5.379  0.4542 -0.4515  0.2652
    7MOL   H256 2188   0.709   3.630   5.475 -0.1184  0.2657 -0.7312
    7MOL   H257 2189   0.732   3.470   5.449  0.1980 -0.0488 -0.3272
    7MOL   C258 2190   0.922   3.584   5.494 -0.1118 -0.5699 -0.1754
    7MOL   C259 2191   0.906   3.602   5.648 -0.6170 -0.6825 -0.2214
    7MOL   C260 2192   0.991   3.699   5.710 -0.0708 -0.1522 -0.0011
    7MOL   C261 2193   0.979   3.735   5.848 -0.1584 -0.4987  0.2959
    7MOL   C262 2194   0.869   3.676   5.919 -0.6648  0.5199 -0.9110
    7MOL   F263 2195   0.848   3.697   6.052  0.1303 -0.3753 -0.6041
    7MOL   C264 2196   0.785   3.584   5.856  0.6889  0.1345 -0.4465
    7MOL   C265 2197   0.802   3.541   5.721  0.5213  0.2553  0.2452
    7MOL   C266 2198   1.033   3.478   5.458 -1.1932  0.2759  0.0482
    7MOL   H267 2199   0.961   3.678   5.456 -0.2339 -0.7199 -0.6653
    7MOL   H268 2200   1.062   3.749   5.646 -0.5891  0.7011  0.0695
    7MOL   H269 2201   1.056   3.801   5.887 -1.0069  1.5216 -1.3603
    7MOL   H270 2202   0.701   3.545   5.912  0.4424  1.6355  0.2348
    7MOL   H271 2203   0.734   3.473   5.671 -1.3407  1.3035  1.2848
    7MOL   H272 2204   1.065   3.484   5.355 -0.3284  0.5213  0.3306
    7MOL   H273 2205   1.122   3.513   5.509  0.7726 -3.4985 -0.6290
    7MOL   C274 2206   1.016   3.338   5.498  0.2198 -0.1328  0.6399
    7MOL   C275 2207   0.911   3.257   5.421 -0.4309 -1.1594 -0.6758
    7MOL   C276 2208   0.801   3.197   5.490 -0.1933 -0.2472  0.0739
    7MOL   C277 2209   0.711   3.112   5.420 -0.7110  0.0533  0.5578
    7MOL   C278 2210   0.720   3.096   5.277 -0.2362 -0.2265 -0.5982
    7MOL   F279 2211   0.640   3.019   5.210  0.6072  0.1693 -0.5220
    7MOL   C280 2212   0.818   3.166   5.210  0.0320  0.3175  0.0412
    7MOL   C281 2213   0.914   3.244   5.278 -0.8307 -0.0463 -0.4904
    7MOL   C282 2214   1.148   3.255   5.510 -0.2141  0.3040  0.1679
    7MOL   H283 2215   0.978   3.339   5.600  0.6844 -0.8573  0.8241
    7MOL   H284 2216   0.795   3.206   5.597  1.2184 -1.3958  0.2746
    7MOL   H285 2217   0.637   3.056   5.475 -1.0492 -0.3335 -0.2757
    7MOL   H286 2218   0.816   3.158   5.102 -1.2889 -4.7189  0.3247
    7MOL   H287 2219   0.990   3.298   5.223 -0.5575 -1.5688 -1.6559
    7MOL   H288 2220   1.186   3.237   5.410  0.2438  0.8184  0.2455
    7MOL   H289 2221   1.231   3.321   5.536  2.3495 -1.6072 -2.8493
    7MOL   C290 2222   1.131   3.130   5.595  0.6924 -0.7071  0.5712
    7MOL   C291 2223   1.149   2.999   5.517 -0.3768  0.7799 -1.2780
    7MOL   C292 2224   1.043   2.908   5.530 -0.2455  1.0774 -0.6268
    7MOL   C293 2225   1.051   2.782   5.454  0.3894  0.1354  0.5815
    7MOL   C294 2226   1.162   2.762   5.370  1.0954 -0.2015  0.5633
    7MOL   F295 2227   1.183   2.647   5.303  0.2455  0.3640 -0.3201
    7MOL   C296 2228   1.267   2.856   5.362 -0.1685  0.0817  0.1676
    7MOL   C297 2229   1.265   2.968   5.442 -0.8198  0.1931  0.0164
    7MOL   C298 2230   1.212   3.106   5.726 -0.0440 -0.2884 -0.1286
    7MOL   H299 2231   1.030   3.131   5.636  1.1315  0.7776  1.6669
    7MOL   H300 2232   0.951   2.929   5.582 -0.3623 -0.5799 -0.1162
    7MOL   H301 2233   0.976   2.704   5.449  0.5955 -0.2670  3.0699
    7MOL   H302 2234   1.360   2.833   5.312  0.6397 -0.5089  1.9182
    7MOL   H303 2235   1.343   3.039   5.419 -0.3218 -0.4936 -0.4167
    7MOL   H304 2236   1.179   3.013   5.771  0.1257  0.6001  1.8974
    7MOL   H305 2237   1.318   3.091   5.704 -0.1079 -1.6209  0.4796
    7MOL   C306 2238   1.197   3.216   5.830  0.6469  0.3268  0.4566
    7MOL   C307 2239   1.252   3.166   5.964 -0.7005  0.2854  0.1138
    7MOL   C308 2240   1.168   3.168   6.075  0.0961  0.2025  0.4861
    7MOL   C309 2241   1.218   3.121   6.197 -0.2747 -0.1788  0.1921
    7MOL   C310 2242   1.347   3.074   6.214  0.0964 -0.4046  0.5562
    7MOL   F311 2243   1.395   3.035   6.331 -0.2121  0.0799  0.5317
    7MOL   C312 2244   1.439   3.077   6.111  0.1222 -0.2670  0.9420
    7MOL   C313 2245   1.385   3.111   5.981  0.0189  0.3425 -0.4982
    7MOL   C314 2246   1.268   3.343   5.796 -0.2267 -0.2200 -0.1870
    7MOL   H315 2247   1.092   3.239   5.848  0.5801  1.9732 -1.7321
    7MOL   H316 2248   1.072   3.216   6.066 -0.8945 -1.6401  1.0653
    7MOL   H317 2249   1.156   3.121   6.286  0.1431  3.5094  0.5818
    7MOL   H318 2250   1.539   3.039   6.119 -0.0466 -1.0411 -0.5021
    7MOL   H319 2251   1.446   3.108   5.892  1.5451 -0.2169  0.5388
    7MOL   H320 2252   1.210   3.414   5.738 -1.1058  0.1960  1.2155
    7MOL   H321 2253   1.287   3.401   5.886 -0.5886  2.3113 -1.7175
    7MOL   H322 2254   1.367   3.317   5.757  0.4740  0.2691  1.2341
    8MOL     C1 2255   7.582   7.695   5.016  0.1218  0.5260 -0.1210
    8MOL     C2 2256   7.555   7.559   5.085  0.1996 -0.7171  0.4608
    8MOL     C3 2257   7.544   7.556   5.221 -0.0315 -0.5713  0.6457
    8MOL     C4 2258   7.542   7.433   5.287  0.4348 -0.4005  0.1819
    8MOL     C5 2259   7.525   7.316   5.217 -0.1898  0.3322  0.2584
    8MOL     F6 2260   7.500   7.205   5.284 -0.0614 -0.1537 -0.3390
    8MOL     C7 2261   7.513   7.319   5.077  0.5482  0.2951 -0.0841
    8MOL     C8 2262   7.534   7.444   5.004 -0.0504  0.2538 -0.1633
    8MOL     C9 2263   7.722   7.749   5.050  0.1962 -0.4276 -0.7411
    8MOL    H10 2264   7.511   7.759   5.069  1.2386  1.5602  0.1558
    8MOL    H11 2265   7.553   7.649   5.274  0.8712 -0.3629  0.1440
    8MOL    H12 2266   7.541   7.430   5.395 -3.4194  1.0865  0.2806
    8MOL    H13 2267   7.484   7.227   5.028  0.1097  1.1221 -1.3847
    8MOL    H14 2268   7.531   7.443   4.896  0.5239  2.9289 -0.2338
    8MOL    H15 2269   7.769   7.705   5.138 -3.6217  0.6937  1.9660
    8MOL    H16 2270   7.778   7.718   4.962  0.5108 -1.0950 -0.3136
    8MOL    H17 2271   7.553   7.690   4.911  0.8460 -2.3183 -0.2259
    8MOL    C18 2272   7.723   7.900   5.064 -0.7591 -0.1797 -0.8579
    8MOL    C19 2273   7.663   7.953   5.190 -0.3350  0.4850 -0.2202
    8MOL    C20 2274   7.727   7.941   5.316  0.0140  0.3162 -0.4959
    8MOL    C21 2275   7.660   7.975   5.433  0.7008  0.3023 -0.2014
    8MOL    C22 2276   7.548   8.061   5.423 -0.0653  0.2125 -0.5799
    8MOL    F23 2277   7.483   8.101   5.534  0.4766  0.2823 -0.0217
    8MOL    C24 2278   7.487   8.091   5.301  0.3504 -0.1778  0.2078
    8MOL    C25 2279   7.547   8.037   5.179  0.3368  0.6697  0.2568
    8MOL    C26 2280   7.863   7.966   5.027  0.9927  0.1650  0.8013
    8MOL    H27 2281   7.665   7.938   4.980 -0.8075  1.1818 -0.2205
    8MOL    H28 2282   7.823   7.892   5.321  0.6151  1.5053 -0.4878
    8MOL    H29 2283   7.688   7.949   5.534 -0.8165  2.7146  0.8949
    8MOL    H30 2284   7.391   8.139   5.286  0.0427 -1.0467 -0.6566
    8MOL    H31 2285   7.503   8.061   5.084  0.9713 -0.5330 -0.3569
    8MOL    H32 2286   7.923   7.976   5.118  2.3556  0.1129 -0.0751
    8MOL    H33 2287   7.917   7.894   4.966 -1.4750 -1.8056  0.8772
    8MOL    C34 2288   7.855   8.099   4.961  0.0466 -0.2657 -0.1517
    8MOL    C35 2289   7.822   8.216   5.049 -0.4885 -0.6248 -0.5648
    8MOL    C36 2290   7.711   0.059   5.027 -0.1977 -0.4796 -0.0459
    8MOL    C37 2291   7.665   0.156   5.117  0.1260 -0.1525  0.0347
    8MOL    C38 2292   7.739   0.177   5.239 -0.0639  0.1058  0.0279
    8MOL    F39 2293   7.687   0.261   5.332  0.3039  0.3820 -0.2441
    8MOL    C40 2294   7.849   0.096   5.262 -0.6229  0.5902 -0.5675
    8MOL    C41 2295   7.886   0.000   5.171 -0.0546 -0.3041 -0.0825
    8MOL    C42 2296   7.980   8.145   4.895 -0.5454  0.7768  0.7529
    8MOL    H43 2297   7.783   8.096   4.879 -1.1586 -1.3582  0.9257
    8MOL    H44 2298   7.653   0.034   4.939 -1.8019  0.2352  0.8002
    8MOL    H45 2299   7.577   0.215   5.098 -1.1435 -2.0285 -0.1262
    8MOL    H46 2300   7.907   0.103   5.353  0.5239 -0.7388 -1.1661
    8MOL    H47 2301   7.973   8.174   5.194 -0.2219 -0.3647  0.3839
    8MOL    H48 2302   7.973   0.013   4.858  2.8035 -0.3207 -3.3593
    8MOL    H49 2303   8.055   8.153   4.974  0.3571  1.4576 -0.1588
    8MOL    C50 2304   8.044   8.058   4.790  0.6830  0.3398  0.3637
    8MOL    C51 2305   8.017   8.118   4.645 -0.1282 -0.2087  0.0915
    8MOL    C52 2306   8.114   8.178   4.560  0.2615 -0.0654 -0.3723
    8MOL    C53 2307   8.068   0.024   4.456  0.2282  0.3281 -0.2033
    8MOL    C54 2308   7.935   0.026   4.413  0.4744 -0.0546 -0.2686
    8MOL    F55 2309   7.905   0.082   4.294 -0.0024 -0.0472 -0.0425
    8MOL    C56 2310   7.834   8.194   4.483 -0.2986 -0.2472 -0.2428
    8MOL    C57 2311   7.877   8.122   4.598  0.0020  0.4684 -0.5074
    8MOL    C58 2312   8.193   8.051   4.815 -0.0124  0.5870 -0.2006
    8MOL    H59 2313   7.998   7.961   4.771  1.8311 -0.2125  0.3959
    8MOL    H60 2314   8.219   8.185   4.583  0.0977 -0.7042  0.6201
    8MOL    H61 2315   8.138   0.074   4.391  0.7731  1.7842  1.4618
    8MOL    H62 2316   7.732   8.194   4.448 -0.5852 -0.2821  0.5978
    8MOL    H63 2317   7.803   8.066   4.653  2.1468 -0.8274  1.1629
    8MOL    H64 2318   0.012   8.019   4.726 -0.1397 -0.7678  0.1977
    8MOL    H65 2319   8.224   8.156   4.821  0.7853  0.3335  0.1037
    8MOL    C66 2320   0.014   7.960   4.935  0.5728 -0.1748  0.0616
    8MOL    C67 2321   8.199   7.813   4.924 -1.3638 -0.3476  0.4772
    8MOL    C68 2322   8.226   7.735   4.810 -0.3690  0.2258 -0.4108
    8MOL    C69 2323   8.187   7.599   4.814 -0.7868  0.1947 -0.3719
    8MOL    C70 2324   8.126   7.546   4.924 -0.0775 -0.9778 -0.5317
    8MOL    F71 2325   8.099   7.411   4.923 -0.6420  0.1134 -0.1577
    8MOL    C72 2326   8.110   7.623   5.043  0.4467  0.9066 -0.3012
    8MOL    C73 2327   8.141   7.762   5.041 -0.0840  0.1966 -0.8315
    8MOL    C74 2328   0.167   7.962   4.943  0.1773 -0.2626  0.3111
    8MOL    H75 2329   8.207   8.008   5.024 -0.6983 -2.5157  0.7804
    8MOL    H76 2330   0.032   7.774   4.718  0.6366 -0.4553 -0.2675
    8MOL    H77 2331   8.208   7.536   4.729 -0.4988  1.0294 -0.9253
    8MOL    H78 2332   8.079   7.572   5.133 -1.2490  0.6758 -0.9992
    8MOL    H79 2333   8.127   7.823   5.129  1.5808 -0.7594  0.1313
    8MOL    H80 2334   0.202   7.905   5.028  1.9885 -0.1965 -0.3622
    8MOL    H81 2335   0.214   7.915   4.856  0.3863  0.3339  0.0961
    8MOL    C82 2336   0.230   8.107   4.966  0.6832 -0.0613 -0.3672
    8MOL    C83 2337   0.174   8.164   5.094  0.2538  0.9698 -0.0631
    8MOL    C84 2338   0.210   8.099   5.216 -1.2079 -0.8594 -0.0125
    8MOL    C85 2339   0.154   8.143   5.339 -0.4884  0.6587  0.6229
    8MOL    C86 2340   0.073   0.018   5.335 -0.3212 -0.3335  0.3168
    8MOL    F87 2341   0.036   0.075   5.458  0.3169 -0.0408  0.2795
    8MOL    C88 2342   0.031   0.081   5.219  0.3550  0.1845 -0.3231
    8MOL    C89 2343   0.079   0.033   5.100 -0.1707  0.5258  0.0777
    8MOL    C90 2344   0.389   8.110   4.967  0.4840 -0.1817  0.3199
    8MOL    H91 2345   0.205   8.176   4.885  2.0314  0.2836 -0.5035
    8MOL    H92 2346   0.274   8.012   5.225  1.8681  1.2948 -0.2030
    8MOL    H93 2347   0.192   8.093   5.426 -1.1185 -0.5947  0.1912
    8MOL    H94 2348   8.190   0.158   5.229  0.0469 -0.3620  1.8761
    8MOL    H95 2349   0.042   0.080   5.010  0.1699  0.4575 -0.0985
    8MOL    H96 2350   0.424   8.094   5.069 -0.9705 -2.3834  0.5242
    8MOL    H97 2351   0.434   8.030   4.909  1.5254  1.7903 -1.6644
    8MOL    C98 2352   0.445   0.003   4.907  0.3056 -0.8547  0.5089
    8MOL    C99 2353   0.582   0.019   4.969  0.4319  0.3761 -0.0477
    8MOL   C100 2354   0.589   0.081   5.098 -0.0093 -0.1498 -0.3938
    8MOL   C101 2355   0.716   0.105   5.162  0.2764  0.1454 -0.3255
    8MOL   C102 2356   0.836   0.083   5.090  0.4881  1.1481  0.1698
    8MOL   F103 2357   0.956   0.115   5.139  0.5896  0.0384  0.1331
    8MOL   C104 2358   0.829   0.015   4.965 -0.0107  0.0395 -0.2510
    8MOL   C105 2359   0.703   8.208   4.912 -0.0416 -0.3666  0.1114
    8MOL   C106 2360   0.443   8.230   4.747 -0.0512 -0.1688 -0.1121
    8MOL   H107 2361   0.377   0.085   4.931  1.6404  0.0177  1.3718
    8MOL   H108 2362   0.496   0.106   5.148  0.8884 -0.0625  1.2691
    8MOL   H109 2363   0.728   0.137   5.265 -3.0929 -0.3837  0.3183
    8MOL   H110 2364   0.918   0.000   4.907 -0.7330 -0.6338 -1.2051
    8MOL   H111 2365   0.711   8.155   4.818  1.8110  0.6852 -0.3507
    8MOL   H112 2366   0.517   8.157   4.712 -0.3889 -0.2879 -0.5678
    8MOL   H113 2367   0.352   8.187   4.706 -0.6251  1.8395 -0.9619
    8MOL   C114 2368   0.449   0.127   4.667 -0.6585  0.1923 -1.4737
    8MOL   C115 2369   0.565   0.210   4.706 -1.2146  0.8083 -0.1173
    8MOL   C116 2370   0.551   0.331   4.773  0.3217 -0.7796 -0.0479
    8MOL   C117 2371   0.673   0.400   4.807  0.0204  0.0935  0.0268
    8MOL   C118 2372   0.803   0.349   4.777 -0.6043 -0.8888  0.5896
    8MOL   F119 2373   0.914   0.418   4.831 -0.0264  0.5134 -0.4488
    8MOL   C120 2374   0.818   0.226   4.712 -0.3070  0.2155 -0.2309
    8MOL   C121 2375   0.696   0.165   4.670 -0.0249 -0.1006 -0.8839
    8MOL   C122 2376   0.433   0.123   4.510 -0.1800  0.0162 -0.3221
    8MOL   H123 2377   0.357   0.175   4.697 -0.8117 -1.3510  0.6200
    8MOL   H124 2378   0.454   0.373   4.797  0.4556 -1.0242  0.9665
    8MOL   H125 2379   0.659   0.492   4.860 -1.4930 -0.4244  0.5580
    8MOL   H126 2380   0.917   0.190   4.688  0.4122  1.1057  1.3141
    8MOL   H127 2381   0.697   0.079   4.606  0.0542  0.1105 -1.1683
    8MOL   H128 2382   0.519   0.075   4.463 -0.6110 -0.0473 -1.0539
    8MOL   H129 2383   0.355   0.049   4.494  0.7396 -1.2438  0.8200
    8MOL   C130 2384   0.386   0.256   4.439 -0.4496 -0.3292 -0.2546
    8MOL   C131 2385   0.505   0.345   4.425 -0.7299 -0.3662 -0.6687
    8MOL   C132 2386   0.618   0.291   4.364 -0.4323  0.6602 -0.6424
    8MOL   C133 2387   0.746   0.356   4.386 -0.1273  0.2996  0.7253
    8MOL   C134 2388   0.744   0.489   4.428  0.4813  0.4841  0.2514
    8MOL   F135 2389   0.859   0.552   4.438  0.0396 -0.6122  0.2482
    8MOL   C136 2390   0.619   0.551   4.459 -0.2122  0.3278 -0.2571
    8MOL   C137 2391   0.501   0.477   4.469 -0.3102  0.2585 -0.2516
    8MOL   C138 2392   0.302   0.242   4.309  0.0195  0.6351  0.1952
    8MOL   H139 2393   0.319   0.310   4.506  0.3219  0.4536 -0.1003
    8MOL   H140 2394   0.615   0.197   4.311 -5.2016  0.7028 -0.6252
    8MOL   H141 2395   0.830   0.304   4.342 -1.2660 -0.8675 -0.1129
    8MOL   H142 2396   0.625   0.652   4.498  1.3377 -0.6904  2.2759
    8MOL   H143 2397   0.408   0.505   4.516 -1.5713 -2.3298 -1.0803
    8MOL   H144 2398   0.364   0.203   4.228 -0.6407 -0.4334  0.1943
    8MOL   H145 2399   0.223   0.167   4.316 -0.1512  0.5298 -2.2688
    8MOL   C146 2400   0.228   0.372   4.268  0.0519  0.1264  0.2009
    8MOL   C147 2401   0.198   0.372   4.121 -0.1328  0.5431 -0.7798
    8MOL   C148 2402   0.117   0.270   4.065  0.3296  0.4013  0.4389
    8MOL   C149 2403   0.089   0.272   3.927 -0.3789  0.1609  0.0454
    8MOL   C150 2404   0.133   0.380   3.847 -0.0469  0.5647 -0.1882
    8MOL   F151 2405   0.089   0.393   3.722  0.1771 -0.1071 -0.1447
    8MOL   C152 2406   0.213   0.482   3.899 -0.2187 -0.3093  0.2097
    8MOL   C153 2407   0.250   0.472   4.037  0.1387 -0.8336 -0.3518
    8MOL   C154 2408   0.108   0.408   4.361  0.2295  0.3688  0.0100
    8MOL   H155 2409   0.300   0.452   4.284 -1.0131  1.5264 -1.7712
    8MOL   H156 2410   0.090   0.186   4.127 -0.7430 -1.0649 -1.9594
    8MOL   H157 2411   0.031   0.190   3.887  1.6366 -0.8828 -0.7955
    8MOL   H158 2412   0.235   0.573   3.845 -3.3579  0.8933  0.8528
    8MOL   H159 2413   0.308   0.554   4.077  0.4718 -0.2932 -1.9142
    8MOL   H160 2414   0.029   0.348   4.318 -0.0773  1.2194 -0.6132
    8MOL   H161 2415   0.127   0.362   4.458 -0.8645  1.2732  0.6558
    8MOL   C162 2416   0.079   0.555   4.391 -0.6040 -0.0697 -0.1759
    8MOL   C163 2417   0.072   0.635   4.263 -0.2916 -0.0724 -0.2288
    8MOL   C164 2418   0.172   0.734   4.245  0.1110 -0.2020 -0.2094
    8MOL   C165 2419   0.164   0.820   4.129 -0.1787 -0.1777 -0.4285
    8MOL   C166 2420   0.060   0.802   4.036 -0.7607 -0.6878  0.0706
    8MOL   F167 2421   0.054   0.896   3.939  0.0243 -0.0664 -0.2366
    8MOL   C168 2422   8.193   0.713   4.062  0.1170  1.7063 -0.1931
    8MOL   C169 2423   8.199   0.625   4.172  0.0601 -0.5723  0.0057
    8MOL   C170 2424   8.186   0.569   4.480  0.0007 -0.0909 -0.1331
    8MOL   H171 2425   0.153   0.595   4.460 -1.4911 -1.2100  1.4762
    8MOL   H172 2426   0.249   0.759   4.317  0.3791  0.1492 -0.6144
    8MOL   H173 2427   0.236   0.900   4.131  0.2254 -0.5471  1.0148
    8MOL   H174 2428   8.104   0.704   4.001 -0.1158  0.4155  0.3169
    8MOL   H175 2429   8.114   0.561   4.192 -0.4992  0.0528 -0.3277
    8MOL   H176 2430   8.097   0.548   4.422 -0.1952  0.0457  0.1182
    8MOL   H177 2431   8.182   0.483   4.547 -1.0140 -1.6283 -2.1148
    8MOL   C178 2432   8.181   0.694   4.577  0.5281 -0.3086 -0.0720
    8MOL   C179 2433   8.202   0.826   4.508 -0.2554 -1.2000  0.2376
    8MOL   C180 2434   0.070   0.920   4.550 -0.9970 -0.1029  0.3067
    8MOL   C181 2435   0.095   1.042   4.480 -0.3534  0.1040  0.3963
    8MOL   C182 2436   0.017   1.081   4.372  0.0190 -0.6038 -0.4190
    8MOL   F183 2437   0.045   1.202   4.316 -0.2106 -0.1797  0.1680
    8MOL   C184 2438   8.143   0.999   4.339 -0.4061 -0.6820 -0.1277
    8MOL   C185 2439   8.117   0.874   4.401  0.3433  0.3830  0.1469
    8MOL   C186 2440   8.063   0.697   4.678  0.2653  0.8898 -0.0740
    8MOL   H187 2441   0.037   0.692   4.638 -0.0833 -0.1935  0.8405
    8MOL   H188 2442   0.140   0.887   4.625 -1.1334 -0.5373  0.2405
    8MOL   H189 2443   0.173   1.108   4.513 -0.9256 -0.3135  2.6777
    8MOL   H190 2444   8.090   1.023   4.248  0.1017  0.1083 -0.2171
    8MOL   H191 2445   8.030   0.816   4.373  1.3888 -1.9435  1.6176
    8MOL   H192 2446   7.982   0.710   4.605  0.9950 -1.0107 -1.2609
    8MOL   H193 2447   8.052   0.601   4.729 -0.8945  1.3599  0.5850
    8MOL   C194 2448   8.065   0.815   4.775 -0.0801 -0.2183  0.2615
    8MOL   C195 2449   7.954   0.921   4.745 -0.0366  0.3744 -0.4092
    8MOL   C196 2450   7.987   1.057   4.737  0.0818  0.5618 -0.1207
    8MOL   C197 2451   7.889   1.156   4.727 -0.4298  0.6041 -0.6583
    8MOL   C198 2452   7.750   1.122   4.726 -0.0511  0.4149 -0.2056
    8MOL   F199 2453   7.659   1.217   4.697 -0.0637 -0.4998 -0.3563
    8MOL   C200 2454   7.716   0.981   4.727 -0.6848 -0.5322 -0.5996
    8MOL   C201 2455   7.818   0.885   4.733 -0.3265 -0.1890  0.3521
    8MOL   C202 2456   8.059   0.770   4.925  0.3735  0.3653  0.0643
    8MOL   H203 2457   8.161   0.868   4.770 -1.8955  3.1857 -0.0013
    8MOL   H204 2458   8.092   1.078   4.731  0.7901 -2.6035  0.6103
    8MOL   H205 2459   7.909   1.262   4.713  0.1645  0.5159 -0.4808
    8MOL   H206 2460   7.614   0.950   4.712 -1.5275  0.8040  2.1393
    8MOL   H207 2461   7.801   0.778   4.737 -0.9042 -0.2804 -3.0513
    8MOL   H208 2462   8.007   0.844   4.987  0.4722  1.4221 -1.0961
    8MOL   H209 2463   7.999   0.680   4.916  3.7396 -2.0067  0.2469
    8MOL   C210 2464   8.212   0.743   4.971 -0.0275  0.0395 -0.4897
    8MOL   C211 2465   0.043   0.877   4.994  0.5483 -0.5580 -0.4412
    8MOL   C212 2466   0.152   0.915   4.913  0.8818 -0.1079 -0.5006
    8MOL   C213 2467   0.210   1.043   4.929  0.0472 -0.0214  0.0347
    8MOL   C214 2468   0.168   1.125   5.036 -0.0676 -0.1773 -0.1078
    8MOL   F215 2469   0.227   1.243   5.061 -0.3395 -0.1598  0.0454
    8MOL   C216 2470   0.051   1.096   5.105  0.1044  1.0477 -0.0067
    8MOL   C217 2471   8.221   0.969   5.088 -0.5013  0.0106 -0.4003
    8MOL   C218 2472   8.221   0.649   5.093 -1.0834  0.5890 -0.4065
    8MOL   H219 2473   0.030   0.685   4.895  0.6956 -1.6079  1.2164
    8MOL   H220 2474   0.194   0.846   4.841  1.9065 -0.9230  0.8611
    8MOL   H221 2475   0.298   1.064   4.870 -0.5542  0.1976 -0.7860
    8MOL   H222 2476   0.004   1.163   5.177 -0.6021  1.2654 -0.6701
    8MOL   H223 2477   8.141   0.935   5.153  0.5864 -0.8429  0.5061
    8MOL   H224 2478   0.090   0.637   5.123 -1.5010 -2.6039 -0.0412
    8MOL   H225 2479   8.164   0.703   5.168  1.4248  1.5088  0.8881
    8MOL   C226 2480   8.165   0.509   5.088  0.5151  0.4030  0.0347
    8MOL   C227 2481   8.217   0.423   4.968  0.0358  0.0566  0.3515
    8MOL   C228 2482   8.124   0.333   4.911 -0.5335  0.1925 -0.4880
    8MOL   C229 2483   8.153   0.265   4.795 -0.6145 -0.3134  0.4322
    8MOL   C230 2484   0.046   0.276   4.740 -0.4439  0.7540 -0.3702
    8MOL   F231 2485   0.077   0.203   4.631  0.2503  0.3086 -0.4811
    8MOL   C232 2486   0.144   0.361   4.799 -0.6669 -0.0662  0.1230
    8MOL   C233 2487   0.109   0.432   4.914  0.3905  0.6091 -0.1877
    8MOL   C234 2488   8.161   0.440   5.225  0.3033 -0.2208 -0.7694
    8MOL   H235 2489   8.067   0.540   5.054  1.1555  0.3152 -1.9639
    8MOL   H236 2490   8.027   0.326   4.958  0.4661  1.5029  1.8553
    8MOL   H237 2491   8.080   0.190   4.768 -1.4160  0.2152  1.0881
    8MOL   H238 2492   0.236   0.381   4.746  0.2127 -0.4807  1.4743
    8MOL   H239 2493   0.178   0.502   4.958  0.0159  0.0675  1.3191
    8MOL   H240 2494   8.103   0.348   5.212  0.3868 -0.8415  2.7313
    8MOL   H241 2495   0.026   0.401   5.245  0.5138  0.8044  0.2198
    8MOL   C242 2496   8.132   0.521   5.347 -0.6644 -0.4754  0.0691
    8MOL   C243 2497   8.001   0.597   5.341 -0.0274  0.3457 -0.2287
    8MOL   C244 2498   7.987   0.737   5.357  0.0991 -0.0588 -0.0965
    8MOL   C245 2499   7.857   0.802   5.348 -0.5323 -0.4491 -0.4340
    8MOL   C246 2500   7.746   0.725   5.321  0.8798  0.2136 -0.5027
    8MOL   F247 2501   7.628   0.788   5.311  0.2727  0.2644 -0.4166
    8MOL   C248 2502   7.757   0.583   5.300  0.2248 -0.3722 -0.0948
    8MOL   C249 2503   7.883   0.521   5.311  0.1854 -0.3667 -0.4514
    8MOL   C250 2504   8.138   0.439   5.479  0.6124  0.1482 -0.5827
    8MOL   H251 2505   8.215   0.591   5.356 -1.1319  0.6291 -3.4861
    8MOL   H252 2506   8.074   0.796   5.381 -1.1297  1.2329  1.2810
    8MOL   H253 2507   7.851   0.910   5.356  2.3388 -0.3839  1.4933
    8MOL   H254 2508   7.676   0.519   5.268  0.7339  0.0238 -2.2732
    8MOL   H255 2509   7.887   0.419   5.276  1.0886 -0.6523  0.4776
    8MOL   H256 2510   8.050   0.374   5.485  0.1735  0.6830 -1.1377
    8MOL   H257 2511   8.217   0.365   5.473  0.1609 -0.2402 -2.1453
    8MOL   C258 2512   8.174   0.510   5.602  0.3739 -0.2292 -0.2489
    8MOL   C259 2513   8.168   0.432   5.734  1.0385  0.0687  0.0627
    8MOL   C260 2514   8.111   0.490   5.852 -0.1869 -0.3540  0.2199
    8MOL   C261 2515   8.089   0.412   5.969  0.4338 -0.0551  0.1107
    8MOL   C262 2516   8.127   0.274   5.973 -0.0354 -0.3963 -0.1177
    8MOL   F263 2517   8.100   0.186   6.072  0.0583  0.3218 -0.4479
    8MOL   C264 2518   8.198   0.228   5.859  0.1256  0.3571 -0.3764
    8MOL   C265 2519   8.219   0.303   5.744 -0.5929  0.0807 -0.0493
    8MOL   C266 2520   0.068   0.596   5.600 -0.5966 -0.1634 -0.2216
    8MOL   H267 2521   8.087   0.575   5.599  0.9726  0.5473 -1.3121
    8MOL   H268 2522   8.081   0.594   5.844  1.8459  0.0897 -2.2946
    8MOL   H269 2523   8.035   0.458   6.050  0.7359  2.4522 -1.0616
    8MOL   H270 2524   0.010   0.131   5.867  0.4809  0.3923 -1.9312
    8MOL   H271 2525   0.040   0.260   5.663  0.3281  1.5339 -0.2121
    8MOL   H272 2526   0.071   0.683   5.533 -1.6030 -1.0155 -1.3988
    8MOL   H273 2527   0.061   0.654   5.692  2.7458  0.5171 -0.3337
    8MOL   C274 2528   0.209   0.514   5.593  0.2825  0.3018  1.0886
    8MOL   C275 2529   0.250   0.491   5.448  0.2834 -0.1510  0.5927
    8MOL   C276 2530   0.262   0.604   5.364  0.6090  0.2571  0.0407
    8MOL   C277 2531   0.313   0.581   5.231  0.3840 -0.1878  0.4385
    8MOL   C278 2532   0.351   0.457   5.184  0.0484  0.1198 -0.1320
    8MOL   F279 2533   0.403   0.432   5.066  0.0575 -0.4334  0.1704
    8MOL   C280 2534   0.331   0.348   5.267  0.7065  0.2184 -0.0394
    8MOL   C281 2535   0.285   0.364   5.397 -0.9401  0.3127  0.1672
    8MOL   C282 2536   0.322   0.592   5.665  0.1752 -0.0802  0.6853
    8MOL   H283 2537   0.195   0.420   5.646  3.4774  0.8442  3.0615
    8MOL   H284 2538   0.222   0.700   5.394 -2.4650 -0.7287 -0.7266
    8MOL   H285 2539   0.324   0.669   5.169 -0.2140  0.2235  0.9078
    8MOL   H286 2540   0.353   0.249   5.231  1.8441  0.6533 -0.5636
    8MOL   H287 2541   0.272   0.275   5.457  2.5178 -0.0487  0.4287
    8MOL   H288 2542   0.421   0.547   5.653  0.4745  0.8992 -0.6596
    8MOL   H289 2543   0.335   0.682   5.605 -0.8029 -0.7122 -0.5088
    8MOL   C290 2544   0.307   0.611   5.818 -0.3965 -0.4340 -0.9155
    8MOL   C291 2545   0.331   0.482   5.896  0.0103  0.6859  0.3964
    8MOL   C292 2546   0.230   0.420   5.972  0.4838  0.3446 -0.8549
    8MOL   C293 2547   0.256   0.297   6.036  1.3425  0.2814  0.5950
    8MOL   C294 2548   0.387   0.243   6.032  0.8836  1.0953 -0.0210
    8MOL   F295 2549   0.412   0.132   6.108 -0.3236 -0.0058  0.0722
    8MOL   C296 2550   0.485   0.302   5.953 -0.0778  0.1269 -0.3101
    8MOL   C297 2551   0.458   0.421   5.890  0.7582 -0.7457  0.3865
    8MOL   C298 2552   0.406   0.730   5.861 -0.2477 -0.6269  0.1071
    8MOL   H299 2553   0.207   0.645   5.843  0.1456  0.8388 -0.4001
    8MOL   H300 2554   0.127   0.453   5.972 -0.0415 -1.1741  0.2312
    8MOL   H301 2555   0.181   0.251   6.099  1.1517  0.8400  0.7828
    8MOL   H302 2556   0.588   0.269   5.947 -0.5331 -1.0404 -2.4255
    8MOL   H303 2557   0.539   0.464   5.832  0.1712  0.0412  0.1460
    8MOL   H304 2558   0.506   0.705   5.824 -0.9280 -1.4570 -1.2094
    8MOL   H305 2559   0.372   0.820   5.809 -0.8884 -0.3662  0.9624
    8MOL   C306 2560   0.408   0.775   6.014 -0.2206 -1.0918  0.5728
    8MOL   C307 2561   0.523   0.868   6.039  0.4796 -0.1516  0.2339
    8MOL   C308 2562   0.631   0.841   6.128 -0.0101 -0.0368 -0.1066
    8MOL   C309 2563   0.728   0.942   6.155  0.0288  0.1336 -0.1938
    8MOL   C310 2564   0.741   1.051   6.075  0.2219  0.1678 -0.0652
    8MOL   F311 2565   0.844   1.133   6.094 -0.4988 -0.1012  0.3791
    8MOL   C312 2566   0.637   1.077   5.980  0.0330 -0.0946 -0.3833
    8MOL   C313 2567   0.529   0.987   5.967  0.0793 -0.0133 -0.0191
    8MOL   C314 2568   0.274   0.842   6.057 -0.5076 -0.4013  0.6440
    8MOL   H315 2569   0.419   0.687   6.078  0.8166 -0.9465  0.5939
    8MOL   H316 2570   0.639   0.753   6.189 -0.1568 -0.4352 -0.6515
    8MOL   H317 2571   0.806   0.923   6.229 -0.7648  1.3232  0.9631
    8MOL   H318 2572   0.636   1.166   5.918 -0.2793 -0.1431 -0.4444
    8MOL   H319 2573   0.444   1.001   5.901 -0.0945 -0.1391  0.1803
    8MOL   H320 2574   0.276   0.850   6.165 -2.8472 -1.1280  0.7797
    8MOL   H321 2575   0.254   0.931   5.998 -2.6595 -1.9980 -1.1611
    8MOL   H322 2576   0.193   0.784   6.012 -0.9270 -0.4433  1.4519
    9MOL     C1 2577   0.215   5.173   0.168 -0.6612  0.5511 -0.3852
    9MOL     C2 2578   0.122   5.066   0.104 -0.1130  0.0714 -1.3762
    9MOL     C3 2579   0.176   4.945   0.070 -0.2037 -0.8598 -0.3051
    9MOL     C4 2580   0.102   4.850   0.007 -0.0724 -0.4032 -0.5688
    9MOL     C5 2581   8.200   4.867   8.220 -0.0602  0.1162 -0.1041
    9MOL     F6 2582   8.136   4.770   8.152  0.0914  0.9135  0.1158
    9MOL     C7 2583   8.138   4.989   0.020  0.2106 -0.2745  0.2685
    9MOL     C8 2584   8.220   5.092   0.076 -1.1262  1.1238 -0.0420
    9MOL     C9 2585   0.236   5.300   0.083 -0.0108  0.2502 -0.0493
    9MOL    H10 2586   0.314   5.137   0.197 -1.2556 -2.3503 -1.7870
    9MOL    H11 2587   0.283   4.932   0.080  0.6463  3.0610 -3.4257
    9MOL    H12 2588   0.149   4.756   8.219 -1.4515 -2.1029  3.2877
    9MOL    H13 2589   8.041   4.995   8.209  0.3583 -0.9102 -0.1429
    9MOL    H14 2590   8.186   5.192   0.096  0.1905  1.0800  2.5643
    9MOL    H15 2591   0.250   5.269   8.214  0.5910  1.7444 -0.4200
    9MOL    H16 2592   0.144   5.359   0.080  0.1230  0.5004  0.7085
    9MOL    H17 2593   0.168   5.204   0.261  0.1999  3.2062 -0.7769
    9MOL    C18 2594   0.356   5.393   0.116 -0.0395  0.4876 -0.3855
    9MOL    C19 2595   0.489   5.313   0.115 -0.2132  0.1287 -0.5343
    9MOL    C20 2596   0.580   5.308   0.225 -0.4535 -0.2586  0.6288
    9MOL    C21 2597   0.688   5.216   0.226  0.5852 -0.2785 -0.4521
    9MOL    C22 2598   0.700   5.124   0.123 -0.7512  0.2461  0.3932
    9MOL    F23 2599   0.789   5.027   0.129  0.1117  0.2115 -0.0284
    9MOL    C24 2600   0.617   5.127   0.011 -1.0808  0.5193 -0.4633
    9MOL    C25 2601   0.514   5.220   0.010 -0.9850  0.4615  0.2101
    9MOL    C26 2602   0.371   5.517   0.023 -0.1578  0.3412  0.0985
    9MOL    H27 2603   0.344   5.415   0.222 -1.5945  1.4786 -0.7499
    9MOL    H28 2604   0.566   5.369   0.313  2.4664  0.3738  0.7061
    9MOL    H29 2605   0.762   5.212   0.305  0.7754  2.6876 -0.3950
    9MOL    H30 2606   0.616   5.049   8.170  0.9567 -0.8282  0.8657
    9MOL    H31 2607   0.444   5.207   8.164  1.0609 -0.6112 -1.4516
    9MOL    H32 2608   0.466   5.563   0.051  0.0939  1.3783 -2.4105
    9MOL    H33 2609   0.385   5.481   8.156 -3.5231 -0.5753 -0.0950
    9MOL    C34 2610   0.251   5.609   0.021  0.3217  0.1660  0.5048
    9MOL    C35 2611   0.214   5.675   0.155 -0.1335 -0.0980 -0.5177
    9MOL    C36 2612   0.077   5.694   0.183 -0.0755 -0.6315  0.6942
    9MOL    C37 2613   0.033   5.769   0.295 -0.0606 -0.0841  0.7827
    9MOL    C38 2614   0.126   5.806   0.395  0.0422  0.2270  0.0455
    9MOL    F39 2615   0.090   5.894   0.490 -0.1181 -0.1083 -0.5669
    9MOL    C40 2616   0.264   5.781   0.371 -0.3679  0.2917  0.0200
    9MOL    C41 2617   0.310   5.712   0.251  0.6211  0.0746 -0.2805
    9MOL    C42 2618   0.274   5.716   8.138  0.2616  0.3529 -0.8070
    9MOL    H43 2619   0.172   5.543   8.219  0.8288 -0.5658  0.7108
    9MOL    H44 2620   8.231   5.662   0.118 -0.5073  1.3451  0.2442
    9MOL    H45 2621   8.162   5.793   0.305 -0.1949  0.6434 -1.9875
    9MOL    H46 2622   0.331   5.816   0.448 -0.4513  0.4296  0.0301
    9MOL    H47 2623   0.415   5.704   0.230  0.2351 -1.6097 -1.7090
    9MOL    H48 2624   0.342   5.795   8.169  0.3076  0.5104 -1.3125
    9MOL    H49 2625   0.322   5.672   8.051  2.8050  2.8767 -0.7391
    9MOL    C50 2626   0.139   5.779   8.090  0.0362  0.7605  0.8557
    9MOL    C51 2627   0.126   5.925   8.123 -0.9973  0.5966  0.3706
    9MOL    C52 2628   0.032   5.969   8.220 -0.0967  0.0372 -1.0688
    9MOL    C53 2629   0.030   6.102   0.023  0.5906  0.5470 -0.6539
    9MOL    C54 2630   0.112   6.200   8.200  0.1715  0.3653 -0.1331
    9MOL    F55 2631   0.106   6.327   0.004 -0.3940 -0.6251 -0.1289
    9MOL    C56 2632   0.206   6.159   8.105  0.2390  0.2232 -0.4209
    9MOL    C57 2633   0.207   6.024   8.061 -0.4472 -0.8504 -0.6338
    9MOL    C58 2634   0.129   5.768   7.936 -0.1729 -1.0669  0.1228
    9MOL    H59 2635   0.056   5.735   8.145  0.5318  0.1640  1.1313
    9MOL    H60 2636   8.190   5.907   0.030  0.5017 -1.3016 -1.8815
    9MOL    H61 2637   8.182   6.138   0.083 -1.8240 -2.6002 -1.8938
    9MOL    H62 2638   0.253   6.244   8.058  1.6927  0.4084  1.2693
    9MOL    H63 2639   0.277   6.004   7.981  1.7397  1.6341  0.5901
    9MOL    H64 2640   0.059   5.844   7.900 -0.3700 -1.0034  0.6217
    9MOL    H65 2641   0.222   5.796   7.888 -1.0078 -0.5020 -1.1976
    9MOL    C66 2642   0.095   5.630   7.869 -0.1387  0.1771  0.1031
    9MOL    C67 2643   0.075   5.660   7.718  0.4167 -0.1807 -0.4949
    9MOL    C68 2644   0.172   5.716   7.629 -0.7213  0.8962 -0.4294
    9MOL    C69 2645   0.152   5.730   7.492 -0.4263  0.5185  0.3124
    9MOL    C70 2646   0.027   5.704   7.441  0.1296  0.0493 -0.1031
    9MOL    F71 2647   0.005   5.725   7.304 -0.4237  0.1202 -0.3215
    9MOL    C72 2648   8.158   5.662   7.524 -0.1855 -0.5404  0.0066
    9MOL    C73 2649   8.180   5.641   7.664 -0.0855 -0.0730  0.9772
    9MOL    C74 2650   0.199   5.513   7.895 -0.1158 -0.3576  0.2225
    9MOL    H75 2651   0.005   5.594   7.919 -0.2467 -0.2781 -0.4146
    9MOL    H76 2652   0.268   5.726   7.679 -2.0267  1.2882  2.0834
    9MOL    H77 2653   0.226   5.766   7.422 -1.1830  1.0577 -0.2043
    9MOL    H78 2654   8.059   5.636   7.489 -1.0698  3.8229 -0.9929
    9MOL    H79 2655   8.106   5.603   7.733 -0.7974  0.0770  0.3075
    9MOL    H80 2656   0.298   5.550   7.866  1.6599 -1.1714  4.8781
    9MOL    H81 2657   0.207   5.491   8.001  0.3103 -0.2119  0.2230
    9MOL    C82 2658   0.173   5.389   7.817  0.1593  0.3985 -0.0631
    9MOL    C83 2659   0.291   5.292   7.850 -0.8811 -0.1131  0.5058
    9MOL    C84 2660   0.414   5.318   7.783  0.0742  0.6305 -0.6139
    9MOL    C85 2661   0.521   5.227   7.787  0.0289 -0.4336 -0.1624
    9MOL    C86 2662   0.510   5.104   7.862  0.0070 -0.5055 -0.0746
    9MOL    F87 2663   0.612   5.015   7.870 -0.3934 -0.1724 -0.0063
    9MOL    C88 2664   0.391   5.085   7.937 -0.1318  0.8672 -0.3610
    9MOL    C89 2665   0.285   5.181   7.941 -0.0125 -0.5159 -0.4655
    9MOL    C90 2666   0.034   5.329   7.842 -0.7190  0.5855  0.2610
    9MOL    H91 2667   0.176   5.402   7.709 -0.3812 -0.3297 -0.1700
    9MOL    H92 2668   0.409   5.401   7.714  2.7154  2.6567  1.5488
    9MOL    H93 2669   0.613   5.246   7.734  0.1592 -1.3856 -0.2830
    9MOL    H94 2670   0.386   4.997   8.000 -0.2963 -0.0275 -1.6006
    9MOL    H95 2671   0.197   5.159   8.000 -0.1088  0.8773 -0.0730
    9MOL    H96 2672   0.041   5.295   7.945  2.0103 -2.9933 -0.9921
    9MOL    H97 2673   8.187   5.401   7.839 -1.4170 -0.1571  1.2324
    9MOL    C98 2674   8.222   5.203   7.767 -0.0446 -0.2765 -0.6951
    9MOL    C99 2675   8.111   5.121   7.834  0.1079  0.1272  0.8150
    9MOL   C100 2676   7.989   5.177   7.858  0.0726  0.8726 -0.1942
    9MOL   C101 2677   7.879   5.104   7.912  0.0657 -0.5559  0.0663
    9MOL   C102 2678   7.887   4.967   7.931 -0.4749  0.2194  0.4845
    9MOL   F103 2679   7.777   4.887   7.965  0.2751 -0.7978 -0.4420
    9MOL   C104 2680   8.015   4.907   7.898  0.0199  0.3245  0.2261
    9MOL   C105 2681   8.123   4.983   7.850 -0.4002  0.0741  0.1234
    9MOL   C106 2682   8.190   5.241   7.625  0.0032 -0.0811  0.2321
    9MOL   H107 2683   0.077   5.139   7.771 -1.0752 -1.6574  1.7347
    9MOL   H108 2684   7.969   5.281   7.836 -2.0116  0.3660 -0.7978
    9MOL   H109 2685   7.795   5.167   7.936  2.0363  1.2142  2.7168
    9MOL   H110 2686   8.030   4.800   7.906  3.0535  0.6487 -0.6660
    9MOL   H111 2687   8.217   4.940   7.819 -0.0997  0.3562  0.6332
    9MOL   H112 2688   8.105   5.310   7.623  0.2068  0.1292 -2.8562
    9MOL   H113 2689   0.035   5.301   7.581  1.4195 -2.3573 -0.3807
    9MOL   C114 2690   8.163   5.122   7.527 -0.0635 -0.4897 -0.0256
    9MOL   C115 2691   8.028   5.136   7.470 -0.1338 -0.1201  0.3581
    9MOL   C116 2692   8.002   5.213   7.352  0.8146  0.2674  0.3117
    9MOL   C117 2693   7.868   5.239   7.308 -0.1405 -0.4223  0.3378
    9MOL   C118 2694   7.756   5.186   7.377  0.9762 -0.1324 -0.1805
    9MOL   F119 2695   7.627   5.223   7.334 -0.8073 -0.2230 -0.2328
    9MOL   C120 2696   7.781   5.112   7.492  0.2054  0.2032  0.1798
    9MOL   C121 2697   7.914   5.095   7.541 -0.0666 -0.0377 -0.7321
    9MOL   C122 2698   0.035   5.088   7.416 -0.4165  0.1919  0.0681
    9MOL   H123 2699   8.150   5.031   7.586 -1.8159 -0.8794 -0.9892
    9MOL   H124 2700   8.078   5.256   7.289  1.5446 -2.5951 -0.8261
    9MOL   H125 2701   7.861   5.288   7.212  0.4590  0.2224  0.6144
    9MOL   H126 2702   7.701   5.080   7.557  0.5779 -0.4700  0.3056
    9MOL   H127 2703   7.919   5.051   7.640 -2.9708 -1.5072 -1.1879
    9MOL   H128 2704   8.229   5.009   7.353  1.2140 -0.6877  0.1082
    9MOL   H129 2705   0.023   5.177   7.354 -1.3789 -0.1400 -0.2282
    9MOL   C130 2706   0.182   5.048   7.457 -0.5031 -0.2520  0.2067
    9MOL   C131 2707   0.186   4.919   7.536 -0.0675  0.7700 -0.2840
    9MOL   C132 2708   0.252   4.919   7.660  0.2119 -0.1414 -0.3626
    9MOL   C133 2709   0.272   4.793   7.728 -0.0408 -0.4106 -0.3654
    9MOL   C134 2710   0.219   4.677   7.674 -0.1834 -0.2489 -0.2767
    9MOL   F135 2711   0.247   4.560   7.730  0.3419 -0.5140  0.2674
    9MOL   C136 2712   0.138   4.682   7.552 -0.3376 -0.0795  0.0854
    9MOL   C137 2713   0.132   4.800   7.481  0.8427  0.7950 -0.4466
    9MOL   C138 2714   0.270   5.035   7.334 -0.2454 -0.0809  0.7239
    9MOL   H139 2715   0.224   5.128   7.517 -0.9339  0.0275  0.1367
    9MOL   H140 2716   0.280   5.013   7.704  1.2573 -0.9891  0.7851
    9MOL   H141 2717   0.338   4.802   7.813 -0.7138  1.1904  0.0096
    9MOL   H142 2718   0.107   4.587   7.512  0.6936 -0.5703  0.4472
    9MOL   H143 2719   0.083   4.791   7.386 -0.9259  0.5685  0.4738
    9MOL   H144 2720   0.352   4.963   7.336  1.0054  1.2601 -0.4627
    9MOL   H145 2721   0.215   4.991   7.251  0.4177  1.7883 -0.7501
    9MOL   C146 2722   0.298   5.175   7.281  0.0729 -0.2072  0.3432
    9MOL   C147 2723   0.415   5.252   7.347 -0.2149 -0.2218 -0.7454
    9MOL   C148 2724   0.531   5.189   7.396 -0.1287  0.6737  0.1110
    9MOL   C149 2725   0.644   5.264   7.453  0.2755  0.4575 -0.6803
    9MOL   C150 2726   0.636   5.398   7.466  0.8510  0.3977  0.9633
    9MOL   F151 2727   0.742   5.466   7.514  0.2061 -0.3553 -0.5309
    9MOL   C152 2728   0.517   5.467   7.431 -0.0151 -0.6714  0.4368
    9MOL   C153 2729   0.412   5.393   7.368  0.5330 -0.1192  0.1113
    9MOL   C154 2730   0.332   5.171   7.133 -0.5549 -0.7021 -0.1700
    9MOL   H155 2731   0.213   5.243   7.288  1.8003  1.9729  0.4125
    9MOL   H156 2732   0.535   5.083   7.377  0.2041  0.7101 -0.0217
    9MOL   H157 2733   0.734   5.220   7.493 -0.3225 -0.2349 -0.0989
    9MOL   H158 2734   0.496   5.572   7.435  1.4060 -0.2875 -1.4290
    9MOL   H159 2735   0.324   5.447   7.337  1.0763 -0.2414 -1.6980
    9MOL   H160 2736   0.369   5.267   7.096 -0.2895 -0.6346  0.2591
    9MOL   H161 2737   0.422   5.111   7.118  2.1189  2.5579  1.8222
    9MOL   C162 2738   0.231   5.146   7.027  0.0418 -0.4669 -0.0598
    9MOL   C163 2739   0.103   5.233   7.037 -0.0142  0.4466  0.1101
    9MOL   C164 2740   8.211   5.178   7.014  0.4217 -0.1814 -0.1229
    9MOL   C165 2741   8.098   5.265   7.005  0.1378  0.6152 -1.1120
    9MOL   C166 2742   8.107   5.396   7.050  0.1890  0.1017 -0.5553
    9MOL   F167 2743   7.996   5.465   7.078 -0.4492  0.1772  0.3106
    9MOL   C168 2744   8.233   5.445   7.083 -0.0033 -0.0777 -0.4461
    9MOL   C169 2745   0.113   5.371   7.063 -0.3797  0.3679  0.3016
    9MOL   C170 2746   0.292   5.153   6.883 -0.1671 -0.1059 -0.7587
    9MOL   H171 2747   0.191   5.046   7.039 -0.4450 -0.4262 -1.2398
    9MOL   H172 2748   8.201   5.070   7.006 -1.9010  0.0804 -1.0451
    9MOL   H173 2749   7.997   5.231   6.986 -0.3895  1.3748  0.2551
    9MOL   H174 2750   0.006   5.550   7.109 -1.7306 -0.2643  0.8933
    9MOL   H175 2751   0.211   5.417   7.067 -0.5150  0.6438  0.4726
    9MOL   H176 2752   0.329   5.254   6.867  0.4462 -0.2423 -0.2260
    9MOL   H177 2753   0.376   5.083   6.876 -0.5965 -0.5695 -1.4299
    9MOL   C178 2754   0.202   5.122   6.766  0.5946  0.3239  0.3848
    9MOL   C179 2755   0.270   5.173   6.638 -0.4690  0.4327 -0.2060
    9MOL   C180 2756   0.245   5.302   6.582  0.3347  0.0480  0.8818
    9MOL   C181 2757   0.302   5.337   6.460 -0.2797  0.0273 -0.1254
    9MOL   C182 2758   0.393   5.256   6.391  0.0158 -0.1040  0.3409
    9MOL   F183 2759   0.448   5.303   6.272  0.4217 -0.0481 -0.1611
    9MOL   C184 2760   0.438   5.140   6.452 -0.2601  0.1539 -0.6620
    9MOL   C185 2761   0.373   5.096   6.574 -0.3605 -0.7790 -0.0597
    9MOL   C186 2762   0.167   4.977   6.771  0.4421  0.5254 -0.0602
    9MOL   H187 2763   0.107   5.172   6.782  0.6494  1.7413 -3.2220
    9MOL   H188 2764   0.174   5.370   6.627  1.8953  1.2265  1.5899
    9MOL   H189 2765   0.270   5.427   6.410 -0.2007 -0.2370 -0.6548
    9MOL   H190 2766   0.522   5.083   6.416  0.8587  0.3525  1.4923
    9MOL   H191 2767   0.416   5.010   6.624  2.4370 -1.0179 -2.7176
    9MOL   H192 2768   0.263   4.926   6.770  0.7646  1.0444  1.9705
    9MOL   H193 2769   0.149   4.933   6.869  0.5117  2.0386  0.6563
    9MOL   C194 2770   0.068   4.931   6.663  0.1936  0.0827  0.1029
    9MOL   C195 2771   0.054   4.784   6.665 -0.3933 -0.3266 -0.0799
    9MOL   C196 2772   0.129   4.697   6.581  0.4107  0.5854 -0.0211
    9MOL   C197 2773   0.109   4.555   6.591 -0.0895 -0.1793 -0.1811
    9MOL   C198 2774   0.024   4.497   6.686 -0.1314 -0.1278 -0.0640
    9MOL   F199 2775   8.225   4.368   6.681  0.0229  0.1151 -0.5079
    9MOL   C200 2776   8.191   4.584   6.774  0.1742 -0.0699  0.2890
    9MOL   C201 2777   8.209   4.725   6.767 -0.9396 -0.2929  0.1732
    9MOL   C202 2778   8.173   5.006   6.666 -0.5114 -0.7771 -0.2467
    9MOL   H203 2779   0.115   4.941   6.565 -0.1951 -0.0043 -0.0929
    9MOL   H204 2780   0.205   4.734   6.514  0.9480  0.3293  0.4508
    9MOL   H205 2781   0.154   4.485   6.522 -0.4467 -0.9966  0.4171
    9MOL   H206 2782   8.111   4.542   6.835 -0.4400 -0.6900 -0.9332
    9MOL   H207 2783   8.168   4.789   6.844 -0.5616  1.6664 -1.1946
    9MOL   H208 2784   8.136   5.023   6.767  1.3589  1.2160  0.1537
    9MOL   H209 2785   8.189   5.108   6.629 -0.5340 -0.6834  0.0057
    9MOL   C210 2786   8.050   4.944   6.592 -0.2624  0.2972 -0.3385
    9MOL   C211 2787   7.929   5.005   6.651  0.2288 -0.0750  0.0285
    9MOL   C212 2788   7.864   4.937   6.753 -0.1389 -0.5370 -0.1664
    9MOL   C213 2789   7.783   5.017   6.838  0.0084  0.2213  0.3001
    9MOL   C214 2790   7.757   5.152   6.817 -0.5971 -0.8056 -0.1646
    9MOL   F215 2791   7.684   5.222   6.904  0.0702 -0.4074 -0.2694
    9MOL   C216 2792   7.800   5.212   6.697 -0.3727  0.2041  0.0233
    9MOL   C217 2793   7.895   5.140   6.618 -0.0984 -0.0039  0.3881
    9MOL   C218 2794   8.052   4.940   6.437  0.1340 -0.3517  1.0894
    9MOL   H219 2795   8.040   4.838   6.616 -0.1308 -0.0453 -1.7780
    9MOL   H220 2796   7.898   4.840   6.787  1.3370 -0.7846 -2.2546
    9MOL   H221 2797   7.741   4.965   6.923 -1.1577  1.9039  0.7806
    9MOL   H222 2798   7.765   5.309   6.666 -2.3221 -0.4544  0.1157
    9MOL   H223 2799   7.943   5.187   6.532 -1.3862 -3.6101 -2.4340
    9MOL   H224 2800   8.040   5.040   6.395 -0.9143 -1.3479 -1.0675
    9MOL   H225 2801   8.156   4.931   6.404  0.0345 -0.6670  0.8656
    9MOL   C226 2802   7.945   4.850   6.365 -0.7075  0.6346  0.0852
    9MOL   C227 2803   7.930   4.893   6.221  0.0254  0.1008  0.6855
    9MOL   C228 2804   7.804   4.938   6.170 -0.2077  0.0036  0.3669
    9MOL   C229 2805   7.791   4.968   6.035 -0.8133 -0.0113  0.2569
    9MOL   C230 2806   7.910   4.961   5.950 -0.6203  0.4095 -0.3232
    9MOL   F231 2807   7.904   4.994   5.822  0.3059  0.4985 -0.2589
    9MOL   C232 2808   8.035   4.913   6.007  0.1773 -0.2294 -0.2930
    9MOL   C233 2809   8.046   4.875   6.139  0.4383  0.5570 -0.6960
    9MOL   C234 2810   7.977   4.696   6.396 -0.2439  0.0543  0.2817
    9MOL   H235 2811   7.855   4.892   6.410 -2.6924 -1.1075 -2.1298
    9MOL   H236 2812   7.723   4.946   6.240 -0.6923  1.0878 -0.3050
    9MOL   H237 2813   7.709   5.015   5.982 -2.1790 -2.7765 -0.1372
    9MOL   H238 2814   8.122   4.913   5.943  1.8208 -0.9539  1.8824
    9MOL   H239 2815   8.140   4.849   6.185 -0.6567  2.6700  2.8984
    9MOL   H240 2816   7.981   4.652   6.296 -1.9211 -0.6205  0.4829
    9MOL   H241 2817   8.082   4.686   6.423  0.2560  1.8567 -0.8892
    9MOL   C242 2818   7.881   4.611   6.482 -0.1725 -0.5941  0.1285
    9MOL   C243 2819   7.735   4.651   6.449 -0.4421 -0.5384 -0.7729
    9MOL   C244 2820   7.682   4.624   6.323 -0.1149  0.0426 -0.0444
    9MOL   C245 2821   7.548   4.660   6.298 -0.7593 -0.7984  0.4724
    9MOL   C246 2822   7.468   4.718   6.397 -0.0063 -0.1596 -0.0504
    9MOL   F247 2823   7.342   4.753   6.360 -0.3184 -0.2096 -0.3173
    9MOL   C248 2824   7.519   4.756   6.522 -0.3620  0.2212  0.0575
    9MOL   C249 2825   7.653   4.717   6.552  0.3913  0.2333 -0.3131
    9MOL   C250 2826   7.905   4.458   6.461 -0.5320  0.2687 -0.0620
    9MOL   H251 2827   7.901   4.637   6.586 -2.6283 -1.7982  0.9383
    9MOL   H252 2828   7.737   4.579   6.241 -1.1273 -1.5997  0.1587
    9MOL   H253 2829   7.514   4.656   6.196 -1.0809 -0.6484  0.5721
    9MOL   H254 2830   7.458   4.816   6.588  1.5986  0.5081  1.6254
    9MOL   H255 2831   7.691   4.725   6.653 -1.0962  0.1562  0.2593
    9MOL   H256 2832   7.917   4.439   6.355 -0.7417 -1.1358  0.1572
    9MOL   H257 2833   8.004   4.451   6.508  0.6767 -0.8255 -2.6405
    9MOL   C258 2834   7.822   4.336   6.527 -0.2092 -0.0833 -0.0348
    9MOL   C259 2835   7.806   4.361   6.678  0.2718  0.6751  0.2535
    9MOL   C260 2836   7.908   4.340   6.771 -0.2570  0.3984  0.1613
    9MOL   C261 2837   7.892   4.371   6.907 -0.0538 -0.1869  0.2295
    9MOL   C262 2838   7.772   4.416   6.961  0.2181 -0.4425  0.4633
    9MOL   F263 2839   7.769   4.444   7.096 -0.0317 -0.2479  0.1672
    9MOL   C264 2840   7.668   4.442   6.870 -0.6224 -0.1933  0.3834
    9MOL   C265 2841   7.686   4.413   6.734  0.4994  0.7470 -0.3277
    9MOL   C266 2842   7.688   4.311   6.453 -0.2812 -0.0991  0.6386
    9MOL   H267 2843   7.888   4.249   6.522  0.8630  0.7560 -0.5925
    9MOL   H268 2844   8.004   4.299   6.743  0.5405  2.5018 -0.3497
    9MOL   H269 2845   7.970   4.354   6.981  0.8565  0.1761 -0.6290
    9MOL   H270 2846   7.577   4.478   6.914 -1.0330  0.9944 -1.4087
    9MOL   H271 2847   7.600   4.431   6.670 -0.9021 -0.6839  1.0925
    9MOL   H272 2848   7.617   4.257   6.515 -0.5553  2.0407  2.2485
    9MOL   H273 2849   7.636   4.405   6.435  3.5757  1.8820 -0.7407
    9MOL   C274 2850   7.714   4.244   6.311 -0.0159 -0.4284  0.0696
    9MOL   C275 2851   7.769   4.102   6.317  0.1569  0.6526 -0.0727
    9MOL   C276 2852   7.687   4.004   6.381 -0.0721  0.6505 -0.6154
    9MOL   C277 2853   7.735   3.871   6.387  0.4950 -0.0216 -0.3258
    9MOL   C278 2854   7.867   3.839   6.354  0.0496  0.1688 -0.2440
    9MOL   F279 2855   7.920   3.717   6.381 -0.2865 -0.0875 -0.6685
    9MOL   C280 2856   7.942   3.936   6.283 -0.3178 -0.4853 -0.0980
    9MOL   C281 2857   7.893   4.065   6.267  0.0095  0.2361  0.0710
    9MOL   C282 2858   7.578   4.253   6.233 -0.4565  0.2993  0.0943
    9MOL   H283 2859   7.779   4.313   6.257 -1.6115  0.0483 -1.3004
    9MOL   H284 2860   7.591   4.040   6.415 -1.1840 -2.5393 -0.2150
    9MOL   H285 2861   7.669   3.804   6.440 -1.6575 -0.4115 -3.3873
    9MOL   H286 2862   8.044   3.919   6.253  0.6884  1.3614  2.0778
    9MOL   H287 2863   7.955   4.141   6.220  0.2074 -1.3892 -2.4142
    9MOL   H288 2864   7.548   4.152   6.204  1.0046  0.5456 -2.3911
    9MOL   H289 2865   7.489   4.292   6.284 -1.6625 -2.4958  0.2436
    9MOL   C290 2866   7.576   4.342   6.105  0.6759 -0.5158  0.3454
    9MOL   C291 2867   7.698   4.327   6.008 -0.1248 -0.0029 -0.1006
    9MOL   C292 2868   7.730   4.202   5.949  0.4200 -0.9626 -1.0162
    9MOL   C293 2869   7.838   4.188   5.859  0.0528 -0.3268 -0.2282
    9MOL   C294 2870   7.915   4.303   5.830  0.7335  0.4259  0.4131
    9MOL   F295 2871   8.011   4.296   5.737  0.4008  0.0252  0.4017
    9MOL   C296 2872   7.890   4.426   5.893 -0.3565  0.7641  0.7861
    9MOL   C297 2873   7.784   4.439   5.982  0.3016 -0.3292 -0.2477
    9MOL   C298 2874   7.441   4.339   6.021 -0.0299 -0.1544  0.2933
    9MOL   H299 2875   7.587   4.445   6.138  0.2074 -0.0978 -0.7585
    9MOL   H300 2876   7.658   4.123   5.966 -1.4405  1.2535  1.9899
    9MOL   H301 2877   7.858   4.093   5.812  2.6097  0.0780 -0.0441
    9MOL   H302 2878   7.961   4.507   5.886 -0.4109  0.5947 -2.2036
    9MOL   H303 2879   7.754   4.536   6.018 -0.4291 -1.5881  2.6412
    9MOL   H304 2880   7.461   4.271   5.939 -0.2349 -0.7888  0.7649
    9MOL   H305 2881   7.364   4.296   6.086  0.0956 -0.0079  0.5433
    9MOL   C306 2882   7.383   4.467   5.956  0.5307  0.5774  0.0967
    9MOL   C307 2883   7.463   4.538   5.854 -0.3967 -0.2720  0.3214
    9MOL   C308 2884   7.538   4.653   5.891  0.5697 -0.3658 -0.3492
    9MOL   C309 2885   7.627   4.714   5.801 -0.3549 -0.4943  0.2940
    9MOL   C310 2886   7.641   4.660   5.672 -0.1131 -0.3654 -0.5676
    9MOL   F311 2887   7.745   4.700   5.596  0.2811  0.4052 -0.3015
    9MOL   C312 2888   7.560   4.548   5.633 -0.2714 -0.0186  0.1988
    9MOL   C313 2889   7.469   4.484   5.724  0.3268  0.2589  0.2352
    9MOL   C314 2890   7.236   4.449   5.909 -0.7472 -0.1732 -0.9930
    9MOL   H315 2891   7.376   4.540   6.037 -0.1288  0.3616  0.2322
    9MOL   H316 2892   7.535   4.696   5.990  0.2240 -1.2907  0.0422
    9MOL   H317 2893   7.692   4.797   5.826 -0.2462 -0.0856 -1.2990
    9MOL   H318 2894   7.580   4.507   5.535  0.3633  1.7522 -0.4170
    9MOL   H319 2895   7.420   4.392   5.695  1.5001 -1.0092  2.1497
    9MOL   H320 2896   7.225   4.376   5.829 -0.0439 -0.0748 -1.1895
    9MOL   H321 2897   7.184   4.386   5.981 -0.3211 -0.2774 -0.7781
    9MOL   H322 2898   7.182   4.541   5.884 -0.3483  0.7290  1.3376
   10MOL     C1 2899   0.523   1.626   3.358 -0.0979 -0.0349 -0.1184
   10MOL     C2 2900   0.405   1.667   3.445 -0.4171 -0.3407  0.3499
   10MOL     C3 2901   0.393   1.582   3.558  0.1009  0.5332  0.1670
   10MOL     C4 2902   0.285   1.603   3.650 -0.1456  0.1767  1.1076
   10MOL     C5 2903   0.201   1.711   3.625  0.3061 -0.0219  0.5546
   10MOL     F6 2904   0.106   1.737   3.711  0.1475  0.1666  0.1387
   10MOL     C7 2905   0.208   1.789   3.507  0.6705  0.1798  0.4874
   10MOL     C8 2906   0.320   1.771   3.419 -0.4897 -0.4029  0.5191
   10MOL     C9 2907   0.667   1.666   3.400 -0.0430 -0.3186 -0.0425
   10MOL    H10 2908   0.508   1.667   3.258  1.3157 -1.1624 -0.8088
   10MOL    H11 2909   0.459   1.501   3.584 -1.1750 -0.9892 -1.2090
   10MOL    H12 2910   0.274   1.534   3.732 -2.0886 -0.6154  0.2147
   10MOL    H13 2911   0.137   1.865   3.477  0.7622 -0.0642 -0.3658
   10MOL    H14 2912   0.329   1.824   3.326  2.9459  0.4293  1.2683
   10MOL    H15 2913   0.659   1.773   3.416  0.8148  0.1000 -2.2447
   10MOL    H16 2914   0.698   1.619   3.493 -2.5743 -3.1252 -0.5439
   10MOL    H17 2915   0.521   1.517   3.353  1.8016 -0.0468 -1.0028
   10MOL    C18 2916   0.769   1.611   3.292 -0.4674 -0.0831 -0.2406
   10MOL    C19 2917   0.900   1.679   3.293 -0.0686 -0.7700 -0.6000
   10MOL    C20 2918   0.943   1.732   3.175 -0.8962 -1.1235  0.9067
   10MOL    C21 2919   1.075   1.781   3.163 -0.0669 -0.7378 -0.9139
   10MOL    C22 2920   1.161   1.788   3.277  0.4047  0.3253 -0.0204
   10MOL    F23 2921   1.293   1.824   3.260 -0.3539  0.1788 -0.2015
   10MOL    C24 2922   1.112   1.737   3.398 -0.0677 -0.3942 -0.4701
   10MOL    C25 2923   0.985   1.677   3.408  0.1649  0.4116  0.2554
   10MOL    C26 2924   0.774   1.458   3.297 -0.1329  0.3127  0.2113
   10MOL    H27 2925   0.725   1.650   3.200 -1.8258  0.3827  0.5841
   10MOL    H28 2926   0.883   1.725   3.085  2.8645  1.6727 -2.0040
   10MOL    H29 2927   1.114   1.809   3.066  1.0532  0.0771 -0.2384
   10MOL    H30 2928   1.178   1.745   3.484 -0.3636  0.0290 -0.2838
   10MOL    H31 2929   0.960   1.634   3.503 -0.8799 -0.0447 -0.2119
   10MOL    H32 2930   0.829   1.435   3.388 -0.2093 -0.8834 -0.0308
   10MOL    H33 2931   0.681   1.400   3.291 -0.5571  0.8208  1.7531
   10MOL    C34 2932   0.866   1.389   3.184  0.4598  0.1528  0.5850
   10MOL    C35 2933   0.889   1.242   3.216 -0.8297 -0.0002 -0.1110
   10MOL    C36 2934   1.011   1.191   3.267  0.3334  0.4750  0.8243
   10MOL    C37 2935   1.025   1.060   3.307 -0.6361 -0.3835 -0.0521
   10MOL    C38 2936   0.911   0.976   3.310 -0.7097 -0.1192  0.5037
   10MOL    F39 2937   0.931   0.850   3.351  0.3538  0.1240  0.0846
   10MOL    C40 2938   0.782   1.025   3.267 -0.3566 -1.1046  0.3396
   10MOL    C41 2939   0.775   1.154   3.212 -0.3911 -0.7096 -1.0029
   10MOL    C42 2940   0.812   1.417   3.042 -0.2840  0.6700 -0.2029
   10MOL    H43 2941   0.962   1.437   3.206  1.8456 -2.5285  0.5345
   10MOL    H44 2942   1.096   1.250   3.300  0.5017  0.6778  0.0554
   10MOL    H45 2943   1.121   1.029   3.346 -1.3842 -0.1153  2.0723
   10MOL    H46 2944   0.693   0.966   3.278 -0.4546 -0.7863  1.3311
   10MOL    H47 2945   0.676   1.181   3.179  0.6105  3.3202 -0.9616
   10MOL    H48 2946   0.714   1.369   3.036 -0.3906  0.8513  0.1104
   10MOL    H49 2947   0.785   1.521   3.025 -1.3170  0.3173 -0.7439
   10MOL    C50 2948   0.911   1.372   2.930  0.0265  0.0544  0.2699
   10MOL    C51 2949   0.827   1.353   2.803  0.7718  0.5242  0.2894
   10MOL    C52 2950   0.792   1.464   2.719  0.5292  0.5969 -0.0648
   10MOL    C53 2951   0.713   1.441   2.604  0.0036  0.3744  0.0397
   10MOL    C54 2952   0.672   1.310   2.572  0.0039  0.2298  0.1476
   10MOL    F55 2953   0.588   1.295   2.460  0.6336 -0.0415 -0.2899
   10MOL    C56 2954   0.708   1.204   2.659 -0.2154 -0.3159 -0.8884
   10MOL    C57 2955   0.775   1.225   2.780 -0.0347 -0.1741  0.1255
   10MOL    C58 2956   1.027   1.475   2.920 -0.2300 -0.5015 -0.0273
   10MOL    H59 2957   0.952   1.275   2.958 -1.9140 -1.1865 -1.0749
   10MOL    H60 2958   0.823   1.565   2.739 -0.1015  1.2320 -2.1274
   10MOL    H61 2959   0.692   1.520   2.534 -1.8218 -0.0256  0.1087
   10MOL    H62 2960   0.673   1.103   2.646  0.1389 -0.6544  0.7087
   10MOL    H63 2961   0.792   1.143   2.849 -1.4306  0.1913  0.9176
   10MOL    H64 2962   0.976   1.571   2.907 -1.5257 -1.0582  0.9428
   10MOL    H65 2963   1.081   1.478   3.015  0.1288  1.5565 -0.2726
   10MOL    C66 2964   1.126   1.465   2.804 -0.3812 -1.1267  0.2030
   10MOL    C67 2965   1.207   1.600   2.786 -0.0803  0.2516 -0.4350
   10MOL    C68 2966   1.210   1.647   2.655  0.2107 -0.1601  0.0467
   10MOL    C69 2967   1.281   1.769   2.634 -0.5984  0.6642  0.3370
   10MOL    C70 2968   1.348   1.836   2.739 -0.0254  0.3543  0.1450
   10MOL    F71 2969   1.406   1.959   2.726 -0.0503 -0.1040 -0.5110
   10MOL    C72 2970   1.342   1.787   2.875  0.7874 -0.2712  0.6136
   10MOL    C73 2971   1.271   1.666   2.895 -0.0885 -0.8635 -0.0973
   10MOL    C74 2972   1.218   1.344   2.806 -0.2870 -0.2608 -0.2334
   10MOL    H75 2973   1.050   1.458   2.725 -2.0869 -1.6725  1.8640
   10MOL    H76 2974   1.162   1.596   2.574 -0.0831  0.1713  0.0121
   10MOL    H77 2975   1.282   1.815   2.536 -1.2940 -1.9080 -0.9228
   10MOL    H78 2976   1.384   1.836   2.962 -1.5483  0.7148  1.2336
   10MOL    H79 2977   1.254   1.635   2.997 -2.4975 -0.2236 -0.2720
   10MOL    H80 2978   1.317   1.384   2.784 -0.4360  0.6773  0.7976
   10MOL    H81 2979   1.215   1.303   2.907  1.8222  1.7490  0.6838
   10MOL    C82 2980   1.174   1.230   2.702  0.1353  0.5969 -0.3133
   10MOL    C83 2981   1.149   1.283   2.556 -0.7248 -0.1197 -0.4653
   10MOL    C84 2982   1.020   1.285   2.500  0.1838  0.7102  0.3591
   10MOL    C85 2983   1.003   1.331   2.367  0.0536 -0.5851  0.4875
   10MOL    C86 2984   1.108   1.396   2.298  0.1086  0.1431 -0.3686
   10MOL    F87 2985   1.085   1.477   2.194  0.2129  0.4605 -0.1995
   10MOL    C88 2986   1.235   1.384   2.351  0.9169  0.0415  0.1171
   10MOL    C89 2987   1.258   1.321   2.481 -0.8209  0.6788 -0.9118
   10MOL    C90 2988   1.282   1.120   2.696  0.3179  0.1163 -0.1001
   10MOL    H91 2989   1.080   1.185   2.733 -0.7117  3.0525  0.8342
   10MOL    H92 2990   0.941   1.248   2.564 -0.1745  1.8327  0.5916
   10MOL    H93 2991   0.904   1.345   2.325  0.8523 -0.2169 -1.3089
   10MOL    H94 2992   1.317   1.430   2.300  2.1317 -0.5722  1.4726
   10MOL    H95 2993   1.357   1.316   2.524 -1.0196 -1.7026 -0.6808
   10MOL    H96 2994   1.283   1.063   2.602 -0.6977 -0.9095  0.4976
   10MOL    H97 2995   1.384   1.156   2.701  0.4025 -0.1018 -0.2226
   10MOL    C98 2996   1.266   1.015   2.808 -0.5799 -0.0910 -0.2428
   10MOL    C99 2997   1.132   0.956   2.827  0.1433  0.2120 -0.8017
   10MOL   C100 2998   1.069   0.940   2.950  0.0145  0.3803 -0.9842
   10MOL   C101 2999   0.944   0.879   2.962  0.0690 -0.5241  0.2713
   10MOL   C102 3000   0.878   0.825   2.845  0.8108  0.9232 -0.1372
   10MOL   F103 3001   0.750   0.768   2.850 -0.3840 -0.2484 -0.0620
   10MOL   C104 3002   0.940   0.844   2.719 -0.2554  0.0617 -0.6543
   10MOL   C105 3003   1.063   0.909   2.709 -0.0825 -0.3998 -0.6058
   10MOL   C106 3004   1.380   0.904   2.788  0.5311  0.6337 -0.0870
   10MOL   H107 3005   1.279   1.073   2.900  1.7601 -0.0093 -0.6000
   10MOL   H108 3006   1.117   0.963   3.044  0.0929 -2.4531 -0.2932
   10MOL   H109 3007   0.902   0.883   3.062 -0.2266  2.8445  0.0717
   10MOL   H110 3008   0.893   0.819   2.625 -2.2950  0.9024  0.1066
   10MOL   H111 3009   1.107   0.913   2.611 -0.4850 -0.0826 -0.7705
   10MOL   H112 3010   1.362   0.858   2.691 -1.0440  0.2549  0.3674
   10MOL   H113 3011   1.482   0.944   2.779  0.3104  1.1572 -0.2719
   10MOL   C114 3012   1.370   0.795   2.901 -0.0059 -0.6110  0.2183
   10MOL   C115 3013   1.457   0.679   2.848 -0.8636  0.1689  0.4249
   10MOL   C116 3014   1.403   0.561   2.794 -0.0233  1.1306  0.7460
   10MOL   C117 3015   1.487   0.458   2.756  0.3144 -0.6462  0.0838
   10MOL   C118 3016   1.628   0.469   2.774 -0.3376  0.4071 -0.1627
   10MOL   F119 3017   1.710   0.359   2.751 -0.3158 -0.0492  0.1065
   10MOL   C120 3018   1.682   0.585   2.824 -0.2741 -0.4563 -0.1700
   10MOL   C121 3019   1.597   0.691   2.859  0.1057  0.1536 -0.0931
   10MOL   C122 3020   1.409   0.849   3.047  0.3496 -0.1491  0.5824
   10MOL   H123 3021   1.264   0.767   2.905 -0.6960  1.7510 -0.7745
   10MOL   H124 3022   1.298   0.537   2.784  0.3397 -0.5223  0.7863
   10MOL   H125 3023   1.441   0.364   2.727  0.1531 -0.5011 -0.1350
   10MOL   H126 3024   1.790   0.582   2.833 -0.3249 -2.3025  0.0686
   10MOL   H127 3025   1.644   0.772   2.913 -1.7153  0.0286  1.7561
   10MOL   H128 3026   1.511   0.885   3.038  0.0990  0.7728  1.3939
   10MOL   H129 3027   1.340   0.926   3.081 -0.7764 -0.1192 -1.6304
   10MOL   C130 3028   1.409   0.739   3.153 -0.0767  0.2410 -0.9194
   10MOL   C131 3029   1.514   0.759   3.264 -0.2392  0.0399  0.6078
   10MOL   C132 3030   1.623   0.663   3.278  0.1453 -0.3052 -0.4618
   10MOL   C133 3031   1.719   0.689   3.378  0.2772 -0.4177 -0.0006
   10MOL   C134 3032   1.705   0.798   3.463  0.5212 -0.0455 -0.5936
   10MOL   F135 3033   1.815   0.821   3.539 -0.0990 -0.0091 -0.0486
   10MOL   C136 3034   1.605   0.892   3.442  0.3011  0.8167 -0.0603
   10MOL   C137 3035   1.509   0.874   3.344  0.1132 -0.0369  0.3975
   10MOL   C138 3036   1.269   0.715   3.218  0.2601  0.0046  0.0852
   10MOL   H139 3037   1.454   0.649   3.110 -1.8400 -0.7352 -0.7918
   10MOL   H140 3038   1.630   0.570   3.223  0.7181 -0.2679 -0.4554
   10MOL   H141 3039   1.804   0.622   3.388  1.1745  0.4504 -1.5419
   10MOL   H142 3040   1.594   0.980   3.503  0.5025  0.1567  0.9356
   10MOL   H143 3041   1.427   0.940   3.325 -0.7278 -1.4671 -1.0815
   10MOL   H144 3042   1.234   0.812   3.255 -0.8622 -0.7249  0.9520
   10MOL   H145 3043   1.194   0.708   3.139 -0.8039 -1.1304  1.1969
   10MOL   C146 3044   1.246   0.603   3.321  0.0274 -0.7641  0.1920
   10MOL   C147 3045   1.305   0.640   3.460  0.2369  0.1610 -0.7965
   10MOL   C148 3046   1.243   0.749   3.529 -0.1907 -0.5366 -1.0586
   10MOL   C149 3047   1.305   0.801   3.644  0.0705  0.3096 -0.4512
   10MOL   C150 3048   1.416   0.736   3.702  0.7443 -0.6140  0.8715
   10MOL   F151 3049   1.469   0.777   3.819 -0.6666 -0.2245  0.4384
   10MOL   C152 3050   1.465   0.621   3.640  0.4071 -0.0273 -0.0759
   10MOL   C153 3051   1.412   0.575   3.521  0.1283  0.0097  0.8949
   10MOL   C154 3052   1.101   0.559   3.347  0.2621 -0.2136  0.5166
   10MOL   H155 3053   1.299   0.523   3.270  1.3992  1.0796 -1.3235
   10MOL   H156 3054   1.156   0.796   3.486 -0.6379 -1.0820 -0.7728
   10MOL   H157 3055   1.246   0.881   3.686 -2.7806 -0.1055 -3.4856
   10MOL   H158 3056   1.554   0.575   3.682  1.0592  0.6363 -0.7265
   10MOL   H159 3057   1.476   0.510   3.463 -1.8197 -0.0911 -1.2502
   10MOL   H160 3058   1.077   0.558   3.453  0.2915  0.3486  0.5311
   10MOL   H161 3059   1.036   0.641   3.314  0.7918  0.3170  0.7792
   10MOL   C162 3060   1.066   0.427   3.295  0.4228  0.1329  0.3412
   10MOL   C163 3061   1.049   0.412   3.142  0.1236  0.3567  0.0091
   10MOL   C164 3062   0.934   0.461   3.072 -0.6295 -0.0783 -0.5556
   10MOL   C165 3063   0.932   0.442   2.932 -0.1196  0.0680 -0.1893
   10MOL   C166 3064   1.030   0.379   2.855 -0.0270 -0.0650 -0.6205
   10MOL   F167 3065   1.006   0.347   2.727 -0.1510 -0.0202 -0.5315
   10MOL   C168 3066   1.147   0.336   2.922 -0.3356 -0.5595  0.4611
   10MOL   C169 3067   1.156   0.359   3.063 -0.7695 -0.2204 -0.9055
   10MOL   C170 3068   1.143   0.309   3.361 -0.5238  0.0153 -0.4474
   10MOL   H171 3069   0.971   0.407   3.346  0.3379  1.7237  0.8177
   10MOL   H172 3070   0.850   0.511   3.118 -0.6182 -0.0388 -0.5785
   10MOL   H173 3071   0.842   0.468   2.879  0.0468 -1.6763 -1.3639
   10MOL   H174 3072   1.224   0.281   2.870 -0.9625  0.8962 -2.0466
   10MOL   H175 3073   1.233   0.309   3.121 -2.0010  0.9369  1.7887
   10MOL   H176 3074   1.241   0.292   3.316 -0.7021 -2.4022  0.0161
   10MOL   H177 3075   1.159   0.333   3.466 -0.8439 -0.6483 -0.2438
   10MOL   C178 3076   1.068   0.175   3.362 -0.0179 -0.0148  0.0718
   10MOL   C179 3077   1.166   0.063   3.404  0.3527  0.3786 -0.0190
   10MOL   C180 3078   1.241   0.070   3.520 -0.0762 -0.2312  0.0399
   10MOL   C181 3079   1.316   8.196   3.563 -0.4236 -0.2021 -0.4474
   10MOL   C182 3080   1.316   8.077   3.493 -0.4491  0.1008  0.0421
   10MOL   F183 3081   1.391   7.972   3.535  0.1702  0.5485  0.0108
   10MOL   C184 3082   1.252   8.069   3.366  0.2203  0.0667 -0.7985
   10MOL   C185 3083   1.169   8.179   3.321 -0.5026  0.3943 -0.2923
   10MOL   C186 3084   0.929   0.170   3.430  0.3904  0.5209 -0.6080
   10MOL   H187 3085   1.049   0.170   3.255  0.2439  1.6537 -0.0683
   10MOL   H188 3086   1.235   0.158   3.582 -0.1187  0.7384 -1.3154
   10MOL   H189 3087   1.374   8.200   3.655 -0.1704 -1.0332 -0.5725
   10MOL   H190 3088   1.255   7.979   3.307 -0.3186 -0.3204 -0.2459
   10MOL   H191 3089   1.104   8.174   3.235 -1.4654  1.0355  0.3889
   10MOL   H192 3090   0.923   0.064   3.453 -0.0882  0.5429 -0.6400
   10MOL   H193 3091   0.928   0.228   3.523  1.2446  0.7493 -0.7326
   10MOL   C194 3092   0.799   0.199   3.341 -0.6993 -0.7075  0.1306
   10MOL   C195 3093   0.801   0.117   3.210 -0.8370 -0.4388  1.1705
   10MOL   C196 3094   0.840   8.218   3.193 -0.6350  0.3554  0.0647
   10MOL   C197 3095   0.850   8.154   3.069  0.0269 -0.2573  0.0870
   10MOL   C198 3096   0.813   8.228   2.953 -0.6744 -0.8319  0.2194
   10MOL   F199 3097   0.825   8.171   2.832 -0.1330  1.1083  0.9068
   10MOL   C200 3098   0.765   0.124   2.963 -0.1219 -0.2438 -0.4491
   10MOL   C201 3099   0.762   0.183   3.093  0.0902 -0.7899  1.2508
   10MOL   C202 3100   0.665   0.177   3.414  0.0304  0.1345 -0.2338
   10MOL   H203 3101   0.800   0.300   3.300 -0.7933 -0.5388  0.5364
   10MOL   H204 3102   0.873   8.167   3.283 -3.0967 -1.5328 -0.0475
   10MOL   H205 3103   0.874   8.048   3.074 -2.2305 -0.7875  0.3588
   10MOL   H206 3104   0.731   0.171   2.872  0.5761  0.4884 -0.3436
   10MOL   H207 3105   0.734   0.287   3.089 -1.2439 -1.1841 -0.5715
   10MOL   H208 3106   0.587   0.186   3.338 -0.1239 -0.3783 -0.1395
   10MOL   H209 3107   0.659   0.074   3.449 -0.5530  0.0642 -0.5207
   10MOL   C210 3108   0.632   0.281   3.526  0.2987 -1.2962 -0.2539
   10MOL   C211 3109   0.612   0.417   3.461  0.3084 -0.0994 -0.8605
   10MOL   C212 3110   0.514   0.450   3.370  0.5019 -0.3845  0.2269
   10MOL   C213 3111   0.499   0.581   3.319  0.3245 -0.4093 -1.0350
   10MOL   C214 3112   0.589   0.684   3.357 -0.0673  0.0424  0.5045
   10MOL   F215 3113   0.569   0.805   3.307  0.8060  0.2459 -0.1283
   10MOL   C216 3114   0.687   0.655   3.452 -0.4072  0.2217  1.0428
   10MOL   C217 3115   0.692   0.527   3.506  0.3429 -0.2417 -0.7255
   10MOL   C218 3116   0.504   0.228   3.603 -0.1498 -0.2028  0.8618
   10MOL   H219 3117   0.724   0.299   3.582 -1.3174 -1.5607  2.5781
   10MOL   H220 3118   0.435   0.382   3.344  2.3497 -2.7566  0.7104
   10MOL   H221 3119   0.416   0.615   3.259  1.2440  4.0798  0.1140
   10MOL   H222 3120   0.757   0.735   3.475 -0.7509  0.3819  1.5640
   10MOL   H223 3121   0.762   0.515   3.588 -1.7426  0.8095  1.2499
   10MOL   H224 3122   0.467   0.316   3.656 -0.6196  0.1275  0.0024
   10MOL   H225 3123   0.425   0.204   3.532  0.8340 -2.5687  0.5341
   10MOL   C226 3124   0.539   0.125   3.707  0.3713  0.3043  0.4442
   10MOL   C227 3125   0.630   0.193   3.815  0.1541  0.4496 -0.7018
   10MOL   C228 3126   0.772   0.168   3.810 -0.0994 -0.0377  0.0015
   10MOL   C229 3127   0.854   0.224   3.908  0.3358  0.2725  0.1264
   10MOL   C230 3128   0.802   0.293   4.020  0.0051 -0.1297 -0.0343
   10MOL   F231 3129   0.890   0.324   4.121  0.4607  0.5756  0.4353
   10MOL   C232 3130   0.668   0.316   4.023  0.7117  0.3114 -0.2686
   10MOL   C233 3131   0.579   0.274   3.924 -0.2753 -0.4514  0.0362
   10MOL   C234 3132   0.421   0.051   3.782 -0.2064 -0.4406  0.6367
   10MOL   H235 3133   0.596   0.043   3.663  1.3936  1.9597 -1.4261
   10MOL   H236 3134   0.814   0.118   3.724 -2.4518 -1.7156 -0.2458
   10MOL   H237 3135   0.957   0.198   3.923  0.2027 -0.3698 -0.0656
   10MOL   H238 3136   0.612   0.364   4.102 -0.8789 -1.8965 -0.0098
   10MOL   H239 3137   0.477   0.302   3.943 -0.1187 -0.4796  0.9433
   10MOL   H240 3138   0.394   0.116   3.865  1.9361  0.9837  0.2600
   10MOL   H241 3139   0.329   0.031   3.728  0.6062 -0.2892 -0.8404
   10MOL   C242 3140   0.469   8.152   3.851 -0.4482  0.3643  0.5868
   10MOL   C243 3141   0.390   8.134   3.982  0.0344  0.0303 -0.2184
   10MOL   C244 3142   0.251   8.119   3.968 -0.2172 -0.0225  0.2889
   10MOL   C245 3143   0.175   8.119   4.088  0.1585  0.0848  0.0039
   10MOL   C246 3144   0.234   8.123   4.212 -0.7769 -0.0750 -0.5632
   10MOL   F247 3145   0.162   8.095   4.324 -0.0987  0.0879  0.7989
   10MOL   C248 3146   0.379   8.130   4.216  0.4166 -0.1350  0.0779
   10MOL   C249 3147   0.453   8.148   4.105  0.1260 -0.1162 -0.7271
   10MOL   C250 3148   0.450   8.032   3.755 -0.3718 -0.1404 -0.6174
   10MOL   H251 3149   0.574   8.160   3.879 -0.2313 -0.3502 -0.0255
   10MOL   H252 3150   0.209   8.107   3.870 -2.5265 -0.3203  1.2658
   10MOL   H253 3151   0.070   8.094   4.097  0.0714  0.1455 -0.7643
   10MOL   H254 3152   0.428   8.129   4.312 -0.5664  1.8602  0.6246
   10MOL   H255 3153   0.560   8.165   4.112  0.4908 -2.6664  0.9067
   10MOL   H256 3154   0.461   7.942   3.816  2.0419 -0.0920 -0.9277
   10MOL   H257 3155   0.347   8.020   3.723  0.0537 -0.5997 -1.8161
   10MOL   C258 3156   0.548   8.026   3.636  0.4827 -0.8486 -0.2004
   10MOL   C259 3157   0.700   8.028   3.668  0.4233  0.3220 -0.4074
   10MOL   C260 3158   0.791   8.092   3.580 -0.6280  0.0328  0.1763
   10MOL   C261 3159   0.929   8.083   3.609  0.1862 -0.0070 -0.3022
   10MOL   C262 3160   0.972   8.028   3.731  0.7706  0.2112 -0.7904
   10MOL   F263 3161   1.100   8.029   3.779 -0.4792  0.2504 -0.0981
   10MOL   C264 3162   0.881   7.963   3.818  0.4041  0.2058  0.2342
   10MOL   C265 3163   0.744   7.959   3.785 -0.1931  0.0174  0.8199
   10MOL   C266 3164   0.517   7.917   3.541  0.0933  0.0997 -0.2200
   10MOL   H267 3165   0.527   8.113   3.574 -0.8611 -0.9481  0.0995
   10MOL   H268 3166   0.757   8.131   3.485  2.1389  0.7394 -0.5785
   10MOL   H269 3167   1.012   8.129   3.557 -0.8639  2.3819  0.0896
   10MOL   H270 3168   0.913   7.922   3.913 -0.0763 -0.1220  0.2576
   10MOL   H271 3169   0.673   7.909   3.850 -1.4546  0.1954 -0.3947
   10MOL   H272 3170   0.605   7.912   3.477 -0.5085 -1.0784 -0.9871
   10MOL   H273 3171   0.515   7.824   3.598  0.7264 -0.8208 -1.6712
   10MOL   C274 3172   0.384   7.946   3.465 -0.2972  0.8941  0.0886
   10MOL   C275 3173   0.386   8.069   3.378 -1.0115 -0.2371  0.5819
   10MOL   C276 3174   0.478   8.086   3.275 -0.0589  0.7843  0.2609
   10MOL   C277 3175   0.483   8.205   3.203 -0.2103 -0.0368  0.6597
   10MOL   C278 3176   0.396   0.075   3.225 -0.0670 -0.8913  0.3363
   10MOL   F279 3177   0.397   0.183   3.144  0.6289  0.2073 -0.9058
   10MOL   C280 3178   0.303   0.065   3.330 -0.4931 -0.7970 -0.0048
   10MOL   C281 3179   0.296   8.175   3.401 -0.0001 -0.4054 -0.8958
   10MOL   C282 3180   0.343   7.821   3.388 -0.0146  0.1094  0.1808
   10MOL   H283 3181   0.308   7.959   3.541 -0.1907  1.1818  0.1477
   10MOL   H284 3182   0.543   8.003   3.251  1.1092  1.8601 -0.3586
   10MOL   H285 3183   0.552   8.215   3.120  1.4992  2.4443  2.3180
   10MOL   H286 3184   0.230   0.140   3.356 -0.2341 -0.3588 -0.5557
   10MOL   H287 3185   0.235   8.166   3.490 -0.7128  1.5028 -1.1699
   10MOL   H288 3186   0.242   7.835   3.349  0.2685 -1.2477 -1.0647
   10MOL   H289 3187   0.403   7.787   3.304 -1.6525 -0.7129 -0.6857
   10MOL   C290 3188   0.307   7.691   3.466  0.4905 -0.5203 -0.6410
   10MOL   C291 3189   0.263   7.709   3.615  0.3067  0.3368 -0.0014
   10MOL   C292 3190   0.332   7.639   3.717  0.7719  0.5539  0.2617
   10MOL   C293 3191   0.291   7.637   3.847 -0.3672 -0.3840  0.0845
   10MOL   C294 3192   0.181   7.724   3.886 -0.8656  0.2931  0.2481
   10MOL   F295 3193   0.146   7.729   4.012 -0.1282  0.2753 -0.1347
   10MOL   C296 3194   0.110   7.797   3.788 -0.6386  0.2311 -0.6918
   10MOL   C297 3195   0.154   7.791   3.658  0.3310 -0.4549 -0.0305
   10MOL   C298 3196   0.198   7.598   3.394  0.3929 -0.0532 -0.0723
   10MOL   H299 3197   0.400   7.635   3.461  0.7204 -0.0593 -1.5893
   10MOL   H300 3198   0.399   7.560   3.686  1.3753  0.6940  1.1886
   10MOL   H301 3199   0.334   7.567   3.917 -0.2557  0.3387  0.7537
   10MOL   H302 3200   0.021   7.850   3.817 -1.3244 -0.5579 -1.3497
   10MOL   H303 3201   0.091   7.828   3.578  2.1338 -2.9823 -2.7293
   10MOL   H304 3202   0.190   7.512   3.460 -0.7261  0.3767  0.3613
   10MOL   H305 3203   0.094   7.628   3.398  0.2983 -0.2457 -0.9150
   10MOL   C306 3204   0.229   7.557   3.244  0.0435  0.4296 -0.0805
   10MOL   C307 3205   0.329   7.433   3.240 -0.6223 -0.0574 -0.2039
   10MOL   C308 3206   0.466   7.457   3.243 -0.2475 -0.2004 -0.6384
   10MOL   C309 3207   0.558   7.353   3.249 -0.0140 -0.1495 -0.0136
   10MOL   C310 3208   0.522   7.222   3.238 -0.3051  0.7912 -0.2416
   10MOL   F311 3209   0.619   7.124   3.256  0.4006  0.4598  0.1090
   10MOL   C312 3210   0.381   7.194   3.244 -0.4861  0.3166  0.0537
   10MOL   C313 3211   0.290   7.298   3.241  0.4001 -0.0448  0.2760
   10MOL   C314 3212   0.105   7.537   3.156  0.1110  0.4642  0.7171
   10MOL   H315 3213   0.279   7.645   3.202  0.4643  0.6417  0.8450
   10MOL   H316 3214   0.502   7.558   3.248 -2.4650  0.6755 -1.5399
   10MOL   H317 3215   0.665   7.370   3.247  0.5216 -3.2589 -0.3862
   10MOL   H318 3216   0.340   7.094   3.248 -1.6256  0.7229 -1.2295
   10MOL   H319 3217   0.186   7.271   3.228  0.8196 -0.7270 -1.7844
   10MOL   H320 3218   0.134   7.489   3.063  0.6230 -1.1113  1.6718
   10MOL   H321 3219   0.031   7.475   3.207 -1.8823  0.2384 -2.3727
   10MOL   H322 3220   0.066   7.636   3.131  0.3925  0.8603  1.8001
   11MOL     C1 3221   1.104   5.425   0.020 -0.8167  0.3940 -0.1411
   11MOL     C2 3222   1.032   5.372   8.131 -0.1613  1.0170 -0.4898
   11MOL     C3 3223   1.110   5.302   8.038 -0.4433  0.8292  0.1873
   11MOL     C4 3224   1.053   5.236   7.925  0.7892  0.1688  0.1917
   11MOL     C5 3225   0.913   5.250   7.902  0.2047  0.1213 -0.3184
   11MOL     F6 3226   0.844   5.194   7.798  0.4406 -0.0734  0.5269
   11MOL     C7 3227   0.836   5.316   8.000 -0.0663  0.0748 -0.2375
   11MOL     C8 3228   0.894   5.387   8.106  0.5046 -0.7350  0.8053
   11MOL     C9 3229   1.160   5.564   8.225  0.8374  0.4798 -0.0046
   11MOL    H10 3230   1.189   5.364   0.049  0.0246  1.5857 -0.0846
   11MOL    H11 3231   1.217   5.302   8.046 -0.5770  2.0721  2.2887
   11MOL    H12 3232   1.118   5.185   7.855  0.5789 -1.8516  1.4229
   11MOL    H13 3233   0.731   5.319   7.974  0.0887  0.2476 -0.8500
   11MOL    H14 3234   0.834   5.445   8.174  0.7712  1.2043 -0.5580
   11MOL    H15 3235   1.203   5.561   8.125  1.4863  2.7917  0.1814
   11MOL    H16 3236   1.068   5.621   8.213  1.7511  2.0665  0.3344
   11MOL    H17 3237   1.039   5.421   0.108  1.2589  0.3461  1.4223
   11MOL    C18 3238   1.270   5.623   0.079  0.6260  0.3793  0.4360
   11MOL    C19 3239   1.402   5.538   0.059 -0.3214  0.3951  0.1812
   11MOL    C20 3240   1.437   5.442   0.150 -0.6204  0.1445  0.4426
   11MOL    C21 3241   1.560   5.375   0.143  0.3260 -0.3453 -0.0745
   11MOL    C22 3242   1.638   5.384   0.026 -0.1642 -0.4252  0.8772
   11MOL    F23 3243   1.747   5.310   0.002  0.2164 -0.2176 -0.3409
   11MOL    C24 3244   1.601   5.483   8.166  0.4035  0.6631  0.1856
   11MOL    C25 3245   1.483   5.561   8.185  0.2189 -0.1018 -0.5554
   11MOL    C26 3246   1.294   5.771   0.044  0.0700 -0.4847 -0.1746
   11MOL    H27 3247   1.241   5.612   0.183 -2.7489  0.0384 -0.4859
   11MOL    H28 3248   1.382   5.446   0.243  0.7929 -0.3596  1.3228
   11MOL    H29 3249   1.605   5.321   0.226  0.6135  0.6044  0.4082
   11MOL    H30 3250   1.665   5.497   8.081 -1.8818  0.4958 -1.6223
   11MOL    H31 3251   1.460   5.641   8.116 -0.2594 -0.6469 -1.0303
   11MOL    H32 3252   1.398   5.797   0.065 -0.1055 -1.4299  1.9736
   11MOL    H33 3253   1.284   5.787   8.171 -0.3062 -0.9151 -0.2026
   11MOL    C34 3254   1.193   5.857   0.123  0.1824  0.5544  1.0976
   11MOL    C35 3255   1.250   5.894   0.262 -0.1028 -0.0460 -0.5760
   11MOL    C36 3256   1.377   5.956   0.280 -0.5381 -0.3196 -0.7848
   11MOL    C37 3257   1.437   5.970   0.404 -0.0908 -0.0237 -0.4601
   11MOL    C38 3258   1.359   5.937   0.516  0.6972  0.2456 -0.1569
   11MOL    F39 3259   1.400   5.946   0.647 -0.5755  0.0913 -0.0330
   11MOL    C40 3260   1.230   5.887   0.501 -0.2722  0.6991  0.8090
   11MOL    C41 3261   1.170   5.864   0.378 -0.0736 -0.0041  0.7317
   11MOL    C42 3262   1.155   5.989   0.046  0.2053 -0.0136 -0.1159
   11MOL    H43 3263   1.095   5.809   0.119  1.5856 -2.3601  1.0256
   11MOL    H44 3264   1.431   5.998   0.196  1.9209 -0.8253  0.5077
   11MOL    H45 3265   1.535   6.015   0.408  0.5671 -1.3030 -1.7711
   11MOL    H46 3266   1.176   5.872   0.593  1.3386  1.2951  1.8646
   11MOL    H47 3267   1.070   5.825   0.366 -0.6083  1.4543  0.3482
   11MOL    H48 3268   1.086   6.049   0.105 -0.8395  0.4180 -1.7306
   11MOL    H49 3269   1.245   6.051   0.050 -0.0646  0.3209  0.9068
   11MOL    C50 3270   1.095   5.989   8.136  0.4638 -0.6083 -0.1405
   11MOL    C51 3271   0.967   5.896   8.144 -0.7190 -0.5253 -0.2102
   11MOL    C52 3272   0.941   5.811   8.036 -0.0894 -0.5004  0.4506
   11MOL    C53 3273   0.824   5.738   8.027 -0.3960 -0.5559  0.2234
   11MOL    C54 3274   0.727   5.749   8.134  0.7524 -0.2045 -0.3327
   11MOL    F55 3275   0.612   5.674   8.125 -0.3631  0.1838 -0.8364
   11MOL    C56 3276   0.743   5.841   0.004 -0.0023  0.1079  0.9264
   11MOL    C57 3277   0.865   5.914   0.009  0.3141  0.3740  0.1206
   11MOL    C58 3278   1.057   6.130   8.077  0.1113 -0.1292 -0.7591
   11MOL    H59 3279   1.157   5.945   8.059 -0.8344 -2.0120 -0.4039
   11MOL    H60 3280   1.010   5.793   7.955 -2.1322 -0.8860 -1.2135
   11MOL    H61 3281   0.801   5.672   7.945 -0.1399  0.7144 -0.8950
   11MOL    H62 3282   0.658   5.865   0.065 -0.8880 -1.1421  0.2067
   11MOL    H63 3283   0.884   5.987   0.087  1.0538  1.5008 -1.0898
   11MOL    H64 3284   1.013   6.133   7.977 -0.2309  1.2975 -0.5892
   11MOL    H65 3285   0.967   6.156   8.133 -0.7449 -2.1815 -1.1498
   11MOL    C66 3286   1.159   6.250   8.096  0.7698  0.2146  0.4489
   11MOL    C67 3287   1.249   6.244   7.969  0.1932 -0.1495  0.1104
   11MOL    C68 3288   1.351   6.142   7.961 -0.4360 -0.3635 -0.2754
   11MOL    C69 3289   1.429   6.137   7.845 -0.3570 -0.2726 -1.0000
   11MOL    C70 3290   1.416   6.232   7.744  0.5932 -0.5994 -1.0993
   11MOL    F71 3291   1.490   6.216   7.636  0.0442  0.4159  0.2211
   11MOL    C72 3292   1.313   6.328   7.747 -0.1052  0.0511  0.1283
   11MOL    C73 3293   1.230   6.332   7.859  0.0797 -0.1937  0.1970
   11MOL    C74 3294   1.092   6.387   8.118 -0.3092  0.0213 -0.5814
   11MOL    H75 3295   1.227   6.237   8.180 -0.4980 -2.6422  1.0981
   11MOL    H76 3296   1.366   6.071   8.040 -1.1652 -0.2802 -0.0522
   11MOL    H77 3297   1.504   6.060   7.835 -0.0508 -0.2817  1.1528
   11MOL    H78 3298   1.322   6.406   7.673  1.1189  0.1566  0.3659
   11MOL    H79 3299   1.158   6.412   7.870 -0.0320  0.0271 -1.9550
   11MOL    H80 3300   1.171   6.462   8.120 -1.2159  0.9482  0.6276
   11MOL    H81 3301   1.030   6.407   8.031  1.0766 -1.4576 -1.9522
   11MOL    C82 3302   1.016   6.396   0.020  0.1085  0.3804 -0.1727
   11MOL    C83 3303   1.092   6.366   0.148  0.0672  0.0629  0.0805
   11MOL    C84 3304   1.207   6.437   0.185  0.0532 -0.4255 -0.3619
   11MOL    C85 3305   1.283   6.406   0.302 -0.5436 -0.1541 -1.2746
   11MOL    C86 3306   1.242   6.306   0.389  0.1583 -0.8353 -0.0633
   11MOL    F87 3307   1.323   6.270   0.492  0.1337  0.3565 -0.3500
   11MOL    C88 3308   1.127   6.240   0.353  0.8421  0.2825 -0.1618
   11MOL    C89 3309   1.048   6.266   0.236 -0.0558  0.1365  0.1915
   11MOL    C90 3310   0.936   6.533   0.032  0.0466  0.1535 -0.6908
   11MOL    H91 3311   0.936   6.323   0.018  0.2782  0.2230 -1.7848
   11MOL    H92 3312   1.236   6.525   0.129 -1.9941  0.7156  0.3169
   11MOL    H93 3313   1.366   6.468   0.330 -1.5305  0.3837  0.5282
   11MOL    H94 3314   1.089   6.159   0.414 -2.6492  1.5622 -0.4939
   11MOL    H95 3315   0.964   6.199   0.219 -1.3043  1.5736  0.5606
   11MOL    H96 3316   0.880   6.524   0.125 -0.9922 -2.9044 -1.5576
   11MOL    H97 3317   0.993   6.626   0.038  0.6969 -0.2967  0.1476
   11MOL    C98 3318   0.813   6.556   8.164  0.5453  0.2704  0.2401
   11MOL    C99 3319   0.725   6.433   8.156 -0.1081 -0.5068 -0.8203
   11MOL   C100 3320   0.725   6.358   8.031 -0.6301  0.3696 -0.6751
   11MOL   C101 3321   0.655   6.239   8.014 -0.4097 -0.3733  0.1155
   11MOL   C102 3322   0.571   6.197   8.120 -0.0833 -0.3839 -0.3461
   11MOL   F103 3323   0.503   6.080   8.107 -0.3287 -0.0910  0.2947
   11MOL   C104 3324   0.558   6.276   0.001  0.2251  0.5856  0.4864
   11MOL   C105 3325   0.636   6.395   0.025 -0.2806  0.2218 -0.1911
   11MOL   C106 3326   0.739   6.684   8.203 -0.5720  0.1114 -0.4065
   11MOL   H107 3327   0.847   6.567   8.061 -1.1523 -0.9970 -0.4877
   11MOL   H108 3328   0.782   6.398   7.948 -1.2814  1.7196 -0.4822
   11MOL   H109 3329   0.662   6.189   7.919 -2.1140 -1.5700  0.5867
   11MOL   H110 3330   0.496   6.227   0.075  1.2549 -1.6971 -0.1250
   11MOL   H111 3331   0.624   6.448   0.118  1.2185  0.8545 -0.3526
   11MOL   H112 3332   0.646   6.701   8.149 -0.9400  0.5204  0.3414
   11MOL   H113 3333   0.696   6.672   0.068  2.8334  1.1244  1.2914
   11MOL   C114 3334   0.795   6.825   8.185  0.6777  0.0019 -0.5969
   11MOL   C115 3335   0.837   6.844   8.039 -0.8876 -0.5850  0.5047
   11MOL   C116 3336   0.968   6.813   8.001  0.1683  0.1199 -0.1344
   11MOL   C117 3337   1.022   6.851   7.876  0.2883  0.2954 -0.5030
   11MOL   C118 3338   0.933   6.901   7.780 -0.2648 -0.0921  0.6830
   11MOL   F119 3339   0.976   6.930   7.661  0.5934  0.0016  0.3466
   11MOL   C120 3340   0.793   6.924   7.806  0.3418  0.8264 -0.3742
   11MOL   C121 3341   0.747   6.902   7.940 -0.7412  0.3808 -0.8561
   11MOL   C122 3342   0.700   6.926   0.010 -0.6271  0.7365 -0.8121
   11MOL   H123 3343   0.892   6.821   8.234  0.7196  1.4910 -0.5199
   11MOL   H124 3344   1.034   6.766   8.072  0.3640  1.0717  0.3294
   11MOL   H125 3345   1.124   6.845   7.842  0.1125  1.6505 -1.3087
   11MOL   H126 3346   0.719   6.956   7.734 -1.3105  2.3921  1.9409
   11MOL   H127 3347   0.644   6.924   7.966 -0.4090  0.5929  0.3246
   11MOL   H128 3348   0.610   6.955   8.188 -0.6471  0.6505 -0.8244
   11MOL   H129 3349   0.681   6.888   0.110  1.1493 -2.4938 -1.6387
   11MOL   C130 3350   0.775   7.044   0.068 -0.1000  0.1088  0.1270
   11MOL   C131 3351   0.873   7.120   8.213  1.0290 -0.1206 -0.4456
   11MOL   C132 3352   0.821   7.190   8.102 -0.1895  0.5785  0.3426
   11MOL   C133 3353   0.911   7.259   8.018 -0.7931 -0.5940  0.0853
   11MOL   C134 3354   1.048   7.257   8.043  0.2522  0.4542  0.8425
   11MOL   F135 3355   1.132   7.320   7.958 -0.0932 -0.5186 -0.3917
   11MOL   C136 3356   1.094   7.188   8.157  0.1119  0.0782  0.1537
   11MOL   C137 3357   1.006   7.122   0.010 -0.5383  0.5225 -0.1340
   11MOL   C138 3358   0.680   7.136   0.143  0.9746  0.4770  0.4636
   11MOL   H139 3359   0.844   6.998   0.139 -2.3767 -2.2247  0.9167
   11MOL   H140 3360   0.717   7.179   8.076  0.8793 -1.4807 -3.3999
   11MOL   H141 3361   0.877   7.310   7.929 -1.2084 -0.1264  0.5113
   11MOL   H142 3362   1.198   7.204   8.179  0.9277 -0.0570 -3.2156
   11MOL   H143 3363   1.047   7.073   0.097 -0.1641 -0.4360 -0.8411
   11MOL   H144 3364   0.653   7.212   0.070 -1.3246 -0.2564  0.4844
   11MOL   H145 3365   0.585   7.096   0.178  0.7219  1.3270  0.7684
   11MOL   C146 3366   0.741   7.210   0.268  0.2300  0.3483 -0.4745
   11MOL   C147 3367   0.656   7.329   0.312 -0.3213  0.7315  0.4702
   11MOL   C148 3368   0.515   7.320   0.336 -0.0178  0.0922  0.8120
   11MOL   C149 3369   0.438   7.433   0.383  0.1968  0.2185  0.4164
   11MOL   C150 3370   0.504   7.551   0.409 -0.0560 -0.1894  0.2192
   11MOL   F151 3371   0.442   7.652   0.477 -0.1328  0.0063 -0.6498
   11MOL   C152 3372   0.642   7.568   0.375  0.0212  0.0124 -0.3109
   11MOL   C153 3373   0.715   7.457   0.329  0.0703  0.1670  0.9173
   11MOL   C154 3374   0.755   7.106   0.385 -0.0857  0.5900 -0.0081
   11MOL   H155 3375   0.841   7.243   0.239  1.6507 -1.5364  2.0107
   11MOL   H156 3376   0.461   7.231   0.310 -2.1341  1.6805 -0.4434
   11MOL   H157 3377   0.332   7.433   0.402  0.6953 -0.7050  3.3373
   11MOL   H158 3378   0.681   7.668   0.383  1.6190 -0.7507  2.0119
   11MOL   H159 3379   0.818   7.475   0.299  0.7325 -2.4612  1.4855
   11MOL   H160 3380   0.668   7.108   0.450  1.2960  0.7663  1.8818
   11MOL   H161 3381   0.757   7.005   0.345 -2.2085  0.5548 -0.0686
   11MOL   C162 3382   0.885   7.124   0.483  1.1990  0.3890  0.3065
   11MOL   C163 3383   0.871   7.255   0.558  0.7733 -0.0608  0.1941
   11MOL   C164 3384   0.977   7.349   0.556  0.3268 -0.0109 -0.2341
   11MOL   C165 3385   0.969   7.472   0.619  0.3280 -0.3055  0.0107
   11MOL   C166 3386   0.858   7.513   0.696  0.3407  0.2389 -0.0875
   11MOL   F167 3387   0.860   7.631   0.767  0.1948 -0.0138 -0.4692
   11MOL   C168 3388   0.753   7.420   0.697  0.2051 -0.4226 -0.1716
   11MOL   C169 3389   0.756   7.294   0.632  0.1952  0.3408 -0.5504
   11MOL   C170 3390   0.896   7.003   0.578  1.0915  0.4591 -0.3053
   11MOL   H171 3391   0.973   7.124   0.419  1.7963 -2.5453  1.0615
   11MOL   H172 3392   1.069   7.334   0.502  1.1674  0.9466  0.9275
   11MOL   H173 3393   1.058   7.530   0.601  0.3542  0.8013  3.4670
   11MOL   H174 3394   0.668   7.437   0.761 -1.8122 -1.9272 -2.3784
   11MOL   H175 3395   0.673   7.226   0.648  0.1996  0.6475  0.7990
   11MOL   H176 3396   0.797   6.969   0.611  0.1187  3.1653 -0.2589
   11MOL   H177 3397   0.934   6.923   0.514  0.4857 -1.2241  1.3971
   11MOL   C178 3398   0.983   7.018   0.704  0.3853  0.3076  0.1388
   11MOL   C179 3399   0.979   6.891   0.784  0.1897 -0.2273  0.2604
   11MOL   C180 3400   1.011   6.766   0.728  0.5546 -0.2898  0.4547
   11MOL   C181 3401   1.002   6.651   0.805  0.8069  1.0350 -0.1083
   11MOL   C182 3402   0.941   6.652   0.932 -0.9193 -0.2077 -0.3016
   11MOL   F183 3403   0.916   6.536   1.004  0.4175 -0.6540  0.4604
   11MOL   C184 3404   0.901   6.779   0.984  0.0408  0.2396  0.7290
   11MOL   C185 3405   0.924   6.895   0.916 -0.7068 -0.0701  0.1013
   11MOL   C186 3406   1.131   7.055   0.669 -0.3274 -0.7262 -0.1050
   11MOL   H187 3407   0.945   7.102   0.762 -0.9302 -0.4998  0.4921
   11MOL   H188 3408   1.058   6.758   0.631  0.8581  0.2593  0.5497
   11MOL   H189 3409   1.035   6.553   0.777  1.2642  0.7264  1.4500
   11MOL   H190 3410   0.847   6.784   1.078  0.2620 -0.4037  0.8995
   11MOL   H191 3411   0.901   6.989   0.964 -1.3282 -0.4213  0.4997
   11MOL   H192 3412   1.171   6.966   0.620 -1.4328 -0.9297 -0.6360
   11MOL   H193 3413   1.121   7.122   0.583 -1.0207 -0.8064 -0.0857
   11MOL   C194 3414   1.216   7.108   0.792  1.3258  0.3423  0.1261
   11MOL   C195 3415   1.366   7.085   0.762 -0.1852 -1.1120  0.9343
   11MOL   C196 3416   1.424   7.156   0.652  0.0527  0.0722 -0.8692
   11MOL   C197 3417   1.562   7.135   0.621  0.3386 -0.1509  0.1435
   11MOL   C198 3418   1.640   7.045   0.706 -0.5731 -0.6035  0.1485
   11MOL   F199 3419   1.775   7.024   0.686  0.3058  0.5261  0.0002
   11MOL   C200 3420   1.577   6.971   0.813  0.5551 -0.4132  0.7078
   11MOL   C201 3421   1.438   6.997   0.839  0.1803 -0.0926 -0.1275
   11MOL   C202 3422   1.181   7.251   0.837  0.1593  0.2137  0.4003
   11MOL   H203 3423   1.181   7.045   0.874 -0.4800 -0.1940 -1.0267
   11MOL   H204 3424   1.358   7.219   0.595 -0.3740  2.4417  2.1026
   11MOL   H205 3425   1.596   7.182   0.530  0.6263 -2.4172 -0.9695
   11MOL   H206 3426   1.644   6.899   0.858  1.9546  0.9373  0.8333
   11MOL   H207 3427   1.391   6.925   0.904  0.1893 -0.2610 -0.3041
   11MOL   H208 3428   1.215   7.321   0.761 -0.3682 -0.2510 -0.2749
   11MOL   H209 3429   1.075   7.266   0.852  0.0381 -0.5480  0.3345
   11MOL   C210 3430   1.256   7.295   0.967  0.4881  0.4369  0.4231
   11MOL   C211 3431   1.247   7.445   0.986 -0.6480 -0.0345  0.5690
   11MOL   C212 3432   1.360   7.524   0.977 -0.4668 -0.8481  0.3586
   11MOL   C213 3433   1.351   7.659   1.009 -0.5155 -0.2539 -0.3739
   11MOL   C214 3434   1.236   7.721   1.054 -0.1838 -0.0860 -0.2304
   11MOL   F215 3435   1.246   7.851   1.097  0.1398 -0.0106  0.3787
   11MOL   C216 3436   1.116   7.647   1.060  0.2284  0.2260 -0.2112
   11MOL   C217 3437   1.125   7.508   1.032  0.1476 -0.4082  0.0277
   11MOL   C218 3438   1.208   7.225   1.097 -1.0738  0.2055  0.1431
   11MOL   H219 3439   1.357   7.255   0.957  0.3945 -0.4451  2.6107
   11MOL   H220 3440   1.457   7.490   0.944  0.5519  2.2295  0.1118
   11MOL   H221 3441   1.445   7.710   1.014 -0.8328  0.0956  3.9310
   11MOL   H222 3442   1.024   7.682   1.105  0.0274  0.6469 -0.9525
   11MOL   H223 3443   1.034   7.453   1.049  1.0467 -1.3536  1.9900
   11MOL   H224 3444   1.106   7.259   1.118 -1.3312 -0.3877 -0.1242
   11MOL   H225 3445   1.202   7.116   1.094 -1.6302  0.1808  1.4463
   11MOL   C226 3446   1.289   7.265   1.236  0.3476 -0.0756 -0.1226
   11MOL   C227 3447   1.195   7.319   1.342  0.5310 -0.3072  0.2293
   11MOL   C228 3448   1.084   7.243   1.395 -0.6829 -0.5694  0.5341
   11MOL   C229 3449   0.998   7.307   1.478 -0.1450 -0.5107  0.5286
   11MOL   C230 3450   1.025   7.431   1.533  0.6846 -0.5910  0.3470
   11MOL   F231 3451   0.946   7.478   1.635 -0.4432  0.1808  0.0834
   11MOL   C232 3452   1.135   7.507   1.491 -0.1368 -0.6693 -0.3383
   11MOL   C233 3453   1.213   7.451   1.388 -0.4508  0.3175  0.1036
   11MOL   C234 3454   1.356   7.136   1.293 -0.6075 -0.0466 -0.3877
   11MOL   H235 3455   1.373   7.330   1.213  1.7148 -2.5363 -2.4160
   11MOL   H236 3456   1.058   7.146   1.354 -0.7431  0.1086 -1.0531
   11MOL   H237 3457   0.910   7.255   1.515 -0.3575 -1.7595 -1.6581
   11MOL   H238 3458   1.158   7.607   1.527 -1.0258  0.0077 -1.6228
   11MOL   H239 3459   1.298   7.504   1.346 -1.4791  1.9710  0.0283
   11MOL   H240 3460   1.274   7.067   1.313 -0.3607 -0.4087 -0.6030
   11MOL   H241 3461   1.420   7.090   1.218  1.6185 -1.6132  2.3455
   11MOL   C242 3462   1.442   7.157   1.421 -0.3585  0.1053  0.4353
   11MOL   C243 3463   1.476   7.019   1.473  0.2913  1.2411  0.0744
   11MOL   C244 3464   1.428   6.981   1.600  0.0429  0.4134  0.5201
   11MOL   C245 3465   1.453   6.853   1.654  0.4338 -0.7280 -0.3728
   11MOL   C246 3466   1.532   6.765   1.577 -0.0512  0.4088  0.3560
   11MOL   F247 3467   1.533   6.639   1.621 -0.2664  0.2055 -0.9248
   11MOL   C248 3468   1.578   6.805   1.448 -0.5345  0.2241 -0.1873
   11MOL   C249 3469   1.555   6.932   1.398 -0.2445 -0.5858 -0.5074
   11MOL   C250 3470   1.565   7.253   1.398 -0.5340 -0.3710  1.3283
   11MOL   H251 3471   1.378   7.200   1.498 -2.4170 -1.2097 -0.4937
   11MOL   H252 3472   1.368   7.044   1.665  2.9964  4.7557 -0.8108
   11MOL   H253 3473   1.410   6.821   1.748 -1.3074 -1.3997 -1.3735
   11MOL   H254 3474   1.633   6.735   1.388  0.0452  1.1728 -0.7656
   11MOL   H255 3475   1.591   6.964   1.302 -0.6867 -2.0360 -1.1696
   11MOL   H256 3476   1.641   7.195   1.345 -0.6095  0.5484  0.1914
   11MOL   H257 3477   1.542   7.337   1.332 -0.9226 -0.2875  1.5687
   11MOL   C258 3478   1.634   7.298   1.530  0.1413  0.4673 -0.2815
   11MOL   C259 3479   1.766   7.364   1.491  0.2703 -0.3976 -0.0578
   11MOL   C260 3480   1.887   7.319   1.545 -0.4151 -0.6164  0.6246
   11MOL   C261 3481   2.012   7.351   1.492 -0.1995 -0.0370 -0.1934
   11MOL   C262 3482   2.029   7.453   1.398 -0.0951 -0.3959 -0.2585
   11MOL   F263 3483   2.157   7.493   1.359  0.1860  0.5220 -0.2475
   11MOL   C264 3484   1.909   7.516   1.358 -0.2891 -0.3203  0.2573
   11MOL   C265 3485   1.785   7.470   1.402  0.6298 -0.1183  0.4837
   11MOL   C266 3486   1.550   7.410   1.607  0.7840  0.0201 -0.7720
   11MOL   H267 3487   1.661   7.212   1.592 -2.7931 -1.7957 -1.9991
   11MOL   H268 3488   1.876   7.232   1.609 -2.0903 -0.7530  0.1684
   11MOL   H269 3489   2.096   7.299   1.535  0.0248  0.6183  0.1686
   11MOL   H270 3490   1.907   7.592   1.281 -0.4493 -0.4274  0.1561
   11MOL   H271 3491   1.697   7.508   1.352  1.9092  0.6410 -1.2442
   11MOL   H272 3492   1.592   7.509   1.626 -0.7796  0.6234 -0.3661
   11MOL   H273 3493   1.472   7.438   1.537 -0.1104 -0.3169  0.0818
   11MOL   C274 3494   1.474   7.365   1.733  0.0671 -0.6252 -0.2702
   11MOL   C275 3495   1.572   7.314   1.835  0.1051  0.7259  0.4770
   11MOL   C276 3496   1.661   7.404   1.885 -0.2881  0.8619 -0.3838
   11MOL   C277 3497   1.767   7.355   1.966  0.2779  1.0223  0.7902
   11MOL   C278 3498   1.781   7.219   1.995 -0.3323  0.4068 -0.8726
   11MOL   F279 3499   1.878   7.182   2.078  0.1689  0.4728  0.8684
   11MOL   C280 3500   1.689   7.124   1.945  0.2023 -0.1543 -0.0248
   11MOL   C281 3501   1.581   7.176   1.867  0.1360 -0.1559 -0.4248
   11MOL   C282 3502   1.379   7.478   1.790 -0.3979 -0.8450 -0.3443
   11MOL   H283 3503   1.415   7.277   1.708 -1.0879 -0.4824  1.7607
   11MOL   H284 3504   1.654   7.510   1.866 -1.7590  0.7836 -0.2682
   11MOL   H285 3505   1.841   7.425   2.001 -0.7081  2.1080  0.7367
   11MOL   H286 3506   1.703   7.017   1.952  0.9201  0.0126  1.4066
   11MOL   H287 3507   1.511   7.102   1.832 -2.8059  2.2201  0.1913
   11MOL   H288 3508   1.443   7.563   1.816  0.1727 -0.6378 -2.3669
   11MOL   H289 3509   1.322   7.510   1.703 -3.5325 -2.0333  1.1778
   11MOL   C290 3510   1.289   7.438   1.899  0.4093  0.5298 -0.9049
   11MOL   C291 3511   1.225   7.566   1.952 -0.4290  0.3141 -0.5322
   11MOL   C292 3512   1.105   7.609   1.902 -0.4823 -0.9698 -0.2161
   11MOL   C293 3513   1.043   7.726   1.934  0.2228 -0.3731 -0.1486
   11MOL   C294 3514   1.108   7.817   2.024  0.3755 -0.5638  0.7446
   11MOL   F295 3515   1.046   7.936   2.060 -0.0622  0.3978  0.8225
   11MOL   C296 3516   1.236   7.779   2.081  0.2210  0.1668  0.3250
   11MOL   C297 3517   1.293   7.658   2.040 -0.5107  0.5474 -0.2202
   11MOL   C298 3518   1.188   7.326   1.851  0.8202 -0.1942  0.8900
   11MOL   H299 3519   1.339   7.396   1.987 -5.4829 -1.3401  1.8273
   11MOL   H300 3520   1.057   7.550   1.826 -2.5170  1.6742 -1.0125
   11MOL   H301 3521   0.949   7.748   1.887  0.4237  0.7385 -0.0334
   11MOL   H302 3522   1.292   7.846   2.145 -0.5884  1.0251  0.1458
   11MOL   H303 3523   1.385   7.630   2.088 -0.4879  2.1702  0.7011
   11MOL   H304 3524   1.129   7.361   1.766 -1.9782  0.2585  2.9427
   11MOL   H305 3525   1.244   7.243   1.808  0.9111 -0.1220  0.8679
   11MOL   C306 3526   1.093   7.272   1.959  0.8337  0.2939  0.2328
   11MOL   C307 3527   0.969   7.199   1.901  0.0128 -0.0657 -0.6253
   11MOL   C308 3528   0.962   7.062   1.868 -0.0726  0.4278  0.0647
   11MOL   C309 3529   0.842   7.007   1.830 -0.2218  0.3236 -0.9103
   11MOL   C310 3530   0.725   7.084   1.821  0.0982  1.0359 -0.2026
   11MOL   F311 3531   0.608   7.027   1.790 -0.2701 -0.5595  0.1020
   11MOL   C312 3532   0.731   7.221   1.854  0.5198 -0.2114  0.2247
   11MOL   C313 3533   0.853   7.278   1.901  0.5309  0.1009  0.3645
   11MOL   C314 3534   1.174   7.190   2.065  0.5827  0.8928  0.0174
   11MOL   H315 3535   1.066   7.361   2.016 -1.5063  0.5387 -1.1934
   11MOL   H316 3536   1.037   6.986   1.885 -2.0230 -1.1026  2.0071
   11MOL   H317 3537   0.843   6.902   1.805 -0.6056 -0.4192  1.9734
   11MOL   H318 3538   0.652   7.294   1.848  2.0533  1.7008  2.1851
   11MOL   H319 3539   0.857   7.379   1.937  2.0343 -0.0069  0.5337
   11MOL   H320 3540   1.247   7.249   2.121  0.8273  1.1805 -0.5940
   11MOL   H321 3541   1.113   7.137   2.138  0.9112 -0.1831 -0.4876
   11MOL   H322 3542   1.248   7.125   2.019  1.7851  1.8426  0.5924
   12MOL     C1 3543   7.623   1.947   5.489  0.0340  0.0149 -0.1825
   12MOL     C2 3544   7.770   1.946   5.448  0.4370 -0.7503  0.1408
   12MOL     C3 3545   7.836   1.835   5.385  0.0316 -0.7682  0.2593
   12MOL     C4 3546   7.968   1.836   5.344 -0.6837 -0.2548 -0.6195
   12MOL     C5 3547   8.050   1.944   5.373 -0.2274 -0.1507 -0.5724
   12MOL     F6 3548   8.182   1.949   5.352 -0.5917 -0.1536  0.1171
   12MOL     C7 3549   7.997   2.057   5.441 -0.2586  0.3261  0.7775
   12MOL     C8 3550   7.856   2.057   5.473  0.9256  0.4992 -0.0555
   12MOL     C9 3551   7.612   1.891   5.632 -0.2249  0.2324 -0.3635
   12MOL    H10 3552   7.569   1.891   5.413  0.6331 -1.4865  0.4952
   12MOL    H11 3553   7.778   1.748   5.359 -1.6361  0.6672 -0.8765
   12MOL    H12 3554   8.017   1.747   5.307 -1.8821 -0.5139 -1.6584
   12MOL    H13 3555   8.059   2.145   5.448  0.0362  0.1741  0.1398
   12MOL    H14 3556   7.809   2.145   5.512 -0.8323 -1.2011  1.7679
   12MOL    H15 3557   7.679   1.805   5.629  0.5289  0.7555  1.1114
   12MOL    H16 3558   7.661   1.959   5.702 -0.3132 -0.8816  0.7998
   12MOL    H17 3559   7.580   2.047   5.503 -0.4271 -0.1185 -0.6492
   12MOL    C18 3560   7.485   1.831   5.682 -0.3821  0.3044  0.6185
   12MOL    C19 3561   7.431   1.736   5.576 -0.0946  0.4148 -0.8601
   12MOL    C20 3562   7.502   1.631   5.519 -0.0140 -0.1162  0.6267
   12MOL    C21 3563   7.448   1.542   5.430  0.2386 -0.4395  0.2767
   12MOL    C22 3564   7.310   1.553   5.393 -0.3381  1.3298  0.2554
   12MOL    F23 3565   7.258   1.464   5.317 -0.8106  0.3488 -0.0120
   12MOL    C24 3566   7.237   1.661   5.442 -0.9184  0.2665 -0.1041
   12MOL    C25 3567   7.299   1.752   5.530 -0.0433 -0.0134 -0.0168
   12MOL    C26 3568   7.519   1.753   5.814 -0.8496 -0.0453 -0.1961
   12MOL    H27 3569   7.418   1.915   5.701 -1.4305  0.0397 -1.7066
   12MOL    H28 3570   7.606   1.617   5.544  0.1591 -1.4461 -0.8043
   12MOL    H29 3571   7.507   1.459   5.395  0.3588 -0.2557  0.0375
   12MOL    H30 3572   7.133   1.674   5.415 -0.8772  3.8015  1.1921
   12MOL    H31 3573   7.247   1.837   5.571  0.7299 -0.2066  1.4180
   12MOL    H32 3574   7.427   1.703   5.847 -0.6547  0.2797  0.8775
   12MOL    H33 3575   7.582   1.666   5.797  0.6719  0.5608  2.0651
   12MOL    C34 3576   7.560   1.834   5.941 -0.5793  0.9896 -0.2073
   12MOL    C35 3577   7.438   1.902   6.008  0.1346  0.3337  0.1385
   12MOL    C36 3578   7.328   1.828   6.056 -0.8223 -0.0264  0.0518
   12MOL    C37 3579   7.213   1.892   6.114  0.0824 -0.4884 -0.3847
   12MOL    C38 3580   7.211   2.030   6.122  0.5077 -0.9987 -0.8461
   12MOL    F39 3581   7.107   2.102   6.183  0.5896  0.2282 -0.3311
   12MOL    C40 3582   7.321   2.106   6.082  0.5003 -1.0687 -0.0635
   12MOL    C41 3583   7.426   2.042   6.018 -0.4909 -0.3883  0.1082
   12MOL    C42 3584   7.633   1.753   6.050 -0.2119  0.2224  0.5016
   12MOL    H43 3585   7.634   1.907   5.908  0.3055  0.3461  0.3198
   12MOL    H44 3586   7.331   1.720   6.051  2.7094 -0.0331  0.7941
   12MOL    H45 3587   7.118   1.849   6.144 -0.6036 -0.5394 -2.5240
   12MOL    H46 3588   7.327   2.214   6.087  1.2907 -1.1127  0.0713
   12MOL    H47 3589   7.504   2.100   5.972 -1.1023  0.1458 -0.2693
   12MOL    H48 3590   7.660   1.821   6.131 -1.0962  2.1213 -0.7681
   12MOL    H49 3591   7.561   1.678   6.083  0.2432 -0.3094  0.2953
   12MOL    C50 3592   7.765   1.694   6.007  0.0850  0.1086 -0.2361
   12MOL    C51 3593   7.854   1.779   5.918  0.6805 -0.3551 -1.4572
   12MOL    C52 3594   7.898   1.726   5.800  0.2899 -0.5932 -0.3026
   12MOL    C53 3595   7.980   1.798   5.713  0.1560 -0.1282  0.1651
   12MOL    C54 3596   8.026   1.923   5.755 -0.0702 -0.5666  0.1705
   12MOL    F55 3597   8.112   1.993   5.674 -0.4032  0.1993  0.0365
   12MOL    C56 3598   7.982   1.985   5.877 -0.4738 -0.0285 -0.0341
   12MOL    C57 3599   7.901   1.909   5.961  0.4387  0.8448 -0.5302
   12MOL    C58 3600   7.848   1.640   6.132 -0.2490 -0.2487 -0.2143
   12MOL    H59 3601   7.735   1.605   5.952 -2.2576  0.8903 -0.2705
   12MOL    H60 3602   7.864   1.626   5.779  1.9401 -1.3580  0.6118
   12MOL    H61 3603   8.008   1.754   5.619 -0.2281 -0.9013  0.4129
   12MOL    H62 3604   8.018   2.082   5.908 -0.2977  0.3293 -1.3311
   12MOL    H63 3605   7.871   1.963   6.050 -2.6047  0.2002 -1.1131
   12MOL    H64 3606   7.947   1.603   6.106  0.2619  0.7641  0.2815
   12MOL    H65 3607   7.863   1.728   6.196 -2.0712 -1.4727  1.9780
   12MOL    C66 3608   7.783   1.536   6.225  0.1141  0.0341 -1.1889
   12MOL    C67 3609   7.772   1.398   6.154 -0.1559 -0.3346  0.5460
   12MOL    C68 3610   7.651   1.362   6.094 -0.2086  0.0818  0.0199
   12MOL    C69 3611   7.638   1.239   6.031 -0.4093 -0.2956  0.2409
   12MOL    C70 3612   7.753   1.157   6.030 -0.3135 -0.3455  0.4522
   12MOL    F71 3613   7.745   1.040   5.963 -0.0197  0.3816  0.4040
   12MOL    C72 3614   7.874   1.188   6.097  0.3995 -0.2518  0.4599
   12MOL    C73 3615   7.890   1.316   6.149  0.0105  0.9138 -0.2072
   12MOL    C74 3616   7.847   1.527   6.361 -0.1474 -0.2355  0.1080
   12MOL    H75 3617   7.685   1.578   6.248 -1.1473 -3.1693 -0.4594
   12MOL    H76 3618   7.563   1.422   6.105 -0.3147 -0.3736  1.8186
   12MOL    H77 3619   7.546   1.201   5.990  0.4625 -0.4045 -1.6208
   12MOL    H78 3620   7.954   1.118   6.079 -0.0775 -0.4325 -1.0351
   12MOL    H79 3621   7.988   1.345   6.184  1.0402 -0.8697 -1.5196
   12MOL    H80 3622   7.948   1.486   6.351  1.0513  1.8143  3.0803
   12MOL    H81 3623   7.866   1.630   6.390 -0.8703  0.2193 -1.0308
   12MOL    C82 3624   7.771   1.447   6.478 -0.0287 -0.4936 -0.1096
   12MOL    C83 3625   7.786   1.296   6.469  0.2706  0.2102  0.1510
   12MOL    C84 3626   7.673   1.218   6.427  0.2014  0.4802  0.4323
   12MOL    C85 3627   7.688   1.078   6.426 -0.1403 -0.2209 -0.0639
   12MOL    C86 3628   7.811   1.014   6.461 -0.4164 -1.0560  0.6062
   12MOL    F87 3629   7.831   0.885   6.458  0.1465 -0.0562 -0.2458
   12MOL    C88 3630   7.919   1.098   6.494 -0.1755 -0.1425  0.0992
   12MOL    C89 3631   7.910   1.236   6.495  0.2907  0.3785 -1.1187
   12MOL    C90 3632   7.795   1.509   6.622 -0.4873  0.6499  0.6931
   12MOL    H91 3633   7.664   1.467   6.473 -0.2917 -1.2642  2.0856
   12MOL    H92 3634   7.572   1.253   6.417  0.4503  2.3788  3.6941
   12MOL    H93 3635   7.600   1.017   6.410 -0.0665 -0.8750  1.8687
   12MOL    H94 3636   8.017   1.056   6.515 -0.3748 -0.9515 -0.5659
   12MOL    H95 3637   7.998   1.292   6.526  1.4039 -0.9716 -1.7801
   12MOL    H96 3638   7.897   1.516   6.659 -0.4576  0.4240  0.6523
   12MOL    H97 3639   7.767   1.611   6.598  0.6255  0.9097  0.4547
   12MOL    C98 3640   7.702   1.459   6.731 -0.8127 -0.2258 -0.8129
   12MOL    C99 3641   7.764   1.332   6.793  0.1309  0.3561 -0.0414
   12MOL   C100 3642   7.880   1.344   6.874 -0.5263  0.6400 -0.4303
   12MOL   C101 3643   7.942   1.234   6.943 -0.0928 -0.2276  0.1060
   12MOL   C102 3644   7.876   1.109   6.933 -0.2119  0.0532  0.4326
   12MOL   F103 3645   7.929   1.012   7.003 -0.2647 -0.7098  0.4021
   12MOL   C104 3646   7.765   1.093   6.850  0.8726  0.7059 -0.1857
   12MOL   C105 3647   7.701   1.201   6.782  0.7468  0.1789  0.1481
   12MOL   C106 3648   7.692   1.571   6.836  0.1193 -0.2173  0.8282
   12MOL   H107 3649   7.605   1.449   6.682 -0.6328  0.7927 -1.3882
   12MOL   H108 3650   7.917   1.445   6.881 -2.8357  1.6527 -2.2701
   12MOL   H109 3651   8.033   1.242   7.000  0.5506 -1.8435 -0.6748
   12MOL   H110 3652   7.719   0.995   6.846  1.4799  0.3572  1.2714
   12MOL   H111 3653   7.615   1.181   6.720  2.7826 -2.6045 -1.8638
   12MOL   H112 3654   7.790   1.605   6.869  1.3999 -2.0743 -1.0128
   12MOL   H113 3655   7.642   1.655   6.788 -0.3343 -0.9312  0.0435
   12MOL   C114 3656   7.600   1.545   6.956  0.3321 -0.7809  0.6110
   12MOL   C115 3657   7.611   1.652   7.066  0.4485 -0.1281  0.7089
   12MOL   C116 3658   7.569   1.782   7.033  0.5388  0.2246  0.2160
   12MOL   C117 3659   7.571   1.884   7.124  0.1842  0.3156  0.5936
   12MOL   C118 3660   7.609   1.861   7.256 -0.2030 -0.3509 -0.1482
   12MOL   F119 3661   7.600   1.964   7.339 -0.5802 -0.2096 -0.1159
   12MOL   C120 3662   7.649   1.734   7.293 -0.0740  0.4857  0.0786
   12MOL   C121 3663   7.654   1.630   7.200  0.6965  0.1326  0.4098
   12MOL   C122 3664   7.453   1.517   6.916 -0.0551  0.3014  0.0919
   12MOL   H123 3665   7.641   1.451   6.996  1.4317  0.5379  2.6843
   12MOL   H124 3666   7.548   1.803   6.929  0.2535  1.2243  0.4749
   12MOL   H125 3667   7.552   1.988   7.102 -0.4923  0.1482  0.3702
   12MOL   H126 3668   7.682   1.707   7.392 -1.9680 -1.3969  0.2150
   12MOL   H127 3669   7.689   1.538   7.244  0.6113 -0.2354 -0.2910
   12MOL   H128 3670   7.391   1.598   6.954 -0.5340 -0.1448  0.2777
   12MOL   H129 3671   7.443   1.502   6.809 -1.0060  1.4452  0.0123
   12MOL   C130 3672   7.402   1.392   6.992  0.1823 -1.1558  0.3441
   12MOL   C131 3673   7.402   1.407   7.142 -0.2506  0.0043 -0.7380
   12MOL   C132 3674   7.327   1.512   7.202 -0.0009 -0.5319 -0.0380
   12MOL   C133 3675   7.316   1.524   7.342 -0.4474  0.3127  0.1850
   12MOL   C134 3676   7.372   1.421   7.422  0.0484 -0.0495  0.1858
   12MOL   F135 3677   7.359   1.429   7.556 -0.2399 -0.0497 -0.4648
   12MOL   C136 3678   7.457   1.322   7.367  0.2453 -0.1725  0.0780
   12MOL   C137 3679   7.466   1.318   7.229  0.3339  0.1169  0.1943
   12MOL   C138 3680   7.255   1.365   6.955 -0.0790  0.1410 -0.2511
   12MOL   H139 3681   7.461   1.304   6.967  2.4860  1.1036 -2.4797
   12MOL   H140 3682   7.265   1.581   7.147  1.7937 -0.4850 -2.0988
   12MOL   H141 3683   7.255   1.600   7.388 -0.7990 -0.4501  0.9792
   12MOL   H142 3684   7.506   1.240   7.417 -3.0828 -1.9577  0.5412
   12MOL   H143 3685   7.538   1.257   7.176  1.1339  2.2454 -1.2518
   12MOL   H144 3686   7.196   1.332   7.041  0.3064  0.2014  0.0409
   12MOL   H145 3687   7.214   1.459   6.918 -2.3463 -0.3379  0.9445
   12MOL   C146 3688   7.238   1.253   6.850  0.3586 -0.0596  0.7129
   12MOL   C147 3689   7.284   1.115   6.891  0.7650  0.0044  0.6322
   12MOL   C148 3690   7.359   1.036   6.798 -0.4112 -0.6050 -0.7560
   12MOL   C149 3691   7.414   0.914   6.834 -0.0511  0.3088  0.0843
   12MOL   C150 3692   7.383   0.865   6.966  0.3906 -0.2044  0.2144
   12MOL   F151 3693   7.423   0.738   6.991 -0.0989 -0.5169 -0.5812
   12MOL   C152 3694   7.315   0.946   7.062  0.3810  0.1106  0.0398
   12MOL   C153 3695   7.258   1.066   7.021 -0.3721 -0.0868 -0.8991
   12MOL   C154 3696   7.098   1.240   6.786 -0.0678  0.6607 -0.7628
   12MOL   H155 3697   7.308   1.277   6.770 -0.3178  1.2098  0.4931
   12MOL   H156 3698   7.371   1.065   6.694  0.6726  1.9859  0.0584
   12MOL   H157 3699   7.480   0.857   6.771  0.0594  0.4189  0.1026
   12MOL   H158 3700   7.281   0.912   7.158  1.2443  0.1616  0.3709
   12MOL   H159 3701   7.201   1.129   7.088 -0.3979 -1.9998  0.9244
   12MOL   H160 3702   7.092   1.144   6.734 -1.8925 -0.2844  1.1180
   12MOL   H161 3703   7.026   1.226   6.866 -0.2784  0.6192 -0.9582
   12MOL   C162 3704   7.057   1.354   6.688  0.1248 -0.8237  0.9296
   12MOL   C163 3705   7.165   1.397   6.595 -0.3524 -0.1043 -0.0219
   12MOL   C164 3706   7.218   1.527   6.619  0.8467  0.5684  0.3742
   12MOL   C165 3707   7.323   1.570   6.536 -0.0771 -0.4191  0.0741
   12MOL   C166 3708   7.369   1.492   6.427  0.0617 -0.1915 -0.5864
   12MOL   F167 3709   7.452   1.548   6.343 -0.0799 -0.4951 -0.4202
   12MOL   C168 3710   7.315   1.358   6.408  0.0152  0.0296 -0.4158
   12MOL   C169 3711   7.222   1.310   6.502 -0.0117  0.4484 -0.3482
   12MOL   C170 3712   6.935   1.317   6.597 -0.2630 -1.2083  0.4048
   12MOL   H171 3713   7.037   1.441   6.749  0.1883 -0.1033 -0.0574
   12MOL   H172 3714   7.176   1.599   6.689  0.3842 -1.2576  2.0225
   12MOL   H173 3715   7.357   1.670   6.557  1.0044 -0.5380 -1.1040
   12MOL   H174 3716   7.354   1.291   6.333 -0.1280  0.0552 -0.5140
   12MOL   H175 3717   7.196   1.205   6.499 -0.4696  0.5101  1.0385
   12MOL   H176 3718   6.958   1.244   6.519 -1.3601  0.1996 -1.2772
   12MOL   H177 3719   6.864   1.259   6.656  0.5057 -3.4848 -0.8695
   12MOL   C178 3720   6.849   1.440   6.536  0.8986 -0.2971  0.2481
   12MOL   C179 3721   6.879   1.447   6.387 -0.4153 -0.1379 -0.5302
   12MOL   C180 3722   6.981   1.533   6.340 -0.0415 -0.7339 -0.5225
   12MOL   C181 3723   7.009   1.535   6.204  0.4414  0.7220  0.0767
   12MOL   C182 3724   6.936   1.456   6.113  0.6412  0.0042 -0.1842
   12MOL   F183 3725   6.961   1.455   5.980 -0.5734 -0.4694  0.3880
   12MOL   C184 3726   6.822   1.373   6.162 -0.0270 -0.7022 -0.2040
   12MOL   C185 3727   6.801   1.369   6.298  0.4380 -0.1820  0.7608
   12MOL   C186 3728   6.701   1.453   6.580  0.7219 -0.5780 -0.6685
   12MOL   H187 3729   6.898   1.530   6.573  1.1944 -0.9443  1.4536
   12MOL   H188 3730   7.035   1.607   6.396  0.8525 -1.7129 -0.0637
   12MOL   H189 3731   7.085   1.596   6.158  1.8779 -0.9433  0.2212
   12MOL   H190 3732   6.759   1.315   6.096 -0.0483 -1.0474  0.1232
   12MOL   H191 3733   6.722   1.300   6.321 -1.1943  1.3841 -0.0624
   12MOL   H192 3734   6.659   1.550   6.553  0.4066 -0.6340 -0.3781
   12MOL   H193 3735   6.654   1.381   6.513  0.0995 -1.4966  0.7523
   12MOL   C194 3736   6.655   1.413   6.722  0.1394 -0.3023  0.8138
   12MOL   C195 3737   6.739   1.478   6.826 -0.9352 -0.3773  0.4552
   12MOL   C196 3738   6.797   1.399   6.926  0.2400 -0.3090 -0.1876
   12MOL   C197 3739   6.889   1.446   7.012  0.0874  0.1466  0.0490
   12MOL   C198 3740   6.921   1.584   7.007 -0.0673  0.1163  0.2858
   12MOL   F199 3741   7.018   1.627   7.091  0.1889  0.1496  0.3863
   12MOL   C200 3742   6.858   1.673   6.918 -0.5995 -0.4225  0.0400
   12MOL   C201 3743   6.770   1.618   6.825 -0.2020 -0.0028  0.0055
   12MOL   C202 3744   6.506   1.436   6.754  0.0464  0.7567 -0.3703
   12MOL   H203 3745   6.685   1.310   6.741  0.9372  0.1488  2.0582
   12MOL   H204 3746   6.762   1.297   6.934 -0.5994  0.0134  0.3366
   12MOL   H205 3747   6.939   1.372   7.073 -0.2003 -1.4011 -1.5392
   12MOL   H206 3748   6.875   1.780   6.920 -0.3701 -0.4579  0.0122
   12MOL   H207 3749   6.735   1.682   6.746 -0.3013 -0.2951 -0.1892
   12MOL   H208 3750   6.505   1.413   6.861  2.4191 -1.0494 -0.6824
   12MOL   H209 3751   6.481   1.542   6.752 -1.2676  0.4732  0.3414
   12MOL   C210 3752   6.395   1.354   6.682  0.1440 -0.4064 -0.2289
   12MOL   C211 3753   6.275   1.334   6.777 -1.0255 -0.1461 -0.8036
   12MOL   C212 3754   6.219   1.436   6.846 -0.0125 -1.0583  1.5761
   12MOL   C213 3755   6.121   1.412   6.941 -0.3715  0.5044  0.4858
   12MOL   C214 3756   6.071   1.282   6.960 -0.1500 -0.5633 -0.6204
   12MOL   F215 3757   5.983   1.260   7.064  0.1906  0.7066  0.0910
   12MOL   C216 3758   6.116   1.176   6.879  0.5599  0.0091 -0.1037
   12MOL   C217 3759   6.218   1.206   6.783 -0.0138  0.5655  0.3772
   12MOL   C218 3760   6.355   1.420   6.553  0.7567  0.2161  0.1941
   12MOL   H219 3761   6.442   1.258   6.659  1.7770 -0.5226  3.2462
   12MOL   H220 3762   6.251   1.539   6.832  0.1572 -0.9323  2.8054
   12MOL   H221 3763   6.076   1.498   6.989  0.1603  0.4090  1.1661
   12MOL   H222 3764   6.089   1.071   6.883  0.0803  0.0458 -1.8048
   12MOL   H223 3765   6.257   1.127   6.720  0.2578  1.1594 -0.1963
   12MOL   H224 3766   6.305   1.513   6.580 -1.2202 -1.0841  1.0500
   12MOL   H225 3767   6.444   1.456   6.501 -0.4243  0.7930 -1.4590
   12MOL   C226 3768   6.275   1.329   6.452 -0.6488  0.1153 -0.4999
   12MOL   C227 3769   6.216   1.407   6.334 -0.2561  0.1550  0.0384
   12MOL   C228 3770   6.302   1.487   6.250  0.2067 -0.2470 -0.4983
   12MOL   C229 3771   6.245   1.564   6.149  0.0667 -0.6008 -0.7446
   12MOL   C230 3772   6.106   1.574   6.137 -0.0281 -0.3266  0.6789
   12MOL   F231 3773   6.050   1.641   6.035  0.1873  0.1699  0.7572
   12MOL   C232 3774   6.021   1.517   6.228 -0.4177  0.6413 -0.5971
   12MOL   C233 3775   6.076   1.431   6.325  0.5358 -0.2733  0.4832
   12MOL   C234 3776   6.352   1.202   6.397  0.5395 -0.3110  0.7927
   12MOL   H235 3777   6.190   1.281   6.501  0.5045  0.0627  1.5217
   12MOL   H236 3778   6.409   1.471   6.254  0.8663  2.5536 -4.2713
   12MOL   H237 3779   6.304   1.630   6.086 -3.2074  1.6730 -1.5216
   12MOL   H238 3780   5.915   1.523   6.208 -0.8993  0.2047  1.7138
   12MOL   H239 3781   6.002   1.377   6.381 -0.1856  0.4736  0.2656
   12MOL   H240 3782   6.449   1.239   6.363  0.6398 -1.5594 -0.2995
   12MOL   H241 3783   6.389   1.147   6.483  0.3425  0.0237  1.0929
   12MOL   C242 3784   6.281   1.116   6.289 -0.3559  0.6094 -0.1667
   12MOL   C243 3785   6.308   1.158   6.145  0.0420 -0.7360 -0.6558
   12MOL   C244 3786   6.202   1.206   6.065 -0.3986 -0.3469  0.8045
   12MOL   C245 3787   6.225   1.237   5.929  0.1125  0.0934 -1.0459
   12MOL   C246 3788   6.353   1.225   5.878  0.1631 -0.5101 -0.1518
   12MOL   F247 3789   6.374   1.266   5.751 -0.3995 -0.3931  0.3745
   12MOL   C248 3790   6.464   1.183   5.952  0.7590  0.5905  0.5438
   12MOL   C249 3791   6.434   1.143   6.088 -0.0432  0.0860 -0.7918
   12MOL   C250 3792   6.315   0.967   6.311 -0.0753 -0.5780 -0.2100
   12MOL   H251 3793   6.173   1.112   6.300 -0.2010 -0.2283  1.2046
   12MOL   H252 3794   6.107   1.217   6.115 -0.9341 -0.6913 -0.1344
   12MOL   H253 3795   6.152   1.280   5.863 -1.0610 -0.1634  0.0713
   12MOL   H254 3796   6.562   1.170   5.908  0.0262 -2.3957 -0.3011
   12MOL   H255 3797   6.517   1.105   6.145 -0.4457 -1.9486 -1.5259
   12MOL   H256 3798   6.302   0.921   6.213  1.1844  0.5358 -0.9077
   12MOL   H257 3799   6.422   0.961   6.331 -0.2630  0.9685  1.4523
   12MOL   C258 3800   6.248   0.889   6.426 -0.0323 -0.3000  0.1915
   12MOL   C259 3801   6.095   0.890   6.423  0.5798 -0.2477  0.1826
   12MOL   C260 3802   6.024   0.938   6.535 -0.5956  0.0958  0.1718
   12MOL   C261 3803   5.888   0.917   6.555 -0.4505  0.3471  0.1864
   12MOL   C262 3804   5.821   0.843   6.455 -0.0445  1.0651  0.2854
   12MOL   F263 3805   5.688   0.832   6.464  0.4926 -0.1453 -0.1627
   12MOL   C264 3806   5.888   0.799   6.339  0.5217  0.0649  0.5040
   12MOL   C265 3807   6.023   0.824   6.320 -0.1071 -0.3449  0.6524
   12MOL   C266 3808   6.306   0.744   6.441 -0.6464  0.2060  0.4180
   12MOL   H267 3809   6.273   0.951   6.512  1.6517  0.1878 -0.6227
   12MOL   H268 3810   6.080   0.995   6.608 -0.9377 -1.6235  1.7892
   12MOL   H269 3811   5.831   0.957   6.638  1.4315 -1.6344  2.5423
   12MOL   H270 3812   5.828   0.744   6.268 -2.2672  2.2907  1.0441
   12MOL   H271 3813   6.077   0.790   6.233 -0.5335  2.5247 -0.7956
   12MOL   H272 3814   6.244   0.691   6.513 -2.1340  1.2449 -0.0644
   12MOL   H273 3815   6.294   0.702   6.341 -0.8465 -0.1522  0.5906
   12MOL   C274 3816   6.446   0.720   6.505  0.4292  0.3561 -0.1065
   12MOL   C275 3817   6.471   0.822   6.618 -0.0889  0.0736  0.0316
   12MOL   C276 3818   6.443   0.790   6.751 -0.6103  0.2988  0.4176
   12MOL   C277 3819   6.467   0.884   6.854 -0.8800 -0.5109 -0.1007
   12MOL   C278 3820   6.531   1.002   6.817  0.6021  0.2691  0.5316
   12MOL   F279 3821   6.574   1.079   6.915  0.4275  0.1980  0.3871
   12MOL   C280 3822   6.577   1.027   6.689 -0.4801  0.1748  0.4072
   12MOL   C281 3823   6.547   0.936   6.591  0.3112 -0.5126  0.0448
   12MOL   C282 3824   6.474   0.576   6.556  0.1247  0.5000  1.0599
   12MOL   H283 3825   6.514   0.743   6.424  1.4622 -0.1077  0.6100
   12MOL   H284 3826   6.408   0.694   6.785  2.0271 -0.6576  0.5941
   12MOL   H285 3827   6.428   0.859   6.952 -2.4786 -2.0992 -1.1113
   12MOL   H286 3828   6.638   1.111   6.659 -0.4399 -0.2906 -0.8761
   12MOL   H287 3829   6.566   0.964   6.488 -3.4604  2.0455 -0.0530
   12MOL   H288 3830   6.410   0.552   6.641 -1.3064  0.8457  0.1095
   12MOL   H289 3831   6.422   0.515   6.482 -0.6146  1.4176  0.7974
   12MOL   C290 3832   6.622   0.549   6.583  0.1709  0.3359  0.2243
   12MOL   C291 3833   6.642   0.487   6.720 -0.1786 -0.2023  0.0178
   12MOL   C292 3834   6.721   0.552   6.812  0.2790 -0.2189  0.1286
   12MOL   C293 3835   6.773   0.483   6.918  0.7828 -0.3991 -0.0189
   12MOL   C294 3836   6.735   0.355   6.955  0.1265  0.2793  0.4621
   12MOL   F295 3837   6.777   0.293   7.068 -0.5077 -0.2915 -0.5331
   12MOL   C296 3838   6.645   0.291   6.867  0.6263  0.1974  0.2998
   12MOL   C297 3839   6.602   0.354   6.747 -0.1368 -0.2247  0.7917
   12MOL   C298 3840   6.699   0.470   6.472  0.3880 -0.0499  0.1913
   12MOL   H299 3841   6.662   0.650   6.589  0.4159  0.1751  1.3321
   12MOL   H300 3842   6.756   0.651   6.787  1.7299 -0.1801  2.1529
   12MOL   H301 3843   6.832   0.539   6.989  0.4427 -1.7491  1.3462
   12MOL   H302 3844   6.615   0.190   6.892 -0.2995  0.5473  0.5995
   12MOL   H303 3845   6.538   0.314   6.670 -0.8867  2.7433 -0.1837
   12MOL   H304 3846   6.678   0.364   6.486  2.0160 -0.2266  1.4639
   12MOL   H305 3847   6.669   0.499   6.371 -2.5166 -0.1615  0.9904
   12MOL   C306 3848   6.850   0.475   6.491  0.3311  0.0430  0.8710
   12MOL   C307 3849   6.922   0.362   6.406 -0.1500 -0.5710 -0.1736
   12MOL   C308 3850   6.920   0.365   6.260 -0.5327 -0.4053  0.0720
   12MOL   C309 3851   6.970   0.254   6.185 -0.4171  0.0792 -0.0956
   12MOL   C310 3852   7.032   0.154   6.260 -0.0085 -0.6855  0.1142
   12MOL   F311 3853   7.066   0.039   6.198  0.0663  0.3797  0.1592
   12MOL   C312 3854   7.046   0.160   6.400  0.2806  0.8295  0.0700
   12MOL   C313 3855   6.988   0.264   6.473 -0.5610  0.3441  0.1518
   12MOL   C314 3856   6.919   0.609   6.469 -0.3309  0.0958 -0.4224
   12MOL   H315 3857   6.872   0.445   6.594 -0.4431 -0.2787  0.9541
   12MOL   H316 3858   6.864   0.445   6.214  0.9961  0.5436 -0.1891
   12MOL   H317 3859   6.945   0.250   6.080  1.5735 -2.2454 -0.5342
   12MOL   H318 3860   7.075   0.063   6.439  0.9126 -0.1317 -2.6546
   12MOL   H319 3861   6.976   0.254   6.580 -1.3558 -1.7906 -0.0901
   12MOL   H320 3862   6.918   0.656   6.371  0.6997  0.3520 -0.3229
   12MOL   H321 3863   6.879   0.693   6.526 -0.3506  0.1276 -0.4838
   12MOL   H322 3864   7.021   0.580   6.496 -0.8145 -2.4204 -1.1808
   13MOL     C1 3865   6.329   2.916   4.335  0.1124 -0.1784 -0.9940
   13MOL     C2 3866   6.204   2.998   4.315 -0.0687  0.3084  0.4347
   13MOL     C3 3867   6.095   2.999   4.408  0.3459  0.4601  0.2967
   13MOL     C4 3868   5.974   3.063   4.371 -0.7921  0.3922  0.0971
   13MOL     C5 3869   5.967   3.157   4.263  0.3610  0.2015 -0.9153
   13MOL     F6 3870   5.853   3.223   4.241  0.0981 -0.3092  0.0904
   13MOL     C7 3871   6.081   3.174   4.190 -0.3310 -0.1890  0.4370
   13MOL     C8 3872   6.195   3.095   4.209  0.0649  0.0349 -0.0717
   13MOL     C9 3873   6.429   2.914   4.215 -0.0448 -0.1448  0.7773
   13MOL    H10 3874   6.290   2.818   4.362  0.6593 -0.6540 -1.9110
   13MOL    H11 3875   6.091   2.930   4.491  1.4126 -0.4079 -0.3591
   13MOL    H12 3876   5.885   3.049   4.429 -0.8162  0.8823  0.1786
   13MOL    H13 3877   6.098   3.245   4.110 -1.6440 -1.8165 -1.3377
   13MOL    H14 3878   6.281   3.120   4.148  0.3225 -0.7149 -0.0290
   13MOL    H15 3879   6.371   2.890   4.126  2.5194  0.8164 -1.2216
   13MOL    H16 3880   6.478   3.008   4.189 -0.5543  0.7049  2.8156
   13MOL    H17 3881   6.377   2.955   4.424  2.7865  0.7189 -2.7801
   13MOL    C18 3882   6.536   2.804   4.232  0.0701  0.4775  0.1013
   13MOL    C19 3883   6.620   2.789   4.111 -0.4030  0.1390  0.4570
   13MOL    C20 3884   6.667   2.887   4.029 -0.0546 -0.7758 -0.2034
   13MOL    C21 3885   6.753   2.859   3.922  0.1390  0.2603  0.2135
   13MOL    C22 3886   6.813   2.731   3.900 -0.2738  0.3527 -0.0327
   13MOL    F23 3887   6.897   2.705   3.794  0.3156 -0.2098 -0.1600
   13MOL    C24 3888   6.760   2.630   3.977  0.2374  0.2258 -0.2385
   13MOL    C25 3889   6.666   2.658   4.082 -0.7937 -0.4262  0.0848
   13MOL    C26 3890   6.625   2.821   4.353  0.5590  0.8018 -0.4754
   13MOL    H27 3891   6.473   2.716   4.245  0.6730  0.0660  0.2494
   13MOL    H28 3892   6.639   2.991   4.024 -1.5623 -1.2214 -1.1624
   13MOL    H29 3893   6.784   2.942   3.861  0.0207  0.4074  0.3549
   13MOL    H30 3894   6.809   2.535   3.964 -0.4433 -0.0382 -0.9278
   13MOL    H31 3895   6.638   2.567   4.134 -2.0384 -0.0894  0.0286
   13MOL    H32 3896   6.570   2.821   4.447  2.1836  0.7992  0.4904
   13MOL    H33 3897   6.679   2.726   4.361 -0.6492  0.0966 -0.5843
   13MOL    C34 3898   6.730   2.936   4.357  0.5799 -0.5381  0.4488
   13MOL    C35 3899   6.676   3.072   4.390  0.9032  0.5260 -1.5318
   13MOL    C36 3900   6.620   3.098   4.519  0.3481  0.4240 -0.6998
   13MOL    C37 3901   6.588   3.228   4.550 -0.8007 -0.5952 -1.1100
   13MOL    C38 3902   6.599   3.333   4.458  0.7685 -0.0358  0.6945
   13MOL    F39 3903   6.566   3.469   4.480 -0.1878  0.4679  0.1188
   13MOL    C40 3904   6.645   3.302   4.324 -0.0785  0.1153 -0.2468
   13MOL    C41 3905   6.682   3.175   4.292 -0.0413  0.3939  0.0168
   13MOL    C42 3906   6.852   2.904   4.447  0.1181 -0.5067  0.3415
   13MOL    H43 3907   6.767   2.955   4.256  0.4474  0.2415  0.5390
   13MOL    H44 3908   6.614   3.021   4.595 -2.0174  0.7771 -0.4897
   13MOL    H45 3909   6.558   3.247   4.652 -1.8788  0.7262 -1.6573
   13MOL    H46 3910   6.651   3.373   4.243  1.8458  0.3782  0.1027
   13MOL    H47 3911   6.713   3.162   4.190  0.4434  0.6145  0.1345
   13MOL    H48 3912   6.892   2.985   4.507 -2.0825  0.6861  0.2145
   13MOL    H49 3913   6.813   2.837   4.523  0.1219 -0.1085  0.6930
   13MOL    C50 3914   6.961   2.828   4.368  0.2326  0.3003  0.6219
   13MOL    C51 3915   7.050   2.925   4.284  0.6761  0.1834 -0.0473
   13MOL    C52 3916   7.078   3.059   4.328  0.1293  0.6405 -0.1837
   13MOL    C53 3917   7.162   3.139   4.254  0.2285 -0.2710  0.5877
   13MOL    C54 3918   7.221   3.095   4.139  0.2696  0.5729  0.7379
   13MOL    F55 3919   7.309   3.175   4.068 -0.1986 -0.0709  0.3190
   13MOL    C56 3920   7.183   2.967   4.084 -0.9241 -0.4610  0.3998
   13MOL    C57 3921   7.102   2.880   4.161 -0.0614  0.1988 -0.0197
   13MOL    C58 3922   7.046   2.738   4.458  0.3763  0.2791 -0.2929
   13MOL    H59 3923   6.915   2.754   4.303 -0.4269  0.3587  1.0152
   13MOL    H60 3924   7.030   3.096   4.418 -0.2300 -0.3035  0.0209
   13MOL    H61 3925   7.195   3.236   4.288 -0.4098  0.1006  0.1560
   13MOL    H62 3926   7.221   2.933   3.989 -0.6070 -0.9825  0.7094
   13MOL    H63 3927   7.072   2.785   4.121  2.2847 -1.6733  2.4984
   13MOL    H64 3928   7.144   2.734   4.412  1.1263  1.1637  1.1784
   13MOL    H65 3929   7.065   2.781   4.557  4.4083 -0.4393 -0.6645
   13MOL    C66 3930   6.987   2.591   4.479 -0.5941 -0.0543 -0.4952
   13MOL    C67 3931   6.961   2.509   4.355 -0.1722  0.3146  0.4461
   13MOL    C68 3932   6.841   2.448   4.333  0.4044  0.5245  0.2046
   13MOL    C69 3933   6.814   2.357   4.225  0.0418 -0.3528  0.2979
   13MOL    C70 3934   6.910   2.343   4.123 -0.8445  0.5947  0.1700
   13MOL    F71 3935   6.873   2.285   4.007  0.2228  0.4673  0.2726
   13MOL    C72 3936   7.041   2.400   4.146  0.3334  0.2198 -0.0893
   13MOL    C73 3937   7.059   2.480   4.257 -0.3991 -0.3624 -0.1490
   13MOL    C74 3938   7.079   2.508   4.572 -0.3059 -0.3943 -0.0338
   13MOL    H75 3939   6.897   2.602   4.540  0.0891  1.2007  0.3041
   13MOL    H76 3940   6.770   2.457   4.414  2.9964 -0.4211  2.6655
   13MOL    H77 3941   6.720   2.305   4.223  0.2977 -0.7845 -0.7238
   13MOL    H78 3942   7.120   2.401   4.072  1.3072  2.8690  0.9234
   13MOL    H79 3943   7.158   2.519   4.275 -0.3055 -0.8128  0.3219
   13MOL    H80 3944   7.173   2.484   4.522 -0.4494  0.7604 -0.8661
   13MOL    H81 3945   7.114   2.574   4.651  1.7838 -0.2691 -1.0135
   13MOL    C82 3946   7.013   2.387   4.641  0.1971 -0.6645  0.2101
   13MOL    C83 3947   7.123   2.303   4.717 -0.0377 -0.3857  0.0245
   13MOL    C84 3948   7.198   2.355   4.829  0.0577  0.1199  0.6773
   13MOL    C85 3949   7.287   2.271   4.894 -0.3866  0.7608  0.1827
   13MOL    C86 3950   7.318   2.147   4.840 -0.4685 -0.0897  0.1878
   13MOL    F87 3951   7.415   2.078   4.900  0.3158 -0.4351  0.5023
   13MOL    C88 3952   7.246   2.090   4.734 -0.3121  0.3899  0.4332
   13MOL    C89 3953   7.155   2.176   4.664 -0.3792  0.5414 -0.5968
   13MOL    C90 3954   6.898   2.431   4.735 -0.7346  0.2326  0.0266
   13MOL    H91 3955   6.964   2.324   4.566  1.5968 -1.4514 -0.0651
   13MOL    H92 3956   7.178   2.449   4.878  1.3296  0.9039 -0.2996
   13MOL    H93 3957   7.339   2.298   4.985  0.2053 -1.9486  0.7048
   13MOL    H94 3958   7.267   1.992   4.693 -1.7941 -0.1467  0.9372
   13MOL    H95 3959   7.100   2.132   4.582 -0.7502 -0.8545  0.3633
   13MOL    H96 3960   6.942   2.506   4.801  0.5953 -0.1637 -0.3959
   13MOL    H97 3961   6.817   2.481   4.682 -2.1882 -1.5709  0.5252
   13MOL    C98 3962   6.845   2.323   4.828  0.7279 -0.6973 -0.4220
   13MOL    C99 3963   6.756   2.384   4.939 -0.6999 -0.1255  0.6081
   13MOL   C100 3964   6.654   2.474   4.901  0.1848  0.3845  0.7259
   13MOL   C101 3965   6.571   2.541   4.995  0.1129 -0.0199  0.3439
   13MOL   C102 3966   6.589   2.517   5.131 -0.1990  0.0690 -0.1632
   13MOL   F103 3967   6.498   2.569   5.216  0.3424 -0.2161  0.3787
   13MOL   C104 3968   6.693   2.437   5.178 -0.4136 -0.2887 -0.0223
   13MOL   C105 3969   6.779   2.371   5.080  0.1022  0.4020 -0.4495
   13MOL   C106 3970   6.748   2.222   4.750 -0.0622  0.5435  0.5522
   13MOL   H107 3971   6.928   2.271   4.876 -0.5168 -2.8705 -0.5801
   13MOL   H108 3972   6.640   2.506   4.799 -0.0620 -0.5787  0.4477
   13MOL   H109 3973   6.489   2.604   4.966  2.2377  2.2393 -0.9722
   13MOL   H110 3974   6.702   2.421   5.284 -0.3091  3.5848  0.6105
   13MOL   H111 3975   6.868   2.317   5.109  0.8081  1.4415 -0.6602
   13MOL   H112 3976   6.644   2.250   4.764 -0.0065  1.4287 -0.7645
   13MOL   H113 3977   6.767   2.237   4.644 -0.3254 -0.7910  0.3123
   13MOL   C114 3978   6.776   2.071   4.777  0.3067 -0.2777  0.5941
   13MOL   C115 3979   6.772   2.037   4.923 -0.2778 -0.3801  0.2065
   13MOL   C116 3980   6.653   2.056   4.996  0.1441 -0.4736  0.4249
   13MOL   C117 3981   6.651   2.025   5.137  0.3321 -0.1143 -0.1291
   13MOL   C118 3982   6.772   1.985   5.197  0.2880  0.2956 -0.1323
   13MOL   F119 3983   6.770   1.946   5.328 -0.0778 -0.3295 -0.0317
   13MOL   C120 3984   6.887   1.967   5.120 -0.3524 -0.4251 -0.5807
   13MOL   C121 3985   6.892   1.987   4.982  0.1389  0.1330  0.1850
   13MOL   C122 3986   6.670   1.979   4.697 -0.1176 -0.9425  0.0742
   13MOL   H123 3987   6.873   2.050   4.733 -1.1341  0.0414 -2.8635
   13MOL   H124 3988   6.567   2.104   4.951 -0.3378  0.9749  2.7932
   13MOL   H125 3989   6.566   2.040   5.202 -0.0595  0.8832 -0.8576
   13MOL   H126 3990   6.977   1.939   5.172 -0.3030 -2.0999 -1.5348
   13MOL   H127 3991   6.984   1.971   4.927  0.4311 -2.6221  1.4147
   13MOL   H128 3992   6.671   1.873   4.720  1.2755 -0.8712  0.3930
   13MOL   H129 3993   6.572   2.015   4.730 -0.6752 -0.9500 -1.5398
   13MOL   C130 3994   6.672   1.995   4.545  0.2677 -0.8073  0.6860
   13MOL   C131 3995   6.800   1.937   4.489 -0.3948  0.7137  0.4586
   13MOL   C132 3996   6.889   2.018   4.408 -0.5619 -0.2001 -0.7193
   13MOL   C133 3997   7.003   1.954   4.345  0.2346 -0.3177  0.3733
   13MOL   C134 3998   7.024   1.815   4.357  0.1414  0.0999 -0.0062
   13MOL   F135 3999   7.126   1.763   4.288  0.1101  0.2252 -0.0027
   13MOL   C136 4000   6.938   1.741   4.438  0.0695  0.0063  0.1445
   13MOL   C137 4001   6.827   1.800   4.505 -0.4652  0.2705 -0.6974
   13MOL   C138 4002   6.547   1.933   4.476 -0.6472 -0.4958 -0.6644
   13MOL   H139 4003   6.673   2.102   4.523 -1.0941 -0.4848  2.0581
   13MOL   H140 4004   6.879   2.125   4.398  1.1003  0.1010  0.4720
   13MOL   H141 4005   7.075   2.010   4.287  0.0117  1.6782  1.9607
   13MOL   H142 4006   6.955   1.635   4.446 -0.3965 -0.0795  0.0243
   13MOL   H143 4007   6.767   1.738   4.570  0.6182 -1.2825 -1.1276
   13MOL   H144 4008   6.574   1.923   4.371 -0.8221 -1.5220 -0.6174
   13MOL   H145 4009   6.543   1.831   4.515  1.8475  0.3531  2.0160
   13MOL   C146 4010   6.410   1.996   4.507  0.3849 -0.1311  0.1156
   13MOL   C147 4011   6.404   2.148   4.484 -0.4748 -0.1628 -0.3249
   13MOL   C148 4012   6.449   2.203   4.359  0.3034  1.1566 -0.3276
   13MOL   C149 4013   6.451   2.342   4.338 -0.1602 -0.5203 -0.9829
   13MOL   C150 4014   6.404   2.430   4.442 -0.2752 -0.4520  1.0271
   13MOL   F151 4015   6.410   2.563   4.419 -0.0911 -0.4725 -0.4491
   13MOL   C152 4016   6.374   2.373   4.565  0.5596 -0.2399 -0.4276
   13MOL   C153 4017   6.368   2.235   4.586 -0.2755  0.6847 -0.0134
   13MOL   C154 4018   6.288   1.930   4.431  0.6301 -0.3698 -0.1069
   13MOL   H155 4019   6.388   1.973   4.611 -0.5127 -3.4295 -0.7590
   13MOL   H156 4020   6.489   2.137   4.283 -3.3455 -0.8148 -0.6885
   13MOL   H157 4021   6.474   2.385   4.242  0.8091  0.4119 -0.3391
   13MOL   H158 4022   6.364   2.441   4.648 -0.9581 -1.5430  0.4794
   13MOL   H159 4023   6.326   2.195   4.677  1.4448  1.7073  1.2813
   13MOL   H160 4024   6.199   1.992   4.445  1.7397  1.1100  0.5884
   13MOL   H161 4025   6.308   1.943   4.324 -1.4303 -0.9215 -0.5847
   13MOL   C162 4026   6.261   1.787   4.459 -0.1798  0.2076 -0.4704
   13MOL   C163 4027   6.175   1.765   4.588 -0.0377 -0.0446 -0.1848
   13MOL   C164 4028   6.249   1.713   4.696  0.4212 -0.3791  0.0372
   13MOL   C165 4029   6.183   1.686   4.816 -0.1160  0.1438  0.3774
   13MOL   C166 4030   6.055   1.742   4.835  0.2435  0.3961  0.4837
   13MOL   F167 4031   6.000   1.744   4.960 -0.3809  0.1083  0.2239
   13MOL   C168 4032   5.980   1.789   4.730  0.4686 -0.4375 -0.0506
   13MOL   C169 4033   6.037   1.807   4.598 -0.5218 -0.0546 -0.5137
   13MOL   C170 4034   6.201   1.700   4.340 -0.0082 -0.5216 -0.0303
   13MOL   H171 4035   6.356   1.740   4.484 -0.1768  1.1858  1.4837
   13MOL   H172 4036   6.351   1.684   4.677  0.4229 -0.0681 -0.4264
   13MOL   H173 4037   6.234   1.652   4.906  0.9257  0.1535 -0.2011
   13MOL   H174 4038   5.879   1.823   4.750  0.6076  0.7383 -1.2403
   13MOL   H175 4039   5.985   1.843   4.510 -3.9365 -1.6594  0.7403
   13MOL   H176 4040   6.140   1.616   4.374  0.0785 -0.9424 -0.9001
   13MOL   H177 4041   6.135   1.763   4.280 -0.5120 -1.4386 -0.4558
   13MOL   C178 4042   6.328   1.653   4.253  0.3830 -0.6456 -0.1601
   13MOL   C179 4043   6.429   1.555   4.323  0.7934  0.1022 -0.9428
   13MOL   C180 4044   6.565   1.567   4.288  0.2067  0.5552  0.2101
   13MOL   C181 4045   6.657   1.479   4.346  0.0427  0.1258 -0.1553
   13MOL   C182 4046   6.618   1.413   4.462  0.0923  0.3908 -0.3061
   13MOL   F183 4047   6.710   1.357   4.541 -0.3091 -0.3474  0.2782
   13MOL   C184 4048   6.480   1.392   4.498 -0.3448  0.1076  0.1813
   13MOL   C185 4049   6.389   1.468   4.429  0.0824 -0.0856 -0.0475
   13MOL   C186 4050   6.295   1.597   4.113  1.0956  0.3407 -0.4552
   13MOL   H187 4051   6.382   1.747   4.241  0.6343 -0.8248 -0.4390
   13MOL   H188 4052   6.595   1.620   4.198  1.1903  0.4272  0.4516
   13MOL   H189 4053   6.764   1.479   4.327  0.6122  2.3003  2.7390
   13MOL   H190 4054   6.453   1.332   4.584  0.5005 -2.2785 -1.1833
   13MOL   H191 4055   6.285   1.475   4.456  0.2439  1.7561  0.1454
   13MOL   H192 4056   6.387   1.556   4.071 -0.5511 -1.6384 -2.2535
   13MOL   H193 4057   6.223   1.515   4.113  0.0471  1.2410  0.3186
   13MOL   C194 4058   6.262   1.706   4.005  0.2077 -0.3378  0.5570
   13MOL   C195 4059   6.361   1.818   4.007 -0.0249 -1.1751  0.4232
   13MOL   C196 4060   6.495   1.789   3.973 -0.2148  0.9546 -0.9132
   13MOL   C197 4061   6.594   1.886   3.984 -0.3335 -0.4343 -1.1580
   13MOL   C198 4062   6.553   2.014   4.025  0.2522  0.1943 -0.8079
   13MOL   F199 4063   6.641   2.111   4.040 -0.7577  0.1214 -0.7325
   13MOL   C200 4064   6.416   2.043   4.051 -0.0503  0.6162  0.8026
   13MOL   C201 4065   6.319   1.944   4.048 -0.1369 -0.2662 -0.2524
   13MOL   C202 4066   6.274   1.647   3.854  0.0009  0.4070 -0.6088
   13MOL   H203 4067   6.164   1.750   4.023 -0.0675 -0.7080 -0.0183
   13MOL   H204 4068   6.523   1.689   3.945 -1.4199 -0.0119  1.2798
   13MOL   H205 4069   6.697   1.858   3.964  0.1084  1.1870 -1.1938
   13MOL   H206 4070   6.390   2.143   4.084 -0.4742  0.4500  0.9610
   13MOL   H207 4071   6.218   1.965   4.081  0.1799  1.5307 -0.3559
   13MOL   H208 4072   6.305   1.728   3.788 -0.3018  2.3343  1.5138
   13MOL   H209 4073   6.357   1.576   3.850 -1.6608 -1.5969  0.0864
   13MOL   C210 4074   6.146   1.582   3.784  0.0592  0.3412  0.4938
   13MOL   C211 4075   6.086   1.466   3.857 -0.7468  0.6453  0.5545
   13MOL   C212 4076   5.996   1.486   3.965 -0.2348 -0.2797 -0.0986
   13MOL   C213 4077   5.937   1.371   4.026 -0.2953  0.0279 -0.1696
   13MOL   C214 4078   5.967   1.243   3.977 -0.4334  0.7454  1.0194
   13MOL   F215 4079   5.923   1.135   4.046 -0.1187 -0.1329 -0.4996
   13MOL   C216 4080   6.065   1.217   3.876 -0.4886 -0.6056 -0.1309
   13MOL   C217 4081   6.122   1.331   3.816 -0.1249 -0.5997 -0.7522
   13MOL   C218 4082   6.042   1.682   3.729  0.5090 -0.2104  0.1393
   13MOL   H219 4083   6.184   1.530   3.696  0.8507 -1.3409  1.7932
   13MOL   H220 4084   5.986   1.587   4.002  0.6450 -0.8149  1.6762
   13MOL   H221 4085   5.870   1.378   4.110 -1.0879 -1.5428 -0.6566
   13MOL   H222 4086   6.098   1.121   3.838  1.5284  0.5555 -1.3726
   13MOL   H223 4087   6.191   1.316   3.735 -0.5785 -0.7328 -1.1181
   13MOL   H224 4088   6.009   1.752   3.806 -0.1925  0.9000 -1.1438
   13MOL   H225 4089   6.086   1.754   3.660 -0.7625  0.3667 -0.0906
   13MOL   C226 4090   5.915   1.629   3.651  0.7657 -0.3552  0.3735
   13MOL   C227 4091   5.822   1.755   3.637  0.1074  0.9332  0.2620
   13MOL   C228 4092   5.855   1.851   3.537 -0.2904 -0.0783 -0.0643
   13MOL   C229 4093   5.775   1.964   3.516  0.0067 -0.1414  1.1884
   13MOL   C230 4094   5.655   1.976   3.585 -0.3297 -0.0964 -0.6639
   13MOL   F231 4095   5.578   2.082   3.564  0.2669 -0.0251 -0.3062
   13MOL   C232 4096   5.612   1.870   3.673 -0.2438  0.2593 -0.5091
   13MOL   C233 4097   5.694   1.761   3.703 -0.5677  0.6728  0.3827
   13MOL   C234 4098   5.964   1.567   3.516 -0.3949  0.7735 -0.0371
   13MOL   H235 4099   5.862   1.561   3.718  2.1096 -2.9034 -1.0801
   13MOL   H236 4100   5.939   1.842   3.470 -0.6825 -1.9591 -0.3510
   13MOL   H237 4101   5.810   2.038   3.446  1.0399 -0.9811  0.7893
   13MOL   H238 4102   5.516   1.866   3.721 -0.0681  0.1459 -0.1688
   13MOL   H239 4103   5.662   1.680   3.767 -0.1001  0.7609  0.7278
   13MOL   H240 4104   6.025   1.635   3.458  2.4529 -2.7662 -1.3161
   13MOL   H241 4105   6.028   1.482   3.540 -1.7073  0.3115  1.9863
   13MOL   C242 4106   5.850   1.495   3.433 -0.3992  0.6283 -0.1632
   13MOL   C243 4107   5.761   1.416   3.535  0.0686 -0.8257 -0.7036
   13MOL   C244 4108   5.811   1.302   3.594  0.2783 -0.6409  0.7436
   13MOL   C245 4109   5.729   1.216   3.673  0.2088 -0.9021  0.2282
   13MOL   C246 4110   5.591   1.247   3.691 -0.7057  0.2798  0.2780
   13MOL   F247 4111   5.525   1.173   3.776 -0.3519 -0.1592  0.2053
   13MOL   C248 4112   5.541   1.368   3.631 -0.1062  0.8563 -0.1525
   13MOL   C249 4113   5.623   1.450   3.544 -0.3340  0.0814  0.3554
   13MOL   C250 4114   5.782   1.587   3.332 -0.0852 -0.2081  0.0376
   13MOL   H251 4115   5.905   1.430   3.364  1.1713  3.0191 -1.2497
   13MOL   H252 4116   5.910   1.271   3.564  0.5405  0.5499  0.3368
   13MOL   H253 4117   5.762   1.120   3.708  0.6230 -0.9838 -0.3883
   13MOL   H254 4118   5.445   1.409   3.655 -0.4145 -0.8165  1.6850
   13MOL   H255 4119   5.579   1.533   3.491  1.0342  1.2892  1.0852
   13MOL   H256 4120   5.721   1.662   3.382 -0.2913  0.4446 -1.1860
   13MOL   H257 4121   5.862   1.652   3.298 -1.0032  0.3028 -1.2147
   13MOL   C258 4122   5.708   1.530   3.208  0.0619  0.0563 -0.2886
   13MOL   C259 4123   5.555   1.537   3.219 -0.3543  0.2539 -0.2699
   13MOL   C260 4124   5.482   1.413   3.228  0.3583 -0.1870  0.4916
   13MOL   C261 4125   5.340   1.423   3.228 -0.0509 -0.6680  0.2351
   13MOL   C262 4126   5.267   1.544   3.209 -1.1144 -0.0133 -0.5613
   13MOL   F263 4127   5.138   1.549   3.191  0.3522  0.6499 -0.1748
   13MOL   C264 4128   5.342   1.663   3.193  0.5984  0.3048 -0.6577
   13MOL   C265 4129   5.484   1.657   3.207 -0.2647  0.0769  0.4423
   13MOL   C266 4130   5.764   1.588   3.077  0.1853  0.1275 -0.6254
   13MOL   H267 4131   5.738   1.426   3.218 -1.9416 -0.5089  0.1500
   13MOL   H268 4132   5.531   1.319   3.244 -0.9290 -1.0901 -0.7414
   13MOL   H269 4133   5.276   1.339   3.252  0.3959 -0.6031  1.7095
   13MOL   H270 4134   5.303   1.756   3.153  0.9403 -0.3550 -2.5488
   13MOL   H271 4135   5.539   1.746   3.182 -0.0568  0.1984  1.3298
   13MOL   H272 4136   5.681   1.568   3.009  0.4909  0.5482 -1.1195
   13MOL   H273 4137   5.774   1.696   3.084 -3.2771  0.4772 -0.3448
   13MOL   C274 4138   5.896   1.527   3.031  0.4035  0.1012 -0.3567
   13MOL   C275 4139   5.872   1.385   2.967 -0.7639 -0.6862 -0.0438
   13MOL   C276 4140   5.818   1.366   2.837  0.5556 -0.6975 -1.1404
   13MOL   C277 4141   5.784   1.240   2.793  0.1416 -0.6335 -0.3804
   13MOL   C278 4142   5.827   1.128   2.867 -0.3110 -0.1778  0.4710
   13MOL   F279 4143   5.774   1.004   2.839 -0.1769  0.7799 -0.8345
   13MOL   C280 4144   5.899   1.141   2.985 -0.1468 -0.1133  0.3387
   13MOL   C281 4145   5.913   1.270   3.042 -0.4729 -0.2529  0.1320
   13MOL   C282 4146   5.957   1.619   2.929 -0.2427 -0.2715 -0.2754
   13MOL   H283 4147   5.971   1.513   3.109  1.9575 -1.5599 -2.0743
   13MOL   H284 4148   5.784   1.444   2.770  0.5378  0.3628  0.0844
   13MOL   H285 4149   5.731   1.232   2.700  1.4222  1.8066 -1.3466
   13MOL   H286 4150   5.936   1.057   3.042  0.4414 -0.4200 -0.4846
   13MOL   H287 4151   5.955   1.292   3.139  1.2294  0.0026 -0.6506
   13MOL   H288 4152   6.028   1.559   2.872 -1.3996 -0.2288 -1.7935
   13MOL   H289 4153   5.881   1.654   2.859 -0.7115  0.2707  0.4956
   13MOL   C290 4154   6.026   1.748   2.979 -0.5377  0.0160 -0.1183
   13MOL   C291 4155   6.145   1.717   3.075  0.5433  0.0556 -0.3422
   13MOL   C292 4156   6.146   1.769   3.209 -0.1306  0.5001 -0.6405
   13MOL   C293 4157   6.242   1.742   3.309 -0.1266  0.4015  0.4332
   13MOL   C294 4158   6.346   1.651   3.268 -0.0033 -0.2307 -0.4394
   13MOL   F295 4159   6.437   1.618   3.363  0.2753 -0.4567  0.1646
   13MOL   C296 4160   6.355   1.600   3.134 -0.7827 -0.5513 -0.5291
   13MOL   C297 4161   6.256   1.638   3.040 -0.1811 -0.4007 -0.3385
   13MOL   C298 4162   6.081   1.824   2.857  0.1765  0.0705  1.1545
   13MOL   H299 4163   5.963   1.813   3.039 -0.9500 -1.4396  1.0334
   13MOL   H300 4164   6.060   1.829   3.233 -0.8809 -0.1230 -1.7056
   13MOL   H301 4165   6.229   1.780   3.410  2.0002  1.0953  0.4798
   13MOL   H302 4166   6.428   1.526   3.106 -0.3859 -1.5225  2.8762
   13MOL   H303 4167   6.256   1.588   2.944 -0.8671 -1.3248  0.1290
   13MOL   H304 4168   6.147   1.752   2.808  0.7484  2.4036 -1.6321
   13MOL   H305 4169   5.999   1.835   2.785  0.5856 -2.1163  0.3042
   13MOL   C306 4170   6.165   1.950   2.877 -0.0106  0.0372 -0.0813
   13MOL   C307 4171   6.271   1.956   2.768  0.3935 -0.0633 -0.1207
   13MOL   C308 4172   6.410   1.956   2.807 -0.0009  0.6355 -1.0113
   13MOL   C309 4173   6.508   1.962   2.707  0.5813  0.5112 -0.2605
   13MOL   C310 4174   6.468   1.957   2.571  0.0443 -0.5700 -0.8129
   13MOL   F311 4175   6.563   1.956   2.472  0.3274 -0.0645 -0.3163
   13MOL   C312 4176   6.329   1.962   2.531 -1.1070 -0.3091  0.2628
   13MOL   C313 4177   6.237   1.954   2.632  0.7300 -0.7091  0.5102
   13MOL   C314 4178   6.077   2.074   2.890 -0.2888  1.3124  0.4492
   13MOL   H315 4179   6.224   1.940   2.968 -2.7299  0.2181  1.7812
   13MOL   H316 4180   6.434   1.950   2.912  0.6278  2.4040 -1.0418
   13MOL   H317 4181   6.611   1.953   2.738 -0.0355  1.1003  2.0003
   13MOL   H318 4182   6.295   1.964   2.429 -1.0723 -2.2952  0.1973
   13MOL   H319 4183   6.134   1.958   2.601  0.3405  0.5974  1.8917
   13MOL   H320 4184   6.005   2.052   2.969 -2.4229 -1.1827 -2.0531
   13MOL   H321 4185   6.145   2.158   2.900  1.5521 -0.1449  0.3252
   13MOL   H322 4186   6.011   2.086   2.804 -2.7081 -0.1171  2.0615
   14MOL     C1 4187   2.819   4.346   4.652 -0.7266  0.4458 -0.3161
   14MOL     C2 4188   2.737   4.216   4.652 -0.3727  0.5618  0.6727
   14MOL     C3 4189   2.678   4.157   4.771  0.0527 -0.0807 -0.4896
   14MOL     C4 4190   2.602   4.039   4.765 -0.4152  0.6885  0.4980
   14MOL     C5 4191   2.595   3.960   4.645  0.2449 -0.0425  0.1704
   14MOL     F6 4192   2.545   3.835   4.647 -0.0668  0.1287  0.1344
   14MOL     C7 4193   2.643   4.020   4.528  0.3041  0.0368  0.0401
   14MOL     C8 4194   2.716   4.146   4.534 -0.3761  0.7610 -1.3600
   14MOL     C9 4195   2.750   4.469   4.586 -0.2595  0.7052  0.2087
   14MOL    H10 4196   2.914   4.331   4.600 -0.5581  0.2439  0.0441
   14MOL    H11 4197   2.672   4.215   4.862 -3.2740  0.2632 -0.8505
   14MOL    H12 4198   2.560   3.990   4.852  2.2372 -2.7975 -0.0506
   14MOL    H13 4199   2.643   3.963   4.437  0.4218  1.5750 -0.9323
   14MOL    H14 4200   2.756   4.186   4.441  0.5873  1.0897 -0.8117
   14MOL    H15 4201   2.760   4.448   4.479 -0.0963 -3.3148  0.9522
   14MOL    H16 4202   2.643   4.464   4.605 -0.5687  0.0822 -1.5761
   14MOL    H17 4203   2.848   4.373   4.754  0.4920  0.6577 -0.7034
   14MOL    C18 4204   2.816   4.601   4.617 -0.2409 -0.4684 -0.2708
   14MOL    C19 4205   2.796   4.702   4.515 -0.3483  0.2046  0.2780
   14MOL    C20 4206   2.668   4.749   4.479  0.2530  0.1896 -0.7310
   14MOL    C21 4207   2.654   4.850   4.377  0.0995 -0.3763 -0.3981
   14MOL    C22 4208   2.768   4.889   4.304 -0.1167  0.6059  0.2846
   14MOL    F23 4209   2.756   4.984   4.213  0.0654 -0.0291 -0.3986
   14MOL    C24 4210   2.891   4.834   4.333  0.1802  0.2464  0.0456
   14MOL    C25 4211   2.911   4.747   4.442  0.4535  0.9375 -0.2884
   14MOL    C26 4212   2.788   4.657   4.756 -0.2039 -0.2372 -0.2053
   14MOL    H27 4213   2.921   4.573   4.628 -0.5515 -1.1144  1.2627
   14MOL    H28 4214   2.573   4.718   4.520 -0.3857  0.5801 -1.8743
   14MOL    H29 4215   2.560   4.893   4.346  0.1166  0.6283  0.8964
   14MOL    H30 4216   2.976   4.863   4.272  1.5431  1.0063  2.2207
   14MOL    H31 4217   3.010   4.709   4.462 -0.4237 -2.3059 -1.6990
   14MOL    H32 4218   2.681   4.656   4.777 -0.0615 -1.4935  0.5322
   14MOL    H33 4219   2.835   4.594   4.833  1.5067  0.1082 -0.9292
   14MOL    C34 4220   2.842   4.794   4.786 -0.9259  0.0654  0.0069
   14MOL    C35 4221   2.733   4.896   4.819 -0.3424 -0.6241  0.1390
   14MOL    C36 4222   2.667   4.904   4.943  0.1625  0.2600 -0.4261
   14MOL    C37 4223   2.571   5.003   4.961  0.4693  0.4178  0.4109
   14MOL    C38 4224   2.539   5.090   4.864  0.5359 -0.5521 -0.1609
   14MOL    F39 4225   2.448   5.191   4.879  0.1072 -0.0909  0.2361
   14MOL    C40 4226   2.604   5.089   4.737  0.4827  0.3720 -0.2902
   14MOL    C41 4227   2.696   4.986   4.718  0.6386  0.1670 -0.8216
   14MOL    C42 4228   2.963   4.801   4.882  1.4015 -0.1059 -0.1799
   14MOL    H43 4229   2.891   4.829   4.695  0.3503 -0.2755  0.5414
   14MOL    H44 4230   2.697   4.844   5.027  0.8458  2.2190  0.7512
   14MOL    H45 4231   2.525   5.013   5.058 -1.4348 -3.4116 -0.0281
   14MOL    H46 4232   2.564   5.158   4.665  0.0595  2.1789  1.6183
   14MOL    H47 4233   2.737   4.992   4.618  0.0353  3.8106 -0.9109
   14MOL    H48 4234   2.980   4.906   4.904 -0.4343  0.3795 -0.9628
   14MOL    H49 4235   2.925   4.758   4.974 -1.6572  2.6427 -0.0467
   14MOL    C50 4236   3.094   4.727   4.840 -0.4845 -0.3590  0.1161
   14MOL    C51 4237   3.156   4.783   4.712  0.4340 -0.4333  0.4824
   14MOL    C52 4238   3.132   4.915   4.664  0.2055  0.0780  0.7713
   14MOL    C53 4239   3.186   4.955   4.542  0.0810  0.2344  0.2759
   14MOL    C54 4240   3.272   4.872   4.470  0.2891  0.5399  0.0227
   14MOL    F55 4241   3.333   4.918   4.359 -0.3347 -0.1010  0.4057
   14MOL    C56 4242   3.298   4.740   4.519  0.3812 -0.2608  0.6776
   14MOL    C57 4243   3.233   4.697   4.631  0.1225  0.3304  0.4619
   14MOL    C58 4244   3.194   4.731   4.959  0.6429 -0.1938  0.1883
   14MOL    H59 4245   3.071   4.623   4.817 -3.4540  0.7588 -2.2861
   14MOL    H60 4246   3.066   4.978   4.721 -0.9847  0.3877 -0.9269
   14MOL    H61 4247   3.153   5.049   4.498 -2.1263 -1.1985 -1.2375
   14MOL    H62 4248   3.357   4.678   4.454 -0.4825 -1.8926  1.4187
   14MOL    H63 4249   3.247   4.596   4.668 -0.1682  0.1398  0.0533
   14MOL    H64 4250   3.296   4.752   4.926 -0.1594 -0.5018 -2.5605
   14MOL    H65 4251   3.180   4.822   5.018 -0.9203  0.2571 -0.8428
   14MOL    C66 4252   3.180   4.608   5.053  0.0942  0.2705 -0.4769
   14MOL    C67 4253   3.197   4.472   4.970 -0.5807 -0.0811  0.2003
   14MOL    C68 4254   3.316   4.445   4.897  0.0502  0.0917 -0.6243
   14MOL    C69 4255   3.333   4.328   4.825  0.4510 -1.0647 -0.1758
   14MOL    C70 4256   3.230   4.241   4.809  0.4449  0.5045  0.2093
   14MOL    F71 4257   3.250   4.132   4.734 -0.0730  0.7677  0.2359
   14MOL    C72 4258   3.110   4.258   4.887 -0.2917 -0.5604 -0.2088
   14MOL    C73 4259   3.096   4.379   4.963  0.0356 -0.3459  0.1249
   14MOL    C74 4260   3.280   4.623   5.176  0.1491  0.8868  0.5193
   14MOL    H75 4261   3.078   4.615   5.091  0.1771 -0.6756 -0.0448
   14MOL    H76 4262   3.395   4.517   4.911  0.9518 -0.7703 -1.2085
   14MOL    H77 4263   3.430   4.322   4.777 -1.1060 -0.8590 -3.4477
   14MOL    H78 4264   3.026   4.193   4.872 -1.5937  0.7336  1.2898
   14MOL    H79 4265   3.000   4.405   5.005  1.0645  2.1011  1.0772
   14MOL    H80 4266   3.355   4.544   5.177 -1.5035 -0.6967  2.3645
   14MOL    H81 4267   3.335   4.714   5.151  1.1350  0.4105  0.9466
   14MOL    C82 4268   3.216   4.637   5.320  0.3940 -0.3955  0.3726
   14MOL    C83 4269   3.112   4.538   5.348  0.1737 -0.0506  0.6015
   14MOL    C84 4270   2.979   4.580   5.377 -0.1263  0.4559  0.5280
   14MOL    C85 4271   2.875   4.483   5.409 -0.5972 -0.8716  0.0868
   14MOL    C86 4272   2.909   4.346   5.411 -0.6568 -0.3939  0.2705
   14MOL    F87 4273   2.815   4.257   5.436  0.3287 -0.5427  0.0267
   14MOL    C88 4274   3.038   4.305   5.361  0.1296  0.4840  0.7799
   14MOL    C89 4275   3.136   4.402   5.331 -0.4948  0.2789  0.4869
   14MOL    C90 4276   3.331   4.611   5.418 -0.2325  0.2290  0.1637
   14MOL    H91 4277   3.177   4.739   5.328  0.5343 -0.0543 -2.6205
   14MOL    H92 4278   2.959   4.686   5.377 -1.0038  0.2883  0.3648
   14MOL    H93 4279   2.772   4.512   5.424 -0.4997 -0.0123 -0.8755
   14MOL    H94 4280   3.060   4.199   5.359  3.6524  1.1648  0.3328
   14MOL    H95 4281   3.223   4.365   5.278 -1.9610 -2.4135 -0.1367
   14MOL    H96 4282   3.294   4.609   5.521  0.4836  2.8282  0.5142
   14MOL    H97 4283   3.377   4.514   5.403  3.3865  2.0634 -1.0913
   14MOL    C98 4284   3.456   4.705   5.419 -0.0330 -0.0703  0.7339
   14MOL    C99 4285   3.415   4.848   5.469  0.5963 -0.7130  0.0293
   14MOL   C100 4286   3.377   4.868   5.602  0.3397 -0.4154 -0.4670
   14MOL   C101 4287   3.361   5.000   5.648  0.8407  0.4061  0.2610
   14MOL   C102 4288   3.356   5.109   5.558 -0.2897 -0.4004 -0.6312
   14MOL   F103 4289   3.316   5.228   5.602 -0.1438  0.0917 -0.1323
   14MOL   C104 4290   3.397   5.088   5.433  0.7347 -0.1350  0.7162
   14MOL   C105 4291   3.431   4.960   5.388  0.0510  0.0214  0.4012
   14MOL   C106 4292   3.563   4.636   5.506  0.4829  0.0517  0.2249
   14MOL   H107 4293   3.499   4.726   5.321 -1.5912  3.1971  0.6697
   14MOL   H108 4294   3.380   4.788   5.674  0.6543 -0.1964 -0.2354
   14MOL   H109 4295   3.343   5.019   5.753  2.3995  4.0945 -0.0741
   14MOL   H110 4296   3.404   5.172   5.365 -2.1092 -0.0206  0.5201
   14MOL   H111 4297   3.453   4.943   5.284 -0.3285  0.7526  0.2003
   14MOL   H112 4298   3.623   4.710   5.559  2.4040 -0.5345 -1.0800
   14MOL   H113 4299   3.522   4.572   5.584  3.4749  0.1546  1.9364
   14MOL   C114 4300   3.666   4.540   5.442  0.0001 -0.2175  0.2392
   14MOL   C115 4301   3.616   4.435   5.352  0.1554 -0.1409 -0.2218
   14MOL   C116 4302   3.557   4.319   5.402  0.0935  0.4481  0.2859
   14MOL   C117 4303   3.495   4.229   5.315  0.0284  0.6019  0.4658
   14MOL   C118 4304   3.510   4.246   5.175  0.1453 -0.2214 -0.6560
   14MOL   F119 4305   3.462   4.152   5.090  0.4196  0.0615  0.2610
   14MOL   C120 4306   3.564   4.366   5.124  0.0443  0.4125  0.4727
   14MOL   C121 4307   3.611   4.462   5.211  0.6546  0.1389 -0.3349
   14MOL   C122 4308   3.791   4.623   5.387 -0.0801 -0.1667  0.3185
   14MOL   H123 4309   3.713   4.480   5.519  0.8695  0.5917  0.3553
   14MOL   H124 4310   3.554   4.304   5.509 -0.6027  3.8988  0.7960
   14MOL   H125 4311   3.438   4.145   5.351 -1.7040  0.6626 -2.0268
   14MOL   H126 4312   3.574   4.386   5.018 -0.7176  2.2100  0.7266
   14MOL   H127 4313   3.653   4.553   5.172 -1.0792  1.4885  0.8147
   14MOL   H128 4314   3.854   4.552   5.333 -1.0475  2.1818 -4.1789
   14MOL   H129 4315   3.754   4.688   5.307  0.1416 -0.8451 -0.3510
   14MOL   C130 4316   3.876   4.713   5.481 -0.5046 -0.1837 -0.6286
   14MOL   C131 4317   3.910   4.639   5.614 -0.2557  0.1092  0.5100
   14MOL   C132 4318   3.833   4.656   5.736 -0.1596 -0.5184 -1.0542
   14MOL   C133 4319   3.867   4.583   5.852  0.0370  0.1893  0.0836
   14MOL   C134 4320   3.983   4.508   5.854  0.5622 -0.0004 -0.4461
   14MOL   F135 4321   4.017   4.438   5.966  0.1996 -0.3301 -0.0285
   14MOL   C136 4322   4.065   4.509   5.743 -0.7821  0.0638 -0.4380
   14MOL   C137 4323   4.030   4.566   5.624 -0.4058  0.0407 -0.0508
   14MOL   C138 4324   3.996   4.764   5.401 -0.9402 -0.4545 -0.2294
   14MOL   H139 4325   3.817   4.801   5.508 -1.6018 -1.1123  0.0363
   14MOL   H140 4326   3.740   4.712   5.738  0.8026  1.1344 -1.7430
   14MOL   H141 4327   3.804   4.590   5.940  0.8745  0.7186  0.6428
   14MOL   H142 4328   4.160   4.458   5.742 -0.7682  0.0899 -0.4279
   14MOL   H143 4329   4.093   4.555   5.537  0.2310  0.2170  0.3788
   14MOL   H144 4330   4.070   4.779   5.479 -0.4281  2.0335 -1.1462
   14MOL   H145 4331   4.042   4.692   5.333  0.7150  1.5016 -1.2439
   14MOL   C146 4332   3.961   4.896   5.332  0.3039 -0.0124 -0.5037
   14MOL   C147 4333   3.919   5.007   5.433 -0.0198 -0.2421 -0.2222
   14MOL   C148 4334   4.001   5.043   5.544 -0.1092  0.1053  0.1729
   14MOL   C149 4335   3.965   5.142   5.630  0.1770 -0.5454 -0.3633
   14MOL   C150 4336   3.842   5.203   5.611  0.1256 -0.6284  0.0036
   14MOL   F151 4337   3.810   5.311   5.682  1.0305  0.0358 -0.1731
   14MOL   C152 4338   3.755   5.158   5.518  0.0453  0.0452  0.3095
   14MOL   C153 4339   3.792   5.062   5.425 -0.4542  0.2920  0.5978
   14MOL   C154 4340   4.083   4.939   5.251  0.4082  0.4359 -0.2547
   14MOL   H155 4341   3.877   4.880   5.264 -1.4190  0.0520  1.5473
   14MOL   H156 4342   4.093   4.987   5.552 -0.0961  0.3901  2.3602
   14MOL   H157 4343   4.030   5.193   5.700 -1.0411  0.2942  0.1713
   14MOL   H158 4344   3.656   5.202   5.521 -0.3247 -0.8762  2.0058
   14MOL   H159 4345   3.725   5.030   5.347  1.2334 -2.2723  0.1345
   14MOL   H160 4346   4.171   4.943   5.316 -0.7871 -2.0896  1.6023
   14MOL   H161 4347   4.101   4.857   5.182  1.3071 -0.2174  0.7454
   14MOL   C162 4348   4.066   5.068   5.171  0.1052 -0.3156 -0.4431
   14MOL   C163 4349   4.143   5.183   5.224  0.0027 -0.7022  0.2082
   14MOL   C164 4350   4.081   5.288   5.295  1.0182 -0.0339 -0.0008
   14MOL   C165 4351   4.149   5.398   5.359 -0.4009 -0.0500  0.2658
   14MOL   C166 4352   4.293   5.399   5.349  0.9319  1.1168 -0.0550
   14MOL   F167 4353   4.364   5.499   5.384 -0.0459 -0.3953  0.0960
   14MOL   C168 4354   4.356   5.293   5.288 -0.2887  0.3799  0.0446
   14MOL   C169 4355   4.281   5.198   5.215 -0.2484  0.3413  0.4989
   14MOL   C170 4356   4.094   5.045   5.015 -0.5310  0.8482 -0.3395
   14MOL   H171 4357   3.959   5.088   5.181 -0.2887 -2.3900 -0.3635
   14MOL   H172 4358   3.973   5.291   5.294  1.0085  0.4583  1.9179
   14MOL   H173 4359   4.084   5.478   5.390 -0.3249 -0.5428  1.7387
   14MOL   H174 4360   4.462   5.292   5.268 -0.5987 -2.7133 -1.9203
   14MOL   H175 4361   4.336   5.123   5.159 -0.9692 -1.0043  1.5633
   14MOL   H176 4362   4.083   5.143   4.969 -1.1628  1.3425  0.8693
   14MOL   H177 4363   4.197   5.018   4.992 -1.0924 -0.0120 -1.9493
   14MOL   C178 4364   4.005   4.956   4.928  0.9374 -0.3661  0.5828
   14MOL   C179 4365   3.856   4.987   4.960 -0.0600 -0.0009 -0.7841
   14MOL   C180 4366   3.793   5.109   4.930 -0.0337 -0.8400 -0.2864
   14MOL   C181 4367   3.659   5.137   4.965  0.2205  0.1867  0.2704
   14MOL   C182 4368   3.588   5.052   5.051 -0.0878 -0.1876  0.3798
   14MOL   F183 4369   3.458   5.075   5.077 -0.6290  0.5760 -0.1666
   14MOL   C184 4370   3.650   4.926   5.078 -0.2039  0.3530 -0.5728
   14MOL   C185 4371   3.780   4.890   5.036  0.2618  0.1123 -0.1151
   14MOL   C186 4372   4.018   4.967   4.772 -0.2990  0.2463 -0.0670
   14MOL   H187 4373   4.028   4.857   4.968 -1.9237 -1.8350 -1.2440
   14MOL   H188 4374   3.842   5.181   4.865  2.6491 -0.9484  1.5417
   14MOL   H189 4375   3.612   5.228   4.930 -2.4623 -0.5091  1.9167
   14MOL   H190 4376   3.595   4.848   5.127  0.3987  0.4312  0.2361
   14MOL   H191 4377   3.810   4.792   5.072  2.4808  0.6736 -0.4015
   14MOL   H192 4378   3.947   4.894   4.734  0.6295 -0.4343 -0.5143
   14MOL   H193 4379   3.981   5.062   4.733  3.4428  1.4093 -0.9450
   14MOL   C194 4380   4.155   4.912   4.722 -1.0137 -0.5467 -0.0578
   14MOL   C195 4381   4.167   4.762   4.715 -0.0306  1.1542 -0.3287
   14MOL   C196 4382   4.070   4.680   4.651  0.6872  0.1676 -0.3778
   14MOL   C197 4383   4.086   4.542   4.661 -0.0962  0.8272  0.3607
   14MOL   C198 4384   4.206   4.481   4.713 -0.0820 -0.1865  0.3724
   14MOL   F199 4385   4.227   4.345   4.697  0.4312  0.0257 -0.0876
   14MOL   C200 4386   4.301   4.556   4.776 -0.0138 -0.0310 -0.0185
   14MOL   C201 4387   4.278   4.699   4.782 -0.8857  0.2602 -0.2631
   14MOL   C202 4388   4.197   4.975   4.590 -0.7168  0.0699  0.0429
   14MOL   H203 4389   4.230   4.951   4.789  2.4366 -1.7426 -3.0532
   14MOL   H204 4390   3.987   4.731   4.604  0.5098  1.5559  1.4051
   14MOL   H205 4391   4.018   4.471   4.616  0.3503  0.4703  0.2550
   14MOL   H206 4392   4.391   4.512   4.818  0.1631  3.0953  3.0246
   14MOL   H207 4393   4.352   4.760   4.832  2.8835 -1.6301 -3.1948
   14MOL   H208 4394   4.284   4.924   4.549  0.2227  2.1525 -0.5921
   14MOL   H209 4395   4.124   4.956   4.511  0.4700 -0.9993 -0.8167
   14MOL   C210 4396   4.237   5.125   4.583  0.6094  0.3081 -0.4546
   14MOL   C211 4397   4.350   5.159   4.683 -0.0036 -0.4323  0.6410
   14MOL   C212 4398   4.472   5.088   4.688 -0.2129 -0.2192  0.0791
   14MOL   C213 4399   4.566   5.124   4.784 -0.0857 -0.2672 -0.5383
   14MOL   C214 4400   4.542   5.227   4.876  0.5736 -0.0128  0.4138
   14MOL   F215 4401   4.642   5.259   4.956  0.4964 -0.2747  0.1286
   14MOL   C216 4402   4.420   5.295   4.879 -0.1459  0.2466  0.3788
   14MOL   C217 4403   4.326   5.260   4.779  0.5758 -0.1730 -0.4328
   14MOL   C218 4404   4.267   5.171   4.437 -0.3295  0.3153 -0.0558
   14MOL   H219 4405   4.152   5.182   4.619  1.1628  1.2231 -0.5774
   14MOL   H220 4406   4.496   5.003   4.627  2.1749 -0.3934  1.2234
   14MOL   H221 4407   4.663   5.078   4.797  0.7038  2.0991  2.4008
   14MOL   H222 4408   4.405   5.366   4.959 -1.2946 -0.6307  0.9540
   14MOL   H223 4409   4.235   5.319   4.776  0.6508  0.1040  2.0470
   14MOL   H224 4410   4.302   5.274   4.445 -0.3286  0.3550 -0.5058
   14MOL   H225 4411   4.344   5.105   4.396  0.1632 -0.3531  1.9309
   14MOL   C226 4412   4.136   5.185   4.340 -0.0297 -0.3267 -0.0543
   14MOL   C227 4413   4.033   5.270   4.411  0.7143  0.1248 -0.0467
   14MOL   C228 4414   4.024   5.412   4.394 -0.3917  0.2599 -0.1988
   14MOL   C229 4415   3.928   5.486   4.466 -0.8914  0.5058  0.0486
   14MOL   C230 4416   3.830   5.428   4.545 -0.2578  0.1915  0.5740
   14MOL   F231 4417   3.733   5.507   4.595  0.1371 -0.7693  0.4650
   14MOL   C232 4418   3.836   5.290   4.565 -0.7936 -0.4339  0.5294
   14MOL   C233 4419   3.930   5.216   4.493 -0.2510  0.9992 -0.6332
   14MOL   C234 4420   4.173   5.234   4.194  0.7685 -0.0399  0.0137
   14MOL   H235 4421   4.091   5.086   4.340 -2.2304  0.6043  2.3880
   14MOL   H236 4422   4.096   5.463   4.332  0.3446 -1.3162 -0.6696
   14MOL   H237 4423   3.930   5.593   4.451 -1.6058  0.8691  2.2572
   14MOL   H238 4424   3.760   5.242   4.625 -0.3576 -2.2853 -0.3917
   14MOL   H239 4425   3.928   5.108   4.496  2.3920  0.9219 -0.7391
   14MOL   H240 4426   4.217   5.333   4.209 -0.6518  0.9211 -1.8648
   14MOL   H241 4427   4.260   5.180   4.157 -0.4312 -2.1578  0.2426
   14MOL   C242 4428   4.056   5.247   4.083 -0.2417 -0.4549 -0.5005
   14MOL   C243 4429   4.072   5.367   3.991  0.2089  0.4594 -0.4649
   14MOL   C244 4430   4.013   5.495   4.031  0.2673 -0.6673  0.9447
   14MOL   C245 4431   4.027   5.614   3.952 -0.3788 -0.2928  0.3883
   14MOL   C246 4432   4.105   5.606   3.839 -0.1961 -0.2921 -0.2522
   14MOL   F247 4433   4.123   5.722   3.770 -0.4133 -0.5282  0.2223
   14MOL   C248 4434   4.166   5.484   3.795 -0.6168  0.5259 -0.1796
   14MOL   C249 4435   4.152   5.365   3.876  0.2840 -0.2477 -0.0139
   14MOL   C250 4436   4.041   5.116   3.998 -0.0688 -0.0156  0.3572
   14MOL   H251 4437   3.957   5.258   4.128  0.3619  0.6155  0.6113
   14MOL   H252 4438   3.947   5.496   4.116 -0.3515 -0.5814  0.4702
   14MOL   H253 4439   3.991   5.712   3.980 -1.1338 -0.4144 -0.1492
   14MOL   H254 4440   4.222   5.502   3.705  0.2962  2.6754  0.7678
   14MOL   H255 4441   4.216   5.278   3.866 -1.0061 -1.5095  2.5450
   14MOL   H256 4442   4.013   5.150   3.898 -2.7408 -0.6305  0.8455
   14MOL   H257 4443   4.139   5.073   3.982 -0.5396 -0.4983 -1.3768
   14MOL   C258 4444   3.934   5.016   4.050  0.1146 -0.1376 -0.4968
   14MOL   C259 4445   3.828   4.978   3.950  0.5205 -0.0609 -0.7584
   14MOL   C260 4446   3.692   4.965   3.996 -0.2495 -0.4047  0.3963
   14MOL   C261 4447   3.593   4.914   3.906 -0.1885 -1.0143  0.3444
   14MOL   C262 4448   3.625   4.887   3.772 -0.3533 -0.1573 -0.3305
   14MOL   F263 4449   3.519   4.844   3.691 -0.6292 -0.2710  0.1294
   14MOL   C264 4450   3.757   4.890   3.732 -0.3800  0.0243  0.2752
   14MOL   C265 4451   3.857   4.937   3.821  0.5211 -0.3640 -0.0822
   14MOL   C266 4452   4.001   4.890   4.113 -0.0924 -1.1169  0.0825
   14MOL   H267 4453   3.883   5.066   4.132  0.4370  1.2757 -1.1520
   14MOL   H268 4454   3.660   4.990   4.096  0.3497  2.6079 -0.1211
   14MOL   H269 4455   3.491   4.896   3.935 -0.9781  1.7374 -0.6186
   14MOL   H270 4456   3.776   4.844   3.636 -1.5846 -1.1865  0.5985
   14MOL   H271 4457   3.960   4.920   3.793  0.3003 -1.0021 -0.5114
   14MOL   H272 4458   4.050   4.850   4.024 -1.6123 -2.1320 -0.3136
   14MOL   H273 4459   4.076   4.914   4.189 -1.5217  0.8021  0.9187
   14MOL   C274 4460   3.912   4.771   4.165 -0.0459  0.0353  0.6953
   14MOL   C275 4461   3.990   4.643   4.165  0.5303  0.1370  0.2467
   14MOL   C276 4462   3.961   4.545   4.067 -0.7963  0.5469  0.2945
   14MOL   C277 4463   4.021   4.418   4.060 -0.0651  0.5065  0.9507
   14MOL   C278 4464   4.114   4.390   4.153  0.2817  0.5952  1.4703
   14MOL   F279 4465   4.180   4.266   4.156 -0.3838  0.1450 -0.0782
   14MOL   C280 4466   4.148   4.485   4.251 -0.4324  0.3214 -0.1975
   14MOL   C281 4467   4.087   4.610   4.255 -0.1313  0.1941 -0.5799
   14MOL   C282 4468   3.835   4.802   4.303 -0.1163  0.9525  0.9275
   14MOL   H283 4469   3.833   4.755   4.091  0.5966 -1.2274  0.2772
   14MOL   H284 4470   3.892   4.553   3.984  0.5854 -2.3441 -1.2188
   14MOL   H285 4471   4.002   4.343   3.985  0.6760  0.5820  0.6828
   14MOL   H286 4472   4.220   4.459   4.328  0.3668 -0.3750 -1.1543
   14MOL   H287 4473   4.126   4.678   4.329 -1.7737  0.2144  0.2901
   14MOL   H288 4474   3.907   4.821   4.382  0.4721  1.3483  0.3040
   14MOL   H289 4475   3.768   4.888   4.301  0.5889  1.5066  0.8947
   14MOL   C290 4476   3.754   4.679   4.356 -0.4467  0.1531  0.2009
   14MOL   C291 4477   3.724   4.692   4.503 -0.1100  0.2899  0.3205
   14MOL   C292 4478   3.645   4.791   4.560 -0.4359 -0.4932  0.3167
   14MOL   C293 4479   3.605   4.781   4.692 -0.0374  0.4746 -0.1246
   14MOL   C294 4480   3.635   4.666   4.766 -0.5133  0.6644  0.3037
   14MOL   F295 4481   3.596   4.652   4.892 -0.5151 -0.2523 -0.0678
   14MOL   C296 4482   3.698   4.559   4.706 -0.4215 -0.3022 -0.7289
   14MOL   C297 4483   3.742   4.576   4.578 -0.5729 -0.0608 -0.1125
   14MOL   C298 4484   3.627   4.655   4.271  0.1075  0.2097 -0.3555
   14MOL   H299 4485   3.815   4.590   4.345 -0.1707  0.3996 -0.2885
   14MOL   H300 4486   3.622   4.886   4.514 -0.9464  1.3445  4.1392
   14MOL   H301 4487   3.544   4.864   4.726  0.6029  0.9504 -0.1126
   14MOL   H302 4488   3.711   4.466   4.761 -0.6798 -1.9356 -3.3209
   14MOL   H303 4489   3.777   4.486   4.530 -0.4056  0.1073 -0.3027
   14MOL   H304 4490   3.553   4.709   4.330 -1.3242 -1.7248 -0.3338
   14MOL   H305 4491   3.629   4.696   4.171 -1.0942  0.8597 -0.1236
   14MOL   C306 4492   3.596   4.500   4.252 -0.4740 -0.1357  0.2571
   14MOL   C307 4493   3.459   4.465   4.301  0.2884 -0.1162 -0.3238
   14MOL   C308 4494   3.344   4.509   4.232  0.0075  0.2026  0.1980
   14MOL   C309 4495   3.215   4.500   4.290 -0.9265  0.0143  0.8578
   14MOL   C310 4496   3.197   4.433   4.406 -0.4224  0.8864 -0.4455
   14MOL   F311 4497   3.078   4.418   4.455  0.1183 -0.0785  0.3016
   14MOL   C312 4498   3.310   4.374   4.469 -0.5122  0.4199  0.5088
   14MOL   C313 4499   3.439   4.391   4.418 -0.4955  0.8645  0.1026
   14MOL   C314 4500   3.618   4.453   4.110 -0.0497 -0.5192 -0.1115
   14MOL   H315 4501   3.662   4.444   4.319  1.1853  2.0653  0.5294
   14MOL   H316 4502   3.346   4.563   4.138  2.8750 -0.5221 -0.2206
   14MOL   H317 4503   3.129   4.538   4.236 -0.3089  0.4887  0.2040
   14MOL   H318 4504   3.310   4.320   4.563  0.1748  1.0756  0.8997
   14MOL   H319 4505   3.525   4.347   4.466 -2.4235 -1.6976  1.3671
   14MOL   H320 4506   3.574   4.512   4.029 -1.1302 -1.8974 -0.5502
   14MOL   H321 4507   3.724   4.450   4.086 -0.5086 -2.7367 -2.0280
   14MOL   H322 4508   3.581   4.351   4.105 -1.6315 -0.0937  1.7619
   15MOL     C1 4509   7.241   7.198   1.050 -0.4477 -0.7905 -0.1304
   15MOL     C2 4510   7.183   7.217   0.906 -0.0052  0.5398  0.2781
   15MOL     C3 4511   7.268   7.239   0.796 -0.2031 -0.0863 -0.8288
   15MOL     C4 4512   7.216   7.276   0.669 -0.0038  0.0835 -1.5021
   15MOL     C5 4513   7.074   7.276   0.658  0.2504 -0.9380  0.0672
   15MOL     F6 4514   7.017   7.321   0.540 -0.2428  0.7593 -0.0782
   15MOL     C7 4515   6.991   7.241   0.768  0.1107  0.2945  0.6306
   15MOL     C8 4516   7.041   7.213   0.890 -0.2290  0.0128  0.0677
   15MOL     C9 4517   7.234   7.055   1.091 -0.4237 -0.1133  0.2827
   15MOL    H10 4518   7.178   7.258   1.116  0.2488  0.9876 -1.0533
   15MOL    H11 4519   7.374   7.247   0.815 -0.3171  0.7598 -0.5310
   15MOL    H12 4520   7.279   7.301   0.585  1.2824  0.3396 -0.4889
   15MOL    H13 4521   6.886   7.261   0.753  0.4559  1.7480  0.0728
   15MOL    H14 4522   6.971   7.188   0.968 -1.6314  0.4960 -1.0158
   15MOL    H15 4523   7.261   7.052   1.197  0.6308  0.0745  0.0175
   15MOL    H16 4524   7.134   7.010   1.085 -0.5258  0.3139 -1.5285
   15MOL    H17 4525   7.343   7.235   1.055 -0.0986 -1.8351  0.6409
   15MOL    C18 4526   7.331   6.956   1.011 -1.0204 -0.2902 -0.3097
   15MOL    C19 4527   7.472   6.981   1.064 -0.1358  1.3426  0.5352
   15MOL    C20 4528   7.522   6.925   1.188 -0.0086  0.8075 -0.2116
   15MOL    C21 4529   7.644   6.958   1.241  0.1300  0.5610 -0.3358
   15MOL    C22 4530   7.732   7.039   1.171  0.0438 -0.0942  0.3897
   15MOL    F23 4531   7.853   7.064   1.223  0.4701 -0.1227 -0.2562
   15MOL    C24 4532   7.691   7.090   1.050 -0.0087  0.0440 -0.3514
   15MOL    C25 4533   7.563   7.061   0.993 -0.2068 -0.6772  0.0306
   15MOL    C26 4534   7.303   6.807   1.035  0.1793  0.3463 -0.4252
   15MOL    H27 4535   7.325   6.980   0.905  0.8175  3.3247  0.3114
   15MOL    H28 4536   7.460   6.860   1.248 -0.0434  1.5600  0.5802
   15MOL    H29 4537   7.661   6.907   1.335  0.4155  0.6713 -0.3255
   15MOL    H30 4538   7.761   7.150   0.993  1.0557 -0.7632  0.0936
   15MOL    H31 4539   7.533   7.102   0.898 -1.5859 -2.0046 -0.1159
   15MOL    H32 4540   7.394   6.753   1.008 -0.6103  0.0954 -2.7234
   15MOL    H33 4541   7.294   6.784   1.141 -0.2993 -0.0824 -0.5539
   15MOL    C34 4542   7.198   6.731   0.969  0.1768 -0.7827 -0.3876
   15MOL    C35 4543   7.184   6.778   0.823 -0.5641 -0.4202 -0.0397
   15MOL    C36 4544   7.092   6.873   0.789 -0.0546 -0.6297 -0.1881
   15MOL    C37 4545   7.076   6.921   0.663  1.0738 -0.7251  0.2700
   15MOL    C38 4546   7.162   6.869   0.560  0.3504 -0.3196  0.0945
   15MOL    F39 4547   7.155   6.921   0.431  0.2499 -0.6503 -0.3490
   15MOL    C40 4548   7.262   6.772   0.585 -1.0503  0.1429 -0.7879
   15MOL    C41 4549   7.270   6.723   0.720 -0.0342  0.1968 -0.0562
   15MOL    C42 4550   7.218   6.573   0.994 -0.3062  0.3753  0.7644
   15MOL    H43 4551   7.107   6.760   1.023  0.3542  0.8397 -0.9101
   15MOL    H44 4552   7.030   6.915   0.868  0.1479 -3.0397  1.2922
   15MOL    H45 4553   7.019   7.010   0.642 -1.2904 -1.9419  1.3744
   15MOL    H46 4554   7.320   6.734   0.503 -0.3249 -0.9462  0.1998
   15MOL    H47 4555   7.337   6.641   0.742 -0.8745 -0.9211 -1.6001
   15MOL    H48 4556   7.321   6.554   0.966 -0.0126  2.8378 -0.0112
   15MOL    H49 4557   7.218   6.557   1.101  0.0994 -2.0538  0.4149
   15MOL    C50 4558   7.108   6.483   0.937  0.3313  0.0741  0.0857
   15MOL    C51 4559   7.147   6.338   0.963 -0.0349 -0.5334  0.7281
   15MOL    C52 4560   7.160   6.284   1.091 -0.1144 -0.4565 -0.5426
   15MOL    C53 4561   7.192   6.144   1.099 -0.0245 -0.1720  0.3876
   15MOL    C54 4562   7.227   6.068   0.985 -0.2356 -0.5461 -0.4470
   15MOL    F55 4563   7.280   5.947   1.003 -0.0116 -0.0180 -0.0895
   15MOL    C56 4564   7.211   6.124   0.857  0.6178 -1.0987  0.5194
   15MOL    C57 4565   7.166   6.261   0.846  0.0016 -0.0749  0.5326
   15MOL    C58 4566   6.971   6.512   0.987  0.1424 -0.3110  0.3464
   15MOL    H59 4567   7.102   6.509   0.831  1.4726  1.1651  0.2780
   15MOL    H60 4568   7.136   6.343   1.178  0.5843  0.8612 -1.2333
   15MOL    H61 4569   7.194   6.094   1.195 -0.1767 -1.5227 -0.3051
   15MOL    H62 4570   7.232   6.062   0.771 -2.4682 -2.0421  0.3638
   15MOL    H63 4571   7.158   6.298   0.745 -0.0736 -0.2210  0.4844
   15MOL    H64 4572   6.932   6.433   1.050  0.4525 -0.3147  0.5350
   15MOL    H65 4573   6.974   6.592   1.061  2.0984  0.1384 -0.1758
   15MOL    C66 4574   6.859   6.562   0.881  0.1193  0.8070  0.1719
   15MOL    C67 4575   6.777   6.438   0.838 -0.4436 -0.1803  0.7221
   15MOL    C68 4576   6.803   6.383   0.710  0.4027 -0.5213  0.4471
   15MOL    C69 4577   6.725   6.273   0.671  0.5463  0.7272 -0.2876
   15MOL    C70 4578   6.612   6.229   0.742  0.6955  0.6482 -0.3207
   15MOL    F71 4579   6.528   6.135   0.689 -0.3647  0.3810 -0.0346
   15MOL    C72 4580   6.586   6.281   0.870  0.1889 -0.1794 -0.2446
   15MOL    C73 4581   6.672   6.385   0.917  0.1832  0.4817  0.7334
   15MOL    C74 4582   6.762   6.670   0.929  0.1390 -0.6823 -0.3335
   15MOL    H75 4583   6.909   6.599   0.792  3.5629 -1.1511  1.2221
   15MOL    H76 4584   6.885   6.431   0.659 -0.7092  0.4471 -0.4337
   15MOL    H77 4585   6.754   6.222   0.580  0.3299  3.0634 -1.7175
   15MOL    H78 4586   6.500   6.256   0.930  0.8473 -0.7176  0.4861
   15MOL    H79 4587   6.651   6.429   1.013  1.2415  0.3764  1.0183
   15MOL    H80 4588   6.699   6.641   1.013  1.2697  1.9643  1.4927
   15MOL    H81 4589   6.824   6.758   0.947 -1.1442  0.3078 -0.6030
   15MOL    C82 4590   6.650   6.710   0.827  0.4585 -0.4542  0.5410
   15MOL    C83 4591   6.542   6.801   0.897 -0.3334  0.1423  0.1280
   15MOL    C84 4592   6.403   6.770   0.874 -0.3112  0.0513  0.5215
   15MOL    C85 4593   6.305   6.847   0.935  0.3277  0.4546  0.0657
   15MOL    C86 4594   6.338   6.954   1.018 -0.0349 -0.6477 -0.1661
   15MOL    F87 4595   6.246   7.023   1.091  0.0084 -0.0489 -0.0844
   15MOL    C88 4596   6.474   6.983   1.047  0.3852 -0.0496 -0.0163
   15MOL    C89 4597   6.580   6.907   0.987 -0.3393  0.3450  0.7725
   15MOL    C90 4598   6.708   6.768   0.699  0.2120 -0.0184 -1.0085
   15MOL    H91 4599   6.602   6.615   0.803 -0.0383 -0.1808  0.4348
   15MOL    H92 4600   6.386   6.688   0.806  0.5320 -0.1612  0.5581
   15MOL    H93 4601   6.198   6.838   0.926  0.2685  1.7756 -0.6514
   15MOL    H94 4602   6.504   7.067   1.108 -0.4304 -0.9793  1.7017
   15MOL    H95 4603   6.680   6.940   1.010  0.3400 -0.8542 -0.3801
   15MOL    H96 4604   6.665   6.868   0.691  0.5919  0.5018  2.5515
   15MOL    H97 4605   6.816   6.781   0.701  0.0762  0.9604  1.4484
   15MOL    C98 4606   6.659   6.696   0.572 -0.8589 -0.1589 -0.0598
   15MOL    C99 4607   6.510   6.692   0.558  0.0216 -0.0414 -0.0137
   15MOL   C100 4608   6.445   6.568   0.558  0.1373 -0.4391 -0.9302
   15MOL   C101 4609   6.297   6.555   0.567  0.0276 -0.2952 -0.4614
   15MOL   C102 4610   6.221   6.674   0.564 -0.8473 -0.2512 -0.7413
   15MOL   F103 4611   6.087   6.669   0.566  0.7993 -0.0333 -0.0599
   15MOL   C104 4612   6.281   6.799   0.548  0.0999  0.6179 -0.5773
   15MOL   C105 4613   6.423   6.808   0.548  0.5368 -0.3446  0.5243
   15MOL   C106 4614   6.730   6.754   0.449 -0.3183  0.3152  0.6554
   15MOL   H107 4615   6.698   6.594   0.577  0.3828  0.3035 -0.0757
   15MOL   H108 4616   6.503   6.477   0.559 -0.7955 -1.0336 -0.1716
   15MOL   H109 4617   6.259   6.454   0.569 -1.0588  0.1111 -0.4054
   15MOL   H110 4618   6.211   6.881   0.541 -0.4518  0.1791 -0.2729
   15MOL   H111 4619   6.464   6.908   0.546  0.3395 -0.2736  0.0348
   15MOL   H112 4620   6.700   6.854   0.419 -0.4599  0.0891  0.0458
   15MOL   H113 4621   6.837   6.766   0.461  0.0262 -1.9033 -0.0621
   15MOL   C114 4622   6.717   6.666   0.325 -0.0744 -0.3362 -0.2779
   15MOL   C115 4623   6.726   6.744   0.196  0.0441 -0.7481  0.2684
   15MOL   C116 4624   6.840   6.829   0.167  0.8543  0.1041 -0.1488
   15MOL   C117 4625   6.838   6.908   0.053  0.0263  0.4503 -0.3766
   15MOL   C118 4626   6.738   6.889   8.187 -0.2325 -0.7353  0.5608
   15MOL   F119 4627   6.738   6.967   8.074 -0.1480 -0.0644  0.2351
   15MOL   C120 4628   6.641   6.790   8.205  0.5317  0.2848  0.3818
   15MOL   C121 4629   6.629   6.726   0.096 -0.0617  0.4035  0.7174
   15MOL   C122 4630   6.830   6.557   0.330  0.4278  0.4901 -0.0962
   15MOL   H123 4631   6.614   6.630   0.327 -1.0220  2.2515  2.6150
   15MOL   H124 4632   6.912   6.838   0.247  1.5158 -1.3687 -0.5557
   15MOL   H125 4633   6.913   6.985   0.041  0.6490  0.5675  3.5829
   15MOL   H126 4634   6.564   6.774   8.131  1.3394 -0.0717 -0.3960
   15MOL   H127 4635   6.551   6.653   0.109 -0.1734  0.5162  0.6868
   15MOL   H128 4636   6.929   6.596   0.306  0.1851  1.6346  0.7436
   15MOL   H129 4637   6.838   6.531   0.435 -0.3397  1.2391  0.1589
   15MOL   C130 4638   6.809   6.445   0.220 -0.4429 -0.1741 -0.8025
   15MOL   C131 4639   6.928   6.351   0.219  0.4826  0.1020 -1.0308
   15MOL   C132 4640   6.982   6.315   0.097  0.2957 -0.7282 -0.1396
   15MOL   C133 4641   7.098   6.239   0.089  0.4444  0.0981 -0.5799
   15MOL   C134 4642   7.165   6.199   0.208  0.2135 -0.0481 -0.5490
   15MOL   F135 4643   7.288   6.133   0.205  0.5987  0.0418  0.4119
   15MOL   C136 4644   7.092   6.219   0.329 -0.4837 -0.3762  0.0963
   15MOL   C137 4645   6.977   6.296   0.335  0.9537  0.2135  0.1036
   15MOL   C138 4646   6.666   6.374   0.244  0.1275 -0.5134  0.4514
   15MOL   H139 4647   6.797   6.498   0.126  2.3359 -3.6315 -3.2387
   15MOL   H140 4648   6.929   6.341   0.006  0.6452 -2.2264 -0.7928
   15MOL   H141 4649   7.138   6.202   8.230 -1.0448 -0.1775 -1.1182
   15MOL   H142 4650   7.132   6.181   0.422 -0.0688 -0.3689 -0.0767
   15MOL   H143 4651   6.925   6.323   0.426  1.1232 -2.4158  1.0153
   15MOL   H144 4652   6.654   6.354   0.350  0.7802 -3.3457  0.0163
   15MOL   H145 4653   6.583   6.443   0.228 -0.2496 -1.0923 -0.0964
   15MOL   C146 4654   6.639   6.246   0.160  0.2455  0.2681  0.0046
   15MOL   C147 4655   6.694   6.120   0.233  0.3440 -0.1902 -0.0186
   15MOL   C148 4656   6.635   6.078   0.356 -0.8174  0.8585  0.1051
   15MOL   C149 4657   6.677   5.961   0.416 -0.0275  0.4756  0.2409
   15MOL   C150 4658   6.766   5.871   0.343 -0.4009  0.1685  0.3780
   15MOL   F151 4659   6.816   5.760   0.406  0.4538  0.1390  0.2509
   15MOL   C152 4660   6.817   5.907   0.221 -0.1637 -0.4209 -0.3362
   15MOL   C153 4661   6.782   6.037   0.165 -0.2796  0.2405 -0.3465
   15MOL   C154 4662   6.491   6.226   0.133 -0.4655  0.1958 -0.4504
   15MOL   H155 4663   6.695   6.257   0.068  1.4215  0.1283  0.6879
   15MOL   H156 4664   6.565   6.146   0.403 -0.4381  0.2272  1.6107
   15MOL   H157 4665   6.636   5.923   0.509  1.3307  0.2827  0.7792
   15MOL   H158 4666   6.898   5.852   0.177  1.1311  0.9762  0.2417
   15MOL   H159 4667   6.821   6.065   0.069  1.8969  1.5788  0.8862
   15MOL   H160 4668   6.465   6.120   0.132  2.6035 -0.6576  2.2613
   15MOL   H161 4669   6.428   6.268   0.211 -1.3053 -0.2594 -0.8783
   15MOL   C162 4670   6.441   6.296   0.002  0.2098 -0.0623  0.2700
   15MOL   C163 4671   6.522   6.243   8.111 -0.0614 -0.3360  0.2380
   15MOL   C164 4672   6.576   6.115   8.111 -0.0212 -0.3480  0.6219
   15MOL   C165 4673   6.654   6.078   8.000 -0.3044 -0.1530  0.8258
   15MOL   C166 4674   6.651   6.154   7.887 -0.4052 -0.3172 -0.5040
   15MOL   F167 4675   6.693   6.096   7.763 -0.9482  0.4765  0.2894
   15MOL   C168 4676   6.591   6.278   7.883  0.1448  0.7119  0.6133
   15MOL   C169 4677   6.518   6.327   7.996  0.2231  0.6475  0.2585
   15MOL   C170 4678   6.286   6.283   8.213 -0.0610 -0.1772  0.1779
   15MOL   H171 4679   6.472   6.399   0.016 -0.0464 -0.0956  1.1177
   15MOL   H172 4680   6.577   6.061   8.205  0.5542 -0.8856  0.3064
   15MOL   H173 4681   6.707   5.984   8.009 -1.1323 -0.7164 -0.1612
   15MOL   H174 4682   6.588   6.327   7.786 -0.7944 -0.4262  0.0536
   15MOL   H175 4683   6.471   6.424   7.988  0.0719  0.3514 -3.2573
   15MOL   H176 4684   6.269   6.301   8.107  2.2746  1.2115  0.0131
   15MOL   H177 4685   6.270   6.175   8.222  0.1788 -0.3125 -0.9209
   15MOL   C178 4686   6.201   6.365   0.074 -0.1299  0.1027  0.3949
   15MOL   C179 4687   6.229   6.509   0.072 -0.7648 -1.0338  0.4013
   15MOL   C180 4688   6.242   6.580   0.190  0.6005 -0.2825 -0.2872
   15MOL   C181 4689   6.253   6.718   0.199 -0.3117 -0.3475  0.3818
   15MOL   C182 4690   6.283   6.788   0.079  0.5320 -0.4083 -0.0937
   15MOL   F183 4691   6.317   6.915   0.080  0.2850 -0.4051  0.3746
   15MOL   C184 4692   6.285   6.720   8.188 -0.5294  0.7569  0.0099
   15MOL   C185 4693   6.251   6.581   8.181 -0.3248 -0.3629 -0.2590
   15MOL   C186 4694   6.053   6.340   0.044  0.0174  0.3278 -0.5860
   15MOL   H187 4695   6.220   6.321   0.171  1.0538 -1.7923 -0.6638
   15MOL   H188 4696   6.225   6.530   0.285 -0.1021  2.8388  1.2836
   15MOL   H189 4697   6.262   6.764   0.297  3.2763  0.1610 -0.1176
   15MOL   H190 4698   6.314   6.764   8.094 -1.1019  0.3292 -0.3682
   15MOL   H191 4699   6.248   6.513   8.098  2.8542 -1.0390  0.1203
   15MOL   H192 4700   6.003   6.426   0.090  0.8462  0.9478 -0.8345
   15MOL   H193 4701   6.029   6.346   8.172 -2.6172  2.3296  0.0443
   15MOL   C194 4702   5.998   6.213   0.116 -0.0328  0.2253  0.2764
   15MOL   C195 4703   6.019   6.226   0.273 -0.0776 -0.2127  0.6915
   15MOL   C196 4704   6.120   6.144   0.337 -0.3584  0.4822  0.5336
   15MOL   C197 4705   6.138   6.161   0.477  0.7339 -0.9494 -0.4308
   15MOL   C198 4706   6.067   6.254   0.549  0.3936 -0.6413 -0.8803
   15MOL   F199 4707   6.092   6.272   0.678  0.2363  0.3757  0.1413
   15MOL   C200 4708   5.970   6.339   0.487 -0.0694  0.0975  0.5285
   15MOL   C201 4709   5.951   6.325   0.346  0.2089 -0.3513  0.3584
   15MOL   C202 4710   5.848   6.186   0.076  0.1554  0.1811 -0.4679
   15MOL   H203 4711   6.060   6.129   0.083  0.1656  0.1505  0.8347
   15MOL   H204 4712   6.175   6.068   0.284 -0.7242  0.5949 -0.0114
   15MOL   H205 4713   6.204   6.099   0.535 -0.5816 -2.1256 -0.1614
   15MOL   H206 4714   5.910   6.409   0.543  1.1461  1.1590  0.5582
   15MOL   H207 4715   5.887   6.397   0.298 -0.8282 -1.5661 -0.1088
   15MOL   H208 4716   5.791   6.276   0.099  0.6219  1.1070 -2.7497
   15MOL   H209 4717   5.836   6.187   8.202 -0.2677 -2.9566 -0.5108
   15MOL   C210 4718   5.792   6.052   0.126 -0.0671 -1.4464 -0.5442
   15MOL   C211 4719   5.681   6.075   0.229  0.0164 -0.5347  0.1035
   15MOL   C212 4720   5.552   6.123   0.202  0.3643  0.2543  0.8704
   15MOL   C213 4721   5.459   6.156   0.304 -0.5561  0.4659  0.0543
   15MOL   C214 4722   5.495   6.147   0.436 -0.3856  0.7309 -0.2250
   15MOL   F215 4723   5.411   6.174   0.537 -0.1647 -0.1342  0.0120
   15MOL   C216 4724   5.629   6.103   0.464  0.6907 -0.3304 -0.4475
   15MOL   C217 4725   5.722   6.067   0.364  0.1411 -0.0880 -0.3931
   15MOL   C218 4726   5.747   5.953   0.014  0.1381  0.3765  0.5104
   15MOL   H219 4727   5.877   6.011   0.179 -0.1358 -0.7193  0.1315
   15MOL   H220 4728   5.506   6.132   0.104  2.5088  3.2479  0.0696
   15MOL   H221 4729   5.357   6.189   0.288 -0.9523  0.3708  2.1531
   15MOL   H222 4730   5.656   6.097   0.568 -1.1788 -0.6933  0.0392
   15MOL   H223 4731   5.820   6.029   0.388 -1.2465 -0.9163  4.6323
   15MOL   H224 4732   5.683   5.874   0.054  0.4141  0.5969  1.4120
   15MOL   H225 4733   5.669   6.004   8.192 -0.8105  2.4762  3.5429
   15MOL   C226 4734   5.855   5.901   8.157 -0.2181 -0.0777 -0.2533
   15MOL   C227 4735   5.964   5.834   0.003  0.7707  0.5233 -1.0513
   15MOL   C228 4736   5.936   5.720   0.083 -0.1076  0.1394 -0.1156
   15MOL   C229 4737   6.035   5.655   0.158  0.4621 -0.5863 -0.1049
   15MOL   C230 4738   6.168   5.698   0.142 -0.5746 -0.0176  0.4921
   15MOL   F231 4739   6.259   5.631   0.209 -0.4833 -0.1471  0.1204
   15MOL   C232 4740   6.201   5.810   0.069  0.0458 -0.5250 -0.0239
   15MOL   C233 4741   6.097   5.879   0.001 -0.4246  0.2678  0.1822
   15MOL   C234 4742   5.806   5.804   8.048 -0.2120 -0.6160  0.7781
   15MOL   H235 4743   5.897   5.989   8.106  1.3480 -0.3682  0.5056
   15MOL   H236 4744   5.834   5.685   0.077  0.1188 -1.0366  2.3146
   15MOL   H237 4745   6.005   5.572   0.220 -0.3540  0.9447  1.5917
   15MOL   H238 4746   6.303   5.842   0.061  0.0920 -0.5462  0.4935
   15MOL   H239 4747   6.128   5.967   8.181  1.2380 -0.0610  0.5840
   15MOL   H240 4748   5.730   5.741   8.095 -0.1418 -0.3904  1.1846
   15MOL   H241 4749   5.753   5.872   7.981  2.7515  0.2684 -0.7490
   15MOL   C242 4750   5.911   5.732   7.959 -1.0431  0.3051 -0.1031
   15MOL   C243 4751   5.844   5.625   7.865 -0.0832  0.5650 -0.1469
   15MOL   C244 4752   5.914   5.498   7.841  0.4205 -0.2885  0.5061
   15MOL   C245 4753   5.860   5.406   7.753  0.9154  0.3605  0.7556
   15MOL   C246 4754   5.734   5.423   7.701  0.9508  0.2163 -0.0757
   15MOL   F247 4755   5.673   5.321   7.629 -0.5898 -0.1100  0.5999
   15MOL   C248 4756   5.663   5.542   7.728  0.4315  0.5319 -0.2459
   15MOL   C249 4757   5.715   5.644   7.809 -0.1068  0.3471  0.0834
   15MOL   C250 4758   6.010   5.820   7.888  0.0908  0.6168  0.8028
   15MOL   H251 4759   5.972   5.676   8.030 -1.7516  1.1224  1.1516
   15MOL   H252 4760   6.009   5.481   7.890  1.2211 -0.7491 -1.1690
   15MOL   H253 4761   5.910   5.311   7.735  1.0568  0.3416  1.2245
   15MOL   H254 4762   5.568   5.556   7.678 -0.7298 -1.8145  1.2031
   15MOL   H255 4763   5.672   5.740   7.831 -1.3591 -0.2499  0.3035
   15MOL   H256 4764   5.962   5.844   7.793  4.0181  0.3669 -1.3522
   15MOL   H257 4765   6.027   5.911   7.945  0.7821  0.6151  0.5934
   15MOL   C258 4766   6.149   5.758   7.848  0.0008 -0.7442  0.2188
   15MOL   C259 4767   6.224   5.843   7.744  0.1494  0.0104  0.2096
   15MOL   C260 4768   6.308   5.946   7.779  0.3359  0.1063  0.0229
   15MOL   C261 4769   6.374   6.022   7.680  0.2198 -0.7149 -0.0393
   15MOL   C262 4770   6.342   6.007   7.545 -0.8847  0.2668  0.1441
   15MOL   F263 4771   6.394   6.090   7.451 -0.1213  0.5140  0.3432
   15MOL   C264 4772   6.259   5.904   7.504  0.9076  0.3364  0.9721
   15MOL   C265 4773   6.210   5.815   7.605  0.5047 -0.0306 -0.0008
   15MOL   C266 4774   6.249   5.716   7.959  0.0727 -0.8146 -0.5512
   15MOL   H267 4775   6.123   5.667   7.794  0.3659 -0.4000 -0.5424
   15MOL   H268 4776   6.336   5.962   7.883  0.6416  3.7084 -0.5493
   15MOL   H269 4777   6.424   6.114   7.709 -1.1931 -0.5947  2.0363
   15MOL   H270 4778   6.223   5.891   7.402  1.7069 -0.3859  0.7763
   15MOL   H271 4779   6.143   5.737   7.572 -0.5487  0.4546  0.9554
   15MOL   H272 4780   6.280   5.808   8.009  0.3670  0.2557 -2.6330
   15MOL   H273 4781   6.195   5.660   8.035 -2.0828  1.2312 -0.5150
   15MOL   C274 4782   6.382   5.649   7.914 -0.5637 -0.4457 -0.5542
   15MOL   C275 4783   6.472   5.630   8.028 -0.0299  0.8601 -0.2033
   15MOL   C276 4784   6.591   5.710   8.044  0.8572  0.0292  0.1560
   15MOL   C277 4785   6.664   5.713   8.160  0.7321  0.6024 -0.0860
   15MOL   C278 4786   6.613   5.638   0.036 -0.2131 -0.2046  0.6276
   15MOL   F279 4787   6.685   5.635   0.148 -0.1687 -0.0244  0.7204
   15MOL   C280 4788   6.509   5.549   0.024  0.5284 -0.2800 -0.6034
   15MOL   C281 4789   6.438   5.540   8.135 -0.0510  0.1652 -0.1798
   15MOL   C282 4790   6.360   5.516   7.829 -1.1334 -0.1125  0.3436
   15MOL   H283 4791   6.431   5.718   7.846  0.8453 -1.9755 -1.1503
   15MOL   H284 4792   6.624   5.782   7.970 -1.2722  2.0021  1.0698
   15MOL   H285 4793   6.747   5.780   8.179  1.2694 -0.0106 -0.2900
   15MOL   H286 4794   6.470   5.488   0.104  0.5037  1.5068  0.7875
   15MOL   H287 4795   6.356   5.470   8.121  0.2933 -0.1672 -0.5222
   15MOL   H288 4796   6.356   5.432   7.898 -0.9815  0.7036  1.3612
   15MOL   H289 4797   6.264   5.512   7.779 -0.5697 -0.3269 -0.7438
   15MOL   C290 4798   6.479   5.479   7.732  0.0568  0.8752 -0.2758
   15MOL   C291 4799   6.478   5.332   7.701  0.4635  0.4467  0.1614
   15MOL   C292 4800   6.361   5.277   7.643 -0.2243  0.5887 -0.2659
   15MOL   C293 4801   6.357   5.144   7.615  0.2038 -0.0545 -0.3206
   15MOL   C294 4802   6.459   5.052   7.654 -0.3385 -0.0208  0.5605
   15MOL   F295 4803   6.451   4.920   7.621  0.4205 -0.9832  0.0615
   15MOL   C296 4804   6.579   5.105   7.714  0.1285 -0.0711 -0.4767
   15MOL   C297 4805   6.583   5.243   7.738  0.2675 -0.0034 -0.4768
   15MOL   C298 4806   6.497   5.580   7.607 -0.3159 -0.1357 -0.0831
   15MOL   H299 4807   6.569   5.489   7.793 -0.2071  1.5284  0.0187
   15MOL   H300 4808   6.279   5.343   7.618  0.9084  1.9962 -0.2864
   15MOL   H301 4809   6.266   5.113   7.566 -0.7112 -0.3518  1.5257
   15MOL   H302 4810   6.662   5.043   7.744 -1.2242 -0.5616  2.4598
   15MOL   H303 4811   6.677   5.289   7.766 -0.5289  0.6517  1.2272
   15MOL   H304 4812   6.427   5.552   7.529 -1.0898  1.5814 -0.0397
   15MOL   H305 4813   6.459   5.679   7.633  0.0565  0.5973 -2.2369
   15MOL   C306 4814   6.648   5.600   7.573  0.0746  0.7693  0.4700
   15MOL   C307 4815   6.654   5.643   7.426 -0.5442  1.1853  0.2511
   15MOL   C308 4816   6.604   5.769   7.383  0.2744  0.4978  0.0789
   15MOL   C309 4817   6.583   5.788   7.243 -0.0731 -0.2113 -0.0759
   15MOL   C310 4818   6.624   5.695   7.145  1.2377  0.8810 -0.3659
   15MOL   F311 4819   6.605   5.713   7.016 -0.2755 -0.1250  0.6327
   15MOL   C312 4820   6.677   5.573   7.190  0.7567 -0.2730 -0.3477
   15MOL   C313 4821   6.696   5.551   7.327  0.3532  0.4463 -0.2806
   15MOL   C314 4822   6.710   5.710   7.665 -0.2464  0.1641  0.4827
   15MOL   H315 4823   6.702   5.506   7.587  0.7643  1.2074  0.7595
   15MOL   H316 4824   6.553   5.838   7.450  0.1937  0.3883  0.1299
   15MOL   H317 4825   6.524   5.872   7.210  0.5888 -0.1478 -1.1146
   15MOL   H318 4826   6.712   5.496   7.122  2.9210  1.0637 -0.7940
   15MOL   H319 4827   6.717   5.452   7.366  2.1017  1.9532  2.8097
   15MOL   H320 4828   6.811   5.746   7.642  0.8205 -2.8337  0.2037
   15MOL   H321 4829   6.651   5.799   7.650 -1.0736 -0.5912 -0.7752
   15MOL   H322 4830   6.692   5.683   7.769  0.0865 -0.0197  0.4937
   16MOL     C1 4831   6.844   4.039   0.280  0.4004  0.0551 -0.3842
   16MOL     C2 4832   6.940   4.144   0.220  0.1872  0.6110  0.1786
   16MOL     C3 4833   7.000   4.131   0.096 -0.6947 -0.3476  0.7227
   16MOL     C4 4834   7.085   4.234   0.044  0.4103 -0.9735  0.0094
   16MOL     C5 4835   7.104   4.354   0.116  0.1210  0.0062  0.3286
   16MOL     F6 4836   7.183   4.456   0.069  0.5564  0.2681  0.1685
   16MOL     C7 4837   7.033   4.375   0.233  0.4872  0.0635  0.1445
   16MOL     C8 4838   6.964   4.269   0.289  0.2026 -0.7068  0.4562
   16MOL     C9 4839   6.694   4.072   0.267 -0.1521  0.2693  0.3582
   16MOL    H10 4840   6.854   4.020   0.387 -0.3526  0.6933 -0.1925
   16MOL    H11 4841   6.974   4.050   0.028  1.5899  1.4625 -2.4688
   16MOL    H12 4842   7.141   4.212   8.189  1.6145  0.7862  0.3019
   16MOL    H13 4843   7.048   4.472   0.278  2.1334 -1.1617  2.3240
   16MOL    H14 4844   6.909   4.300   0.376 -0.4522 -1.0549  0.1689
   16MOL    H15 4845   6.633   4.005   0.327  0.4290  0.2997  0.9913
   16MOL    H16 4846   6.684   4.170   0.313  0.9440  0.6390 -0.1751
   16MOL    H17 4847   6.864   3.942   0.237 -0.8274 -0.2097 -0.3748
   16MOL    C18 4848   6.643   4.089   0.122 -0.6118  0.7884  0.1166
   16MOL    C19 4849   6.645   3.957   0.046  0.1545 -0.2182  0.6463
   16MOL    C20 4850   6.559   3.854   0.071 -0.4046  0.4119 -0.1260
   16MOL    C21 4851   6.580   3.730   8.233  0.0787 -0.5822  0.4428
   16MOL    C22 4852   6.672   3.722   8.127  0.4037 -0.2589  0.0147
   16MOL    F23 4853   6.680   3.601   8.066 -0.5441  0.5871 -0.0874
   16MOL    C24 4854   6.752   3.835   8.107  0.1724  0.4975 -0.1033
   16MOL    C25 4855   6.739   3.958   8.174  0.0353  0.2116 -0.3169
   16MOL    C26 4856   6.496   4.147   0.123  0.3140 -0.3437  0.3303
   16MOL    H27 4857   6.700   4.163   0.067 -0.0795  1.0388  1.0029
   16MOL    H28 4858   6.490   3.869   0.153 -0.2832 -1.2974  0.2932
   16MOL    H29 4859   6.517   3.650   0.034 -0.8811  0.8326  1.9857
   16MOL    H30 4860   6.818   3.834   8.022 -0.3373  0.2398 -0.4963
   16MOL    H31 4861   6.802   4.042   8.150 -1.8427  2.1621  1.4019
   16MOL    H32 4862   6.434   4.090   0.192 -1.3340  0.3270 -0.5830
   16MOL    H33 4863   6.499   4.239   0.181 -0.9593 -0.7662  1.0939
   16MOL    C34 4864   6.420   4.181   8.226  0.7035 -0.0301 -0.6894
   16MOL    C35 4865   6.274   4.220   0.024  0.0092  0.4743 -0.1769
   16MOL    C36 4866   6.161   4.167   8.189 -0.7058  0.6024 -0.1795
   16MOL    C37 4867   6.030   4.212   8.212  0.2228  0.0017  0.2872
   16MOL    C38 4868   6.010   4.321   0.063  0.9890 -0.4235  0.3352
   16MOL    F39 4869   5.880   4.371   0.075  0.8460 -0.2424 -0.4352
   16MOL    C40 4870   6.112   4.373   0.134  0.0595  0.7765  0.0449
   16MOL    C41 4871   6.246   4.325   0.112  0.7782 -0.7034  0.5679
   16MOL    C42 4872   6.485   4.300   8.145 -0.0241 -0.2332  0.2422
   16MOL    H43 4873   6.413   4.085   8.174 -3.5096 -0.7016  0.8956
   16MOL    H44 4874   6.193   4.100   8.111 -1.1088  2.5118 -2.0327
   16MOL    H45 4875   5.948   4.160   8.164 -1.7354  4.2914 -1.2603
   16MOL    H46 4876   6.102   4.460   0.197 -0.2527  0.4714  0.4177
   16MOL    H47 4877   6.321   4.380   0.168  1.0261 -1.3033  0.8378
   16MOL    H48 4878   6.468   4.389   8.205  0.8771  0.7225 -0.8802
   16MOL    H49 4879   6.591   4.286   8.124  0.1084  0.5555  0.3722
   16MOL    C50 4880   6.425   4.316   8.003  0.6656 -0.1521 -0.1369
   16MOL    C51 4881   6.389   4.463   7.982  0.0332 -0.1718 -0.1475
   16MOL    C52 4882   6.479   4.556   7.936 -0.1999 -0.1979 -0.3961
   16MOL    C53 4883   6.435   4.687   7.893  0.4555 -0.1043 -0.3134
   16MOL    C54 4884   6.296   4.715   7.901  0.0853 -0.1353  0.1081
   16MOL    F55 4885   6.250   4.830   7.849  0.1477  0.4353 -0.0389
   16MOL    C56 4886   6.208   4.624   7.959  0.4018  0.1755  0.3522
   16MOL    C57 4887   6.254   4.500   8.008 -0.4589 -0.5534  0.8305
   16MOL    C58 4888   6.509   4.259   7.884 -0.8212 -0.5250 -0.3325
   16MOL    H59 4889   6.326   4.271   8.008  0.3169  0.7819  2.6616
   16MOL    H60 4890   6.584   4.532   7.922 -0.8817 -3.0352 -1.0206
   16MOL    H61 4891   6.498   4.762   7.847  2.7731 -0.8097  1.6064
   16MOL    H62 4892   6.104   4.654   7.963  0.4884  0.7878 -1.7050
   16MOL    H63 4893   6.176   4.435   8.045 -2.1091 -0.6379 -2.6089
   16MOL    H64 4894   6.476   4.305   7.791  0.3557 -0.1556 -0.5778
   16MOL    H65 4895   6.607   4.305   7.898 -2.4529  2.0606  3.3982
   16MOL    C66 4896   6.515   4.106   7.866 -0.1470  0.5712  0.6542
   16MOL    C67 4897   6.380   4.028   7.875 -0.0930 -0.3694 -0.2343
   16MOL    C68 4898   6.368   3.924   7.967 -0.1778 -0.5970  0.1726
   16MOL    C69 4899   6.251   3.849   7.975  0.5820 -0.5782  0.4504
   16MOL    C70 4900   6.144   3.872   7.877 -0.4222 -0.1904 -0.5721
   16MOL    F71 4901   6.027   3.809   7.895  0.0663  0.8811  0.1489
   16MOL    C72 4902   6.161   3.971   7.782 -0.2013  0.0198 -0.4497
   16MOL    C73 4903   6.280   4.054   7.782  0.5279 -0.0802 -0.0690
   16MOL    C74 4904   6.587   4.089   7.723  0.6953 -0.3068 -0.4374
   16MOL    H75 4905   6.587   4.075   7.942 -2.0312 -1.3478  1.6955
   16MOL    H76 4906   6.454   3.893   8.026  0.4287  0.4298 -0.1517
   16MOL    H77 4907   6.231   3.780   8.055 -1.5178 -0.4260  0.1032
   16MOL    H78 4908   6.080   3.994   7.714  0.2797  2.7623 -0.1486
   16MOL    H79 4909   6.297   4.132   7.710  0.4182  0.8466  0.9074
   16MOL    H80 4910   6.545   4.162   7.654  2.6790  1.0556 -0.2284
   16MOL    H81 4911   6.686   4.127   7.747 -0.0275  0.1801  1.9492
   16MOL    C82 4912   6.601   3.949   7.658 -0.1204 -0.6294  0.0352
   16MOL    C83 4913   6.671   3.975   7.524 -0.7492 -0.9037  0.5049
   16MOL    C84 4914   6.815   3.990   7.521  0.0079 -0.4247  0.2400
   16MOL    C85 4915   6.885   4.021   7.400 -0.0781 -0.5664  0.1581
   16MOL    C86 4916   6.812   4.031   7.280  0.3544  0.2455 -0.3528
   16MOL    F87 4917   6.875   4.054   7.171 -0.3514  0.2354  0.3749
   16MOL    C88 4918   6.672   4.011   7.281 -0.2609  0.0313 -0.4657
   16MOL    C89 4919   6.602   3.982   7.399 -0.2036  0.6243  0.2272
   16MOL    C90 4920   6.670   3.840   7.740  0.4840 -0.0113 -0.3842
   16MOL    H91 4921   6.503   3.911   7.630 -1.0728  0.3118  1.9580
   16MOL    H92 4922   6.868   3.998   7.615 -0.5564  1.3388  0.4336
   16MOL    H93 4923   6.987   4.056   7.408 -0.9316  2.2863 -0.7136
   16MOL    H94 4924   6.607   4.016   7.196  0.0974  2.4114 -0.6314
   16MOL    H95 4925   6.495   3.975   7.399 -0.1733 -0.0533  1.9379
   16MOL    H96 4926   6.778   3.855   7.737  0.7654 -1.6346  0.6958
   16MOL    H97 4927   6.644   3.841   7.845  0.3020 -1.7841 -0.3872
   16MOL    C98 4928   6.636   3.702   7.691  0.1797  0.0024  0.5477
   16MOL    C99 4929   6.757   3.613   7.709 -0.0453 -0.1997  1.3667
   16MOL   C100 4930   6.771   3.512   7.809  0.2915 -0.2556  0.2338
   16MOL   C101 4931   6.893   3.446   7.821  0.1867 -0.4448 -0.0691
   16MOL   C102 4932   6.998   3.472   7.735  0.3576 -0.0609  0.4202
   16MOL   F103 4933   7.108   3.400   7.747 -0.1579  0.3313 -0.5556
   16MOL   C104 4934   6.984   3.558   7.625 -0.1493  0.7261 -0.1047
   16MOL   C105 4935   6.861   3.627   7.612  0.0976  0.1548 -0.3408
   16MOL   C106 4936   6.499   3.646   7.740  0.3249 -0.1073  0.2973
   16MOL   H107 4937   6.625   3.708   7.583 -0.9146 -2.5934  0.4878
   16MOL   H108 4938   6.682   3.482   7.862  0.3233  2.7372  2.0420
   16MOL   H109 4939   6.904   3.382   7.908 -0.7465  1.2148  1.3136
   16MOL   H110 4940   7.061   3.580   7.553  1.4221  2.0312  1.9091
   16MOL   H111 4941   6.851   3.700   7.533  0.5611 -1.7826 -2.2352
   16MOL   H112 4942   6.517   3.624   7.845  2.2031 -2.2336 -0.4281
   16MOL   H113 4943   6.423   3.724   7.739 -1.3018 -1.6706 -0.7613
   16MOL   C114 4944   6.455   3.509   7.667  0.5723  0.2754  0.0348
   16MOL   C115 4945   6.336   3.442   7.738 -0.9407  0.2372 -0.2754
   16MOL   C116 4946   6.333   3.301   7.761 -0.6574  0.3436  0.3762
   16MOL   C117 4947   6.214   3.246   7.813  0.4415 -0.1898  0.0691
   16MOL   C118 4948   6.104   3.318   7.846  0.9001 -0.1102  0.8665
   16MOL   F119 4949   5.993   3.258   7.881  0.0246 -0.1879  0.2429
   16MOL   C120 4950   6.115   3.457   7.827  0.4180 -0.4978  0.4249
   16MOL   C121 4951   6.223   3.522   7.773 -0.3107  0.0315 -0.2171
   16MOL   C122 4952   6.448   3.519   7.515  0.4148  0.7473 -0.5024
   16MOL   H123 4953   6.536   3.437   7.683  0.2853 -0.1414 -0.3781
   16MOL   H124 4954   6.421   3.240   7.747 -0.7787  0.2331  0.0874
   16MOL   H125 4955   6.205   3.138   7.820  1.7980 -0.3411 -0.3751
   16MOL   H126 4956   6.032   3.522   7.852  1.0884  0.6107 -0.2202
   16MOL   H127 4957   6.214   3.629   7.756  0.3655 -0.3103 -3.0726
   16MOL   H128 4958   6.371   3.452   7.476 -0.8990  2.2693 -0.5850
   16MOL   H129 4959   6.402   3.616   7.499  0.3477  0.4792 -1.9657
   16MOL   C130 4960   6.574   3.498   7.423  0.6117 -0.1844  0.5584
   16MOL   C131 4961   6.600   3.347   7.417  0.3595 -0.3409  0.5526
   16MOL   C132 4962   6.516   3.258   7.337 -0.0242 -0.0119  0.3846
   16MOL   C133 4963   6.544   3.118   7.336  0.5076 -0.3221  0.3373
   16MOL   C134 4964   6.649   3.069   7.417  0.0338  0.6851  0.2071
   16MOL   F135 4965   6.677   2.935   7.409 -0.1751 -0.2624  0.1438
   16MOL   C136 4966   6.730   3.153   7.501  0.6400 -0.3845  0.1898
   16MOL   C137 4967   6.706   3.294   7.499  0.1743  0.3310 -0.1045
   16MOL   C138 4968   6.535   3.571   7.283 -0.2524  0.3313 -0.2980
   16MOL   H139 4969   6.668   3.543   7.454  0.2181  1.6722 -0.8376
   16MOL   H140 4970   6.436   3.296   7.276 -1.3083 -2.1231  0.7152
   16MOL   H141 4971   6.476   3.058   7.277  1.0462  0.2307 -0.8461
   16MOL   H142 4972   6.812   3.112   7.559  0.4786 -2.1551 -0.7999
   16MOL   H143 4973   6.758   3.363   7.564  0.9013  0.0402 -0.3771
   16MOL   H144 4974   6.438   3.531   7.254 -0.2991 -0.3958  0.8411
   16MOL   H145 4975   6.506   3.676   7.291 -2.0004 -0.1572 -0.1016
   16MOL   C146 4976   6.635   3.547   7.168  0.2857  0.5777 -0.7735
   16MOL   C147 4977   6.582   3.608   7.040  0.4813 -0.2528 -0.2968
   16MOL   C148 4978   6.553   3.529   6.919  0.5032  0.7014  0.5151
   16MOL   C149 4979   6.503   3.594   6.807 -0.3305  0.0687 -0.4312
   16MOL   C150 4980   6.483   3.732   6.805  0.2873  0.5205 -0.3656
   16MOL   F151 4981   6.425   3.784   6.692 -0.1828  0.2913  0.2318
   16MOL   C152 4982   6.523   3.811   6.917 -0.6819 -0.2895  0.6457
   16MOL   C153 4983   6.570   3.750   7.033  0.6507  1.0895 -0.1372
   16MOL   C154 4984   6.774   3.591   7.198  0.1791 -0.3201 -0.5978
   16MOL   H155 4985   6.637   3.440   7.148 -1.3595  0.2264  0.8344
   16MOL   H156 4986   6.573   3.423   6.917 -1.1584  0.3927 -0.7972
   16MOL   H157 4987   6.467   3.532   6.726  0.2939  1.6953 -2.0087
   16MOL   H158 4988   6.515   3.919   6.916 -1.2719 -0.2921  2.5900
   16MOL   H159 4989   6.596   3.819   7.112  0.2913  1.5295 -0.4018
   16MOL   H160 4990   6.768   3.688   7.248 -3.6292 -0.5365 -0.5075
   16MOL   H161 4991   6.822   3.525   7.270 -1.4024 -0.7730  0.0576
   16MOL   C162 4992   6.870   3.591   7.071 -0.4147 -0.2353  0.1499
   16MOL   C163 4993   7.010   3.638   7.116  0.1855 -0.4972 -0.2096
   16MOL   C164 4994   7.030   3.775   7.104  0.4093  0.3724  0.2319
   16MOL   C165 4995   7.150   3.828   7.161  0.1433 -0.1523 -0.0424
   16MOL   C166 4996   7.241   3.746   7.237  0.0079  0.5242 -0.6389
   16MOL   F167 4997   7.350   3.810   7.295  0.1383  0.2336  0.4222
   16MOL   C168 4998   7.216   3.612   7.248 -0.1161 -0.2398  0.6140
   16MOL   C169 4999   7.103   3.553   7.186  0.0187  0.3596 -0.5507
   16MOL   C170 5000   6.884   3.450   7.004 -0.2534  0.0062  0.4675
   16MOL   H171 5001   6.835   3.671   7.006 -0.0575  0.7574  1.1729
   16MOL   H172 5002   6.957   3.842   7.061 -0.0275 -0.7919 -0.9006
   16MOL   H173 5003   7.163   3.934   7.148  1.8033 -0.1274  1.5622
   16MOL   H174 5004   7.276   3.547   7.309  0.1981 -2.2231 -1.7319
   16MOL   H175 5005   7.082   3.448   7.200  0.9817  0.2255 -0.0613
   16MOL   H176 5006   6.900   3.372   7.079  0.6755 -0.8281 -0.5741
   16MOL   H177 5007   6.789   3.413   6.966  0.5202 -1.2720 -0.2624
   16MOL   C178 5008   6.974   3.433   6.885 -0.0802 -0.2656  0.0077
   16MOL   C179 5009   6.979   3.293   6.838 -0.7118 -0.4670  0.1863
   16MOL   C180 5010   7.097   3.215   6.850 -0.6370  0.8991 -0.3557
   16MOL   C181 5011   7.104   3.082   6.797  0.1346 -0.3953  0.3670
   16MOL   C182 5012   6.990   3.023   6.738  0.3775  0.4203  0.1039
   16MOL   F183 5013   6.981   2.890   6.704 -0.1360  0.0051  0.0447
   16MOL   C184 5014   6.871   3.100   6.742 -0.7769 -0.3215 -0.1607
   16MOL   C185 5015   6.866   3.234   6.784 -0.1604  1.0247  0.3051
   16MOL   C186 5016   6.935   3.522   6.758 -0.0219 -1.0134 -0.3708
   16MOL   H187 5017   7.076   3.451   6.919 -0.3638 -1.1598  1.3605
   16MOL   H188 5018   7.187   3.261   6.887 -1.3243  2.0786 -0.1236
   16MOL   H189 5019   7.188   3.014   6.802 -0.7853 -1.6495 -0.7621
   16MOL   H190 5020   6.789   3.052   6.691 -0.4583 -0.4427 -0.5592
   16MOL   H191 5021   6.774   3.290   6.785 -0.7529  0.0544  0.5573
   16MOL   H192 5022   6.953   3.456   6.673 -0.2052 -1.6600  0.0924
   16MOL   H193 5023   6.829   3.543   6.764 -0.3988 -2.7826 -0.5838
   16MOL   C194 5024   7.013   3.656   6.741 -0.6548  0.1521 -0.1974
   16MOL   C195 5025   7.165   3.633   6.755 -0.6135  0.1303  0.2520
   16MOL   C196 5026   7.243   3.694   6.857  0.1604  0.1301  0.6032
   16MOL   C197 5027   7.381   3.659   6.862  0.5650  0.4187  0.2501
   16MOL   C198 5028   7.440   3.574   6.767  0.6933 -0.8358  0.6779
   16MOL   F199 5029   7.571   3.546   6.785 -0.2301  0.3709 -0.3408
   16MOL   C200 5030   7.364   3.514   6.667 -0.0051  0.1435  0.3765
   16MOL   C201 5031   7.228   3.533   6.676  0.1202 -0.4947 -0.0785
   16MOL   C202 5032   6.968   3.724   6.607 -0.6206 -0.5890 -0.5851
   16MOL   H203 5033   6.977   3.715   6.824 -0.5174 -0.1435  0.0745
   16MOL   H204 5034   7.189   3.762   6.921 -2.0238 -1.4920  0.5094
   16MOL   H205 5035   7.444   3.706   6.936 -0.7782  2.1715  0.3070
   16MOL   H206 5036   7.407   3.439   6.602  0.4342  0.5771  0.1653
   16MOL   H207 5037   7.159   3.481   6.612  1.0815  0.6419 -2.1068
   16MOL   H208 5038   7.001   3.669   6.518  3.8834 -0.5553  0.9221
   16MOL   H209 5039   6.861   3.706   6.606 -0.2858 -2.8484  1.3698
   16MOL   C210 5040   6.996   3.867   6.576  0.1577 -0.2882 -1.1418
   16MOL   C211 5041   6.907   3.958   6.670 -0.5812 -0.2760  0.2731
   16MOL   C212 5042   6.767   3.958   6.646  0.4904  0.6791  0.7921
   16MOL   C213 5043   6.682   4.035   6.727 -0.3852 -0.3142  0.6017
   16MOL   C214 5044   6.735   4.118   6.824 -0.2246  0.0754 -0.1950
   16MOL   F215 5045   6.659   4.183   6.907 -0.2911 -0.1473 -1.1193
   16MOL   C216 5046   6.872   4.118   6.840 -0.1872  0.7926  0.4173
   16MOL   C217 5047   6.960   4.031   6.771 -0.0162 -0.1869  0.3665
   16MOL   C218 5048   7.147   3.905   6.567 -0.4452 -0.0239 -0.5774
   16MOL   H219 5049   6.944   3.895   6.484  1.8788 -1.4137 -2.4617
   16MOL   H220 5050   6.733   3.889   6.569  1.2162  1.3898 -0.1736
   16MOL   H221 5051   6.581   4.045   6.690 -0.8488 -0.7987  1.7166
   16MOL   H222 5052   6.908   4.176   6.923 -0.6119  2.9910 -0.8879
   16MOL   H223 5053   7.065   4.035   6.798 -0.2430  1.6125  1.0258
   16MOL   H224 5054   7.201   3.885   6.660 -0.8076 -1.1944 -0.6124
   16MOL   H225 5055   7.200   3.832   6.506 -0.1506  0.5171 -0.9763
   16MOL   C226 5056   7.174   4.045   6.501 -0.2196  0.1573  0.1006
   16MOL   C227 5057   7.213   4.153   6.595 -0.2464  0.1154 -0.1985
   16MOL   C228 5058   7.329   4.147   6.674  0.5082  0.4018  0.2838
   16MOL   C229 5059   7.368   4.257   6.748 -0.2093 -0.0918 -0.0141
   16MOL   C230 5060   7.304   4.378   6.734 -0.3240  0.7600  0.0008
   16MOL   F231 5061   7.341   4.478   6.814 -0.3152 -0.7764 -0.0951
   16MOL   C232 5062   7.193   4.391   6.654  0.6397 -0.2360 -0.0843
   16MOL   C233 5063   7.141   4.278   6.584 -0.4098 -0.2917  0.3879
   16MOL   C234 5064   7.256   4.049   6.365 -0.4190 -0.0874 -0.1715
   16MOL   H235 5065   7.079   4.070   6.454 -1.1843 -2.7828  0.4416
   16MOL   H236 5066   7.381   4.054   6.689  1.2532  0.8180  0.2927
   16MOL   H237 5067   7.440   4.252   6.828 -0.5047 -0.0200  0.2581
   16MOL   H238 5068   7.135   4.483   6.652 -0.2287 -0.7897 -0.7508
   16MOL   H239 5069   7.046   4.277   6.533  0.5686  1.8689 -1.5901
   16MOL   H240 5070   7.292   4.151   6.349  0.6233 -0.2477  1.0817
   16MOL   H241 5071   7.349   3.993   6.372 -0.3909  0.0427  0.4630
   16MOL   C242 5072   7.171   4.016   6.235 -0.2881  0.0740  0.5306
   16MOL   C243 5073   7.070   4.120   6.187 -0.5092 -0.3008 -0.8584
   16MOL   C244 5074   7.067   4.253   6.236 -0.4080  0.1756  0.8266
   16MOL   C245 5075   6.973   4.340   6.184 -0.3999 -0.9914  0.0567
   16MOL   C246 5076   6.876   4.303   6.095  0.6096 -0.2864 -0.2637
   16MOL   F247 5077   6.779   4.386   6.057 -0.3163  0.1047  0.0983
   16MOL   C248 5078   6.880   4.173   6.045  0.1007  0.2645 -0.1548
   16MOL   C249 5079   6.972   4.079   6.094 -0.2423  0.1674 -0.0713
   16MOL   C250 5080   7.264   3.964   6.126 -0.6559  0.0825 -0.1509
   16MOL   H251 5081   7.111   3.931   6.268  0.1245 -0.2178  0.5360
   16MOL   H252 5082   7.140   4.292   6.304  0.4034  1.8786 -0.9536
   16MOL   H253 5083   6.957   4.441   6.218 -1.7327 -1.1141 -0.1586
   16MOL   H254 5084   6.806   4.134   5.976  0.5575 -1.3105  0.2308
   16MOL   H255 5085   6.973   3.979   6.054 -0.2133 -1.0114  2.7904
   16MOL   H256 5086   7.205   3.950   6.035 -0.8731  2.7459 -0.4556
   16MOL   H257 5087   7.337   4.043   6.111 -0.4424  0.0196  0.5392
   16MOL   C258 5088   7.329   3.818   6.141 -0.9062 -0.0736 -0.3118
   16MOL   C259 5089   7.221   3.711   6.137 -0.1006 -0.0836 -0.6269
   16MOL   C260 5090   7.175   3.647   6.252  0.6255  0.6419  0.7339
   16MOL   C261 5091   7.079   3.544   6.250  0.2319 -0.6236 -0.7666
   16MOL   C262 5092   7.024   3.503   6.128 -0.4768  0.0180  0.3758
   16MOL   F263 5093   6.939   3.395   6.110  0.3839 -0.0181  0.1296
   16MOL   C264 5094   7.073   3.561   6.013 -0.0226  0.6401  0.3071
   16MOL   C265 5095   7.169   3.669   6.013  0.3966 -0.1031 -0.1311
   16MOL   C266 5096   7.439   3.792   6.035 -0.3279  0.5865 -0.5044
   16MOL   H267 5097   7.380   3.813   6.237 -0.7830  0.3063 -0.3542
   16MOL   H268 5098   7.209   3.677   6.350  1.0941 -0.7128  0.9973
   16MOL   H269 5099   7.047   3.503   6.344  2.1835  0.0417  0.2186
   16MOL   H270 5100   7.023   3.526   5.924  0.5540  0.3514  0.0942
   16MOL   H271 5101   7.196   3.723   5.924 -1.3799  1.7356  0.3949
   16MOL   H272 5102   7.389   3.818   5.941 -1.8414  2.0887  0.6825
   16MOL   H273 5103   7.510   3.871   6.061 -1.0153  0.7781  0.7938
   16MOL   C274 5104   7.500   3.647   6.034 -0.0727  0.5976 -0.2848
   16MOL   C275 5105   7.549   3.609   5.895 -0.3011 -0.2281 -0.2134
   16MOL   C276 5106   7.462   3.546   5.804 -0.0772  0.6731  0.4295
   16MOL   C277 5107   7.507   3.506   5.682 -0.0581  0.6606  0.5237
   16MOL   C278 5108   7.637   3.519   5.642  0.1669  0.4693  0.0883
   16MOL   F279 5109   7.692   3.466   5.524 -0.4153 -0.7228 -0.1368
   16MOL   C280 5110   7.721   3.590   5.722 -0.3337 -0.1191 -0.0494
   16MOL   C281 5111   7.674   3.649   5.840  0.7543 -0.1577  0.0171
   16MOL   C282 5112   7.608   3.629   6.152  0.5590  0.7020 -0.1955
   16MOL   H283 5113   7.421   3.575   6.054 -0.4427  1.0155 -0.2277
   16MOL   H284 5114   7.361   3.520   5.832 -1.6778  3.6797 -2.2581
   16MOL   H285 5115   7.435   3.456   5.618  0.2738 -1.1280  1.5152
   16MOL   H286 5116   7.817   3.624   5.685 -0.1713  0.3863  0.8136
   16MOL   H287 5117   7.740   3.704   5.906  0.9247  2.3520 -2.1712
   16MOL   H288 5118   7.694   3.693   6.137  1.2213  0.1224  1.0547
   16MOL   H289 5119   7.569   3.678   6.241 -1.5560  2.5211 -2.0471
   16MOL   C290 5120   7.630   3.474   6.189  0.0537  0.3453 -0.1775
   16MOL   C291 5121   7.691   3.396   6.073  0.9810 -0.0509  0.4546
   16MOL   C292 5122   7.821   3.417   6.029  0.6606 -0.1691 -0.0456
   16MOL   C293 5123   7.878   3.330   5.930  0.4187  0.3229  0.7241
   16MOL   C294 5124   7.798   3.224   5.875  0.1392 -0.0686  0.6006
   16MOL   F295 5125   7.840   3.160   5.763  0.3438  0.3487 -0.2803
   16MOL   C296 5126   7.675   3.188   5.932  0.1949  0.7314  0.3134
   16MOL   C297 5127   7.620   3.279   6.022 -0.1173  1.1316  0.2100
   16MOL   C298 5128   7.717   3.448   6.320  0.4900 -0.7271  0.4047
   16MOL   H299 5129   7.529   3.436   6.202  0.6005 -1.4880 -1.1718
   16MOL   H300 5130   7.874   3.503   6.070  1.8303 -0.5877 -0.6514
   16MOL   H301 5131   7.975   3.351   5.886  0.4012 -0.5089  0.2599
   16MOL   H302 5132   7.622   3.099   5.902  1.2887 -0.0533  0.6653
   16MOL   H303 5133   7.522   3.244   6.053  0.6566 -0.9763  0.3143
   16MOL   H304 5134   7.815   3.488   6.296 -0.3183  0.0548 -1.7249
   16MOL   H305 5135   7.676   3.502   6.405  1.1724  2.2547 -1.1158
   16MOL   C306 5136   7.737   3.299   6.355  0.0143 -0.0948 -0.6827
   16MOL   C307 5137   7.857   3.288   6.450 -0.4002  0.2957  0.8403
   16MOL   C308 5138   7.960   3.192   6.423 -0.0086 -0.9339 -0.7229
   16MOL   C309 5139   8.069   3.175   6.506 -0.5400 -0.2431 -0.6190
   16MOL   C310 5140   8.067   3.240   6.635 -0.2935 -0.2208  0.3187
   16MOL   F311 5141   8.178   3.231   6.706 -0.3044 -0.1595  0.4594
   16MOL   C312 5142   7.963   3.327   6.672 -0.1599 -0.3966 -0.2194
   16MOL   C313 5143   7.854   3.348   6.579 -0.0586  0.3574 -0.6200
   16MOL   C314 5144   7.623   3.227   6.418 -0.6929  0.0937 -0.4720
   16MOL   H315 5145   7.766   3.243   6.266  1.3117 -0.7634  0.1428
   16MOL   H316 5146   7.964   3.148   6.325  0.2614 -0.1817 -1.0555
   16MOL   H317 5147   8.147   3.115   6.462  0.6093  0.6365  0.1863
   16MOL   H318 5148   7.950   3.365   6.772 -1.5526 -2.3369  0.3716
   16MOL   H319 5149   7.774   3.411   6.615 -0.8973 -1.7293  1.2963
   16MOL   H320 5150   7.536   3.225   6.353 -1.1827  0.4808  0.1682
   16MOL   H321 5151   7.648   3.130   6.461 -1.7442  0.6617  1.5053
   16MOL   H322 5152   7.585   3.281   6.505 -2.0955 -0.7274 -0.5578
   17MOL     C1 5153   5.532   6.793   3.405  0.3327  0.8469 -0.5607
   17MOL     C2 5154   5.589   6.931   3.453 -0.2590  0.0969  0.1322
   17MOL     C3 5155   5.667   7.013   3.368  0.5856  0.0205  0.2813
   17MOL     C4 5156   5.715   7.130   3.417  0.3240  0.2644 -0.0838
   17MOL     C5 5157   5.674   7.176   3.544  0.5536 -0.1286  0.7507
   17MOL     F6 5158   5.711   7.303   3.581 -0.1290  0.0422  0.2135
   17MOL     C7 5159   5.593   7.100   3.629 -0.4027 -0.5888  0.2242
   17MOL     C8 5160   5.555   6.971   3.583  0.1932  0.7342 -0.2975
   17MOL     C9 5161   5.379   6.786   3.404 -0.5554 -0.5070 -0.3057
   17MOL    H10 5162   5.586   6.713   3.455 -1.9149  0.6397  1.6073
   17MOL    H11 5163   5.693   6.981   3.268  0.6800 -4.3066  1.5669
   17MOL    H12 5164   5.780   7.191   3.356  0.0615  1.4130  0.7804
   17MOL    H13 5165   5.570   7.135   3.728  2.8108 -1.3069  1.2492
   17MOL    H14 5166   5.486   6.921   3.649 -0.5943  2.1896  0.0031
   17MOL    H15 5167   5.339   6.831   3.495 -2.7167 -1.5080 -0.7309
   17MOL    H16 5168   5.344   6.846   3.321  0.6830 -1.1333 -1.2950
   17MOL    H17 5169   5.556   6.753   3.306  1.3036 -2.0212  0.7804
   17MOL    C18 5170   5.323   6.650   3.387 -0.0836  0.6334  0.3048
   17MOL    C19 5171   5.188   6.645   3.450 -0.1968  0.2140  0.3648
   17MOL    C20 5172   5.151   6.556   3.558 -0.0789 -0.2397  0.3429
   17MOL    C21 5173   5.021   6.576   3.618 -0.1903  0.3285  0.5774
   17MOL    C22 5174   4.934   6.679   3.573  0.6066  0.1555  0.2684
   17MOL    F23 5175   4.808   6.685   3.623 -0.3881 -0.0827 -0.0501
   17MOL    C24 5176   4.972   6.765   3.473  0.0512  0.5735  0.4605
   17MOL    C25 5177   5.095   6.743   3.409 -0.0004 -0.4512 -0.1255
   17MOL    C26 5178   5.331   6.597   3.245 -0.3294  0.3555  0.0778
   17MOL    H27 5179   5.386   6.589   3.452  0.7690 -0.0739 -1.1542
   17MOL    H28 5180   5.215   6.483   3.605 -1.2494 -1.1976  0.4693
   17MOL    H29 5181   4.984   6.501   3.686 -0.0358 -0.5253 -0.2673
   17MOL    H30 5182   4.896   6.833   3.437  1.1958  0.2318 -2.8486
   17MOL    H31 5183   5.120   6.811   3.329  0.1644 -0.7033 -0.2891
   17MOL    H32 5184   5.253   6.648   3.189 -0.4631 -0.4464 -0.4626
   17MOL    H33 5185   5.418   6.639   3.193  0.6993 -2.5726 -0.6517
   17MOL    C34 5186   5.325   6.447   3.232 -0.0016  0.7217  0.5813
   17MOL    C35 5187   5.288   6.418   3.084 -0.3929  0.3520 -0.8397
   17MOL    C36 5188   5.370   6.465   2.981  0.2489  0.7648 -0.2811
   17MOL    C37 5189   5.350   6.428   2.844  0.8313  0.2512  0.3129
   17MOL    C38 5190   5.232   6.357   2.806 -0.3003  0.6562 -0.0318
   17MOL    F39 5191   5.206   6.327   2.675 -0.0029  0.1152 -0.3659
   17MOL    C40 5192   5.141   6.316   2.908  0.4354 -1.0527  0.1625
   17MOL    C41 5193   5.164   6.354   3.040  0.2535 -0.3245 -0.3831
   17MOL    C42 5194   5.462   6.375   3.269 -0.6510  0.6279 -0.1789
   17MOL    H43 5195   5.249   6.411   3.302  1.1110 -0.4242  1.2186
   17MOL    H44 5196   5.460   6.516   3.014  0.4046  0.1383  0.2737
   17MOL    H45 5197   5.422   6.453   2.767 -0.6630 -0.4663 -1.3529
   17MOL    H46 5198   5.049   6.268   2.879 -1.0070  2.1471 -0.8644
   17MOL    H47 5199   5.093   6.308   3.107  0.1497 -0.6733 -0.7318
   17MOL    H48 5200   5.537   6.378   3.190  0.0232  0.5318  0.4592
   17MOL    H49 5201   5.508   6.428   3.352  2.3601 -0.7903 -0.8840
   17MOL    C50 5202   5.443   6.220   3.315  0.3877  0.2582  0.4088
   17MOL    C51 5203   5.343   6.213   3.428 -0.2412 -0.0971 -0.7513
   17MOL    C52 5204   5.384   6.246   3.563  0.4175 -0.7139 -0.3003
   17MOL    C53 5205   5.292   6.248   3.667 -0.2407  0.0064 -0.0462
   17MOL    C54 5206   5.164   6.209   3.646  0.0791  0.4288  1.3690
   17MOL    F55 5207   5.085   6.216   3.757  0.2686  0.2909  0.0719
   17MOL    C56 5208   5.120   6.174   3.522 -0.3121  0.6533  0.8253
   17MOL    C57 5209   5.207   6.174   3.411 -0.3558 -0.0195  0.3717
   17MOL    C58 5210   5.414   6.122   3.199 -0.0021  0.3813 -0.3136
   17MOL    H59 5211   5.529   6.192   3.376 -0.6820 -1.2571  1.2286
   17MOL    H60 5212   5.482   6.290   3.578  0.1984 -0.2097 -0.3320
   17MOL    H61 5213   5.318   6.278   3.767 -1.3058  0.8286 -0.0139
   17MOL    H62 5214   5.018   6.141   3.505 -0.8217  2.0891  1.0307
   17MOL    H63 5215   5.172   6.146   3.312  2.2884  0.1673 -0.6697
   17MOL    H64 5216   5.374   6.026   3.232  2.0807 -1.7820 -3.8355
   17MOL    H65 5217   5.334   6.160   3.136 -0.0089  1.0968  0.1230
   17MOL    C66 5218   5.539   6.081   3.122 -0.2148  0.4699  0.2705
   17MOL    C67 5219   5.653   6.032   3.207  0.6116  0.7459 -0.0956
   17MOL    C68 5220   5.784   6.076   3.179  0.4796  0.4527  0.4064
   17MOL    C69 5221   5.898   6.020   3.245  0.3828 -0.3077  0.2790
   17MOL    C70 5222   5.878   5.918   3.340  0.1944  0.3709 -0.1036
   17MOL    F71 5223   5.985   5.856   3.404 -0.2436  0.3704 -0.1704
   17MOL    C72 5224   5.750   5.879   3.369 -0.1130  0.7353  0.0596
   17MOL    C73 5225   5.637   5.937   3.308  0.2153 -0.1051 -0.4299
   17MOL    C74 5226   5.516   5.982   3.004  0.3976  0.0726  0.0560
   17MOL    H75 5227   5.571   6.174   3.076 -1.8712  0.8910 -0.0532
   17MOL    H76 5228   5.805   6.159   3.113  1.5932  0.7200  1.0904
   17MOL    H77 5229   5.993   6.061   3.214 -0.4615  1.5205  0.0900
   17MOL    H78 5230   5.738   5.804   3.446  0.6927  0.6803  0.1331
   17MOL    H79 5231   5.539   5.895   3.329  1.3985 -1.8237  1.8475
   17MOL    H80 5232   5.518   5.881   3.042 -0.0047 -0.1014 -0.3714
   17MOL    H81 5233   5.417   5.995   2.959  0.6173  1.3134 -0.0895
   17MOL    C82 5234   5.623   5.988   2.888 -0.4099 -0.4789 -0.3144
   17MOL    C83 5235   5.634   5.859   2.805  0.0871  0.0602 -0.4472
   17MOL    C84 5236   5.756   5.793   2.813 -0.4271 -0.0173 -0.3181
   17MOL    C85 5237   5.783   5.673   2.740 -0.2014 -0.4116  0.0215
   17MOL    C86 5238   5.677   5.617   2.663 -0.1898  0.1279  0.1967
   17MOL    F87 5239   5.691   5.509   2.579 -0.0742 -0.2411 -0.2067
   17MOL    C88 5240   5.551   5.678   2.669  0.2019  0.2159 -0.2440
   17MOL    C89 5241   5.527   5.804   2.738 -0.8380 -0.3040 -0.0646
   17MOL    C90 5242   5.604   6.120   2.798 -0.1328 -1.1532  0.1066
   17MOL    H91 5243   5.722   5.995   2.933 -0.1417 -2.3702 -0.5642
   17MOL    H92 5244   5.837   5.826   2.877  0.4157 -1.0799 -0.8188
   17MOL    H93 5245   5.875   5.617   2.737 -0.3824 -0.7023 -0.1673
   17MOL    H94 5246   5.474   5.636   2.606 -0.1040 -0.1423  0.3677
   17MOL    H95 5247   5.434   5.858   2.731 -0.2827  0.4876 -1.6946
   17MOL    H96 5248   5.584   6.076   2.700  2.7181  1.2362 -1.6676
   17MOL    H97 5249   5.515   6.177   2.826 -0.2664 -1.3760  0.1305
   17MOL    C98 5250   5.717   6.218   2.765  0.5164  0.1701 -0.0486
   17MOL    C99 5251   5.849   6.154   2.752  0.1219 -0.3008  0.1958
   17MOL   C100 5252   5.874   6.069   2.643 -0.1970 -0.7730 -0.1718
   17MOL   C101 5253   6.000   6.012   2.620  0.3002  0.1653  0.2952
   17MOL   C102 5254   6.103   6.041   2.710 -0.7475 -0.1936  0.3290
   17MOL   F103 5255   6.229   5.990   2.689  0.0124  0.0330  0.1122
   17MOL   C104 5256   6.079   6.132   2.822  0.0407  0.2796  0.3483
   17MOL   C105 5257   5.952   6.185   2.847  0.4532  0.4398  0.0552
   17MOL   C106 5258   5.677   6.292   2.634  0.0947 -0.0229 -0.1206
   17MOL   H107 5259   5.723   6.293   2.843  0.2141  1.4857 -1.2710
   17MOL   H108 5260   5.783   6.046   2.589 -1.1284 -1.3785  1.5983
   17MOL   H109 5261   6.021   5.945   2.538 -2.1829  1.5871 -1.5778
   17MOL   H110 5262   6.154   6.150   2.897 -0.0233  0.9892  0.2387
   17MOL   H111 5263   5.931   6.251   2.930 -2.0678  0.6047 -0.6650
   17MOL   H112 5264   5.661   6.232   2.544 -1.1454  0.4419 -0.2303
   17MOL   H113 5265   5.578   6.332   2.659  0.5998  1.2423 -0.1344
   17MOL   C114 5266   5.746   6.422   2.591  0.5171 -0.6161 -0.3423
   17MOL   C115 5267   5.761   6.528   2.701  0.3630 -0.1257  0.2705
   17MOL   C116 5268   5.646   6.601   2.718  0.3260  0.3064 -0.3292
   17MOL   C117 5269   5.646   6.708   2.811 -0.0428 -0.6033 -0.9355
   17MOL   C118 5270   5.766   6.732   2.881  0.1291 -0.3955  0.0272
   17MOL   F119 5271   5.763   6.839   2.966 -0.3493  0.1058  0.4423
   17MOL   C120 5272   5.881   6.642   2.872 -0.1299  0.1319 -0.0785
   17MOL   C121 5273   5.877   6.543   2.775 -0.1450  0.3595  0.2474
   17MOL   C122 5274   5.868   6.401   2.499 -0.0907  0.1651  0.3893
   17MOL   H123 5275   5.675   6.467   2.521 -0.0731 -1.3762 -0.2392
   17MOL   H124 5276   5.551   6.574   2.674 -0.1318  0.4417  0.5655
   17MOL   H125 5277   5.562   6.776   2.815 -0.3772 -1.0821  0.7526
   17MOL   H126 5278   5.963   6.662   2.940  0.9161 -0.9417 -0.9921
   17MOL   H127 5279   5.960   6.476   2.762 -0.2273  0.5658 -1.6047
   17MOL   H128 5280   5.935   6.332   2.550 -0.9130 -1.7889 -1.1124
   17MOL   H129 5281   5.852   6.341   2.409  3.2147  0.8492 -0.7510
   17MOL   C130 5282   5.956   6.521   2.446  1.2738  0.2741  0.5597
   17MOL   C131 5283   6.090   6.457   2.391  0.2174  0.5714 -0.0047
   17MOL   C132 5284   6.163   6.385   2.484  0.2834  0.6906 -0.7814
   17MOL   C133 5285   6.284   6.329   2.452 -1.4344 -0.1153  0.2420
   17MOL   C134 5286   6.335   6.343   2.321 -0.4295  0.0171  0.1228
   17MOL   F135 5287   6.449   6.282   2.289 -0.0712 -0.2051 -0.1751
   17MOL   C136 5288   6.259   6.410   2.223 -0.0214  0.3038  0.2729
   17MOL   C137 5289   6.133   6.469   2.258 -0.1153 -0.8121  0.1038
   17MOL   C138 5290   5.867   6.608   2.353  0.1340  0.6617 -0.4637
   17MOL   H139 5291   5.982   6.587   2.529  0.1198  1.3131  0.1288
   17MOL   H140 5292   6.129   6.380   2.587 -0.9420  2.6818 -1.0678
   17MOL   H141 5293   6.332   6.267   2.527  0.9296 -0.8055 -1.7764
   17MOL   H142 5294   6.294   6.408   2.121 -0.2999  2.5293  0.1119
   17MOL   H143 5295   6.074   6.526   2.188 -0.3385 -0.4055  0.6196
   17MOL   H144 5296   5.855   6.549   2.262 -1.9287  0.5761 -0.1545
   17MOL   H145 5297   5.762   6.608   2.381  0.1378  3.9601 -0.2625
   17MOL   C146 5298   5.906   6.756   2.322  0.1861  0.6616 -0.8073
   17MOL   C147 5299   5.872   6.788   2.175  0.5949 -0.3372  0.1070
   17MOL   C148 5300   5.741   6.776   2.130 -0.3060 -0.3668  0.3195
   17MOL   C149 5301   5.712   6.810   1.991 -0.5570 -0.1182 -0.2913
   17MOL   C150 5302   5.818   6.854   1.903  0.1015 -0.6330  0.0182
   17MOL   F151 5303   5.788   6.879   1.770 -0.0166 -0.4234  0.0120
   17MOL   C152 5304   5.947   6.865   1.953  0.2368  0.3149  0.3051
   17MOL   C153 5305   5.975   6.824   2.082 -0.2740  0.1955  0.5403
   17MOL   C154 5306   5.845   6.847   2.435  0.3287 -0.8889 -0.8269
   17MOL   H155 5307   6.014   6.769   2.326  0.4327 -1.7702  1.4886
   17MOL   H156 5308   5.658   6.751   2.195 -0.6117  0.7902  0.3848
   17MOL   H157 5309   5.609   6.803   1.959 -0.6224 -2.9769  0.4082
   17MOL   H158 5310   6.023   6.899   1.885 -0.1325  3.3187  1.3291
   17MOL   H159 5311   6.075   6.845   2.119  0.3229  0.4728 -1.1815
   17MOL   H160 5312   5.744   6.809   2.451  1.8220 -4.0369  1.5835
   17MOL   H161 5313   5.882   6.819   2.534 -1.0651 -0.4141 -0.1521
   17MOL   C162 5314   5.850   7.002   2.407  0.0210  0.2821 -0.0048
   17MOL   C163 5315   5.754   7.077   2.495 -0.3375 -0.0142  0.5880
   17MOL   C164 5316   5.740   7.049   2.630 -0.6360  0.0155  0.0800
   17MOL   C165 5317   5.645   7.121   2.703  0.2506 -0.0078 -0.2102
   17MOL   C166 5318   5.566   7.219   2.641 -0.4049  0.0688 -0.1037
   17MOL   F167 5319   5.474   7.288   2.710  0.8108 -0.1335 -0.4950
   17MOL   C168 5320   5.584   7.251   2.503 -0.2100 -0.0264  0.0284
   17MOL   C169 5321   5.680   7.182   2.432 -0.3949 -0.0660 -0.6774
   17MOL   C170 5322   5.995   7.063   2.403 -0.2405 -0.6762  0.0432
   17MOL   H171 5323   5.805   7.005   2.308 -3.5019  1.9219  1.5639
   17MOL   H172 5324   5.800   6.976   2.682  3.0206  0.5308 -3.1679
   17MOL   H173 5325   5.636   7.100   2.809  0.3751 -0.8398 -0.3619
   17MOL   H174 5326   5.526   7.334   2.466 -0.5443  0.2443  1.1242
   17MOL   H175 5327   5.697   7.206   2.328  0.1045  3.2771  0.1113
   17MOL   H176 5328   6.051   6.995   2.339 -1.2250 -0.3437 -1.1858
   17MOL   H177 5329   5.982   7.156   2.348  1.2634  1.1932  2.7425
   17MOL   C178 5330   6.069   7.108   2.533 -0.6577 -0.4353 -0.0422
   17MOL   C179 5331   6.120   6.998   2.624  0.0064 -0.3396 -0.2618
   17MOL   C180 5332   6.106   7.015   2.762 -0.2775 -0.0425 -0.1637
   17MOL   C181 5333   6.134   6.910   2.850  0.5144 -0.4453  0.0949
   17MOL   C182 5334   6.184   6.788   2.796 -0.6515 -0.4736  0.6305
   17MOL   F183 5335   6.216   6.688   2.875 -0.1443 -0.1507  0.2765
   17MOL   C184 5336   6.209   6.776   2.662  0.1492  0.4530 -0.3213
   17MOL   C185 5337   6.171   6.880   2.571  0.2539  0.6109  0.3468
   17MOL   C186 5338   6.201   7.192   2.500 -0.9579  0.0885  0.3916
   17MOL   H187 5339   5.987   7.165   2.577 -0.2248  0.5692 -0.5118
   17MOL   H188 5340   6.071   7.111   2.797  0.3161  0.4556 -0.9296
   17MOL   H189 5341   6.120   6.913   2.957 -0.6371 -0.5505 -0.0380
   17MOL   H190 5342   6.247   6.684   2.620  1.8173  0.9388  0.0605
   17MOL   H191 5343   6.180   6.865   2.465  0.6302  1.3287  0.2730
   17MOL   H192 5344   6.240   7.226   2.596  0.7978  1.2784 -0.7080
   17MOL   H193 5345   6.274   7.133   2.446 -0.6471  0.6885  0.1485
   17MOL   C194 5346   6.175   7.329   2.425  0.1722  1.0352 -0.6497
   17MOL   C195 5347   6.065   7.406   2.503 -0.6140 -0.4221 -0.0216
   17MOL   C196 5348   6.092   7.442   2.637  0.1439  0.9686 -0.4199
   17MOL   C197 5349   5.993   7.511   2.707  0.1222  0.7035  0.5446
   17MOL   C198 5350   5.864   7.532   2.651  0.3529 -0.4235  0.4718
   17MOL   F199 5351   5.767   7.587   2.724  0.0500 -0.4809 -0.1791
   17MOL   C200 5352   5.839   7.492   2.519 -0.4937 -0.2088 -0.7565
   17MOL   C201 5353   5.942   7.435   2.440 -0.2670  0.0837  0.0882
   17MOL   C202 5354   6.304   7.409   2.396 -0.1524 -0.4115 -0.7516
   17MOL   H203 5355   6.133   7.306   2.327 -0.2430 -0.2765 -0.1776
   17MOL   H204 5356   6.189   7.434   2.684 -0.6483  1.1257  1.2786
   17MOL   H205 5357   6.011   7.540   2.809 -0.8462  2.6533  0.2021
   17MOL   H206 5358   5.743   7.516   2.477 -0.9208  1.3657  1.0381
   17MOL   H207 5359   5.917   7.409   2.338 -0.6645 -2.1368  0.7208
   17MOL   H208 5360   6.270   7.505   2.355 -1.3573 -0.9584 -1.0523
   17MOL   H209 5361   6.355   7.429   2.491 -0.9858  0.1413 -0.4114
   17MOL   C210 5362   6.404   7.340   2.302 -0.2313  0.3935 -0.1974
   17MOL   C211 5363   6.343   7.295   2.165  0.0709  0.3578 -0.4852
   17MOL   C212 5364   6.328   7.161   2.130  0.0139  0.4105  0.3356
   17MOL   C213 5365   6.273   7.128   2.005 -0.5025 -0.2498 -0.2629
   17MOL   C214 5366   6.224   7.227   1.916  0.0887  0.3076  0.0672
   17MOL   F215 5367   6.172   7.186   1.799  0.0079  0.4966  0.0715
   17MOL   C216 5368   6.241   7.361   1.953 -0.1693 -0.9403  0.4768
   17MOL   C217 5369   6.305   7.394   2.073 -0.3839  0.2220  0.3288
   17MOL   C218 5370   6.531   7.419   2.287  0.2925  0.5330  0.2649
   17MOL   H219 5371   6.439   7.250   2.354  0.9054 -0.2621 -2.0160
   17MOL   H220 5372   6.357   7.084   2.199  0.7283  0.2221 -0.1684
   17MOL   H221 5373   6.273   7.027   1.965 -0.1888 -1.1617  1.9572
   17MOL   H222 5374   6.212   7.440   1.886 -1.8611  0.2957  2.6029
   17MOL   H223 5375   6.307   7.500   2.093 -2.0919  0.1339  1.0751
   17MOL   H224 5376   6.572   7.384   2.192 -1.6220 -0.4543 -0.2120
   17MOL   H225 5377   6.503   7.518   2.253 -1.1600  0.0406 -0.0266
   17MOL   C226 5378   6.630   7.427   2.403  0.6031 -0.1038  0.0837
   17MOL   C227 5379   6.707   7.301   2.413  0.2236 -0.2910 -0.7030
   17MOL   C228 5380   6.813   7.278   2.326  0.0503  0.0417  0.8435
   17MOL   C229 5381   6.899   7.169   2.355  0.4779 -0.7059  0.1489
   17MOL   C230 5382   6.881   7.080   2.461  0.9266  0.4731  0.3413
   17MOL   F231 5383   6.966   6.976   2.493  0.0809 -0.1982  0.0116
   17MOL   C232 5384   6.766   7.102   2.538 -0.4064 -0.0289  0.1815
   17MOL   C233 5385   6.679   7.203   2.513  0.7196  0.4119 -0.1103
   17MOL   C234 5386   6.711   7.554   2.402 -0.2093  0.3655 -0.4684
   17MOL   H235 5387   6.587   7.433   2.503  2.0214  2.4046  0.5844
   17MOL   H236 5388   6.849   7.350   2.255 -0.9547 -0.5983 -0.3408
   17MOL   H237 5389   6.986   7.154   2.294  0.2724  0.0635 -0.3390
   17MOL   H238 5390   6.745   7.042   2.625  0.8715  0.4308  0.8065
   17MOL   H239 5391   6.593   7.208   2.578  1.9611  0.2703  1.5741
   17MOL   H240 5392   6.798   7.529   2.462 -0.1803  1.7394  0.0888
   17MOL   H241 5393   6.741   7.565   2.298  0.9014 -0.5544 -0.2484
   17MOL   C242 5394   6.631   7.684   2.456  0.0721  0.4923 -0.2414
   17MOL   C243 5395   6.570   7.656   2.590  0.0518  0.1852 -0.3355
   17MOL   C244 5396   6.639   7.600   2.698  0.0948 -0.0799 -0.6423
   17MOL   C245 5397   6.570   7.564   2.815 -0.8650 -0.0355  0.3278
   17MOL   C246 5398   6.439   7.599   2.833  0.4589 -0.3431 -0.0314
   17MOL   F247 5399   6.376   7.565   2.950  0.1293  0.4534 -0.1392
   17MOL   C248 5400   6.365   7.664   2.726 -0.1286 -0.3387  0.0280
   17MOL   C249 5401   6.436   7.696   2.609 -0.0057  0.2094  0.3463
   17MOL   C250 5402   6.695   7.811   2.434 -0.4143  0.9398 -0.3109
   17MOL   H251 5403   6.546   7.689   2.387 -0.4580 -3.1573  0.0422
   17MOL   H252 5404   6.741   7.568   2.682 -0.2860 -1.1806 -0.9075
   17MOL   H253 5405   6.633   7.511   2.886 -0.3471 -1.7015 -1.3507
   17MOL   H254 5406   6.266   7.701   2.746 -0.1204 -0.9767  1.2920
   17MOL   H255 5407   6.381   7.752   2.535 -0.2123  1.5828  1.5205
   17MOL   H256 5408   6.643   7.879   2.501  1.3046  1.5634  0.4153
   17MOL   H257 5409   6.790   7.798   2.485 -1.5009  1.0856  1.7865
   17MOL   C258 5410   6.718   7.850   2.287 -0.6718 -0.8723 -0.0393
   17MOL   C259 5411   6.585   7.887   2.216  0.9602  0.3921 -0.1334
   17MOL   C260 5412   6.525   8.012   2.246  0.2158  0.3327 -0.3109
   17MOL   C261 5413   6.395   8.040   2.195  0.6246  0.4229  0.1161
   17MOL   C262 5414   6.325   7.945   2.113  0.8726 -0.2877 -0.1346
   17MOL   F263 5415   6.204   7.985   2.067  0.1952  0.1506 -0.2883
   17MOL   C264 5416   6.388   7.828   2.086 -0.4512  0.0488  0.5696
   17MOL   C265 5417   6.518   7.799   2.135 -0.2598  0.5800  0.7718
   17MOL   C266 5418   6.822   7.966   2.271 -0.0158  0.5143 -0.2026
   17MOL   H267 5419   6.741   7.759   2.233 -0.5452 -2.0201  1.8880
   17MOL   H268 5420   6.572   8.089   2.305 -0.5773 -0.5192  1.4880
   17MOL   H269 5421   6.352   8.138   2.212  0.5085  1.0211 -3.2386
   17MOL   H270 5422   6.335   7.758   2.023 -2.2717  1.0852  0.9419
   17MOL   H271 5423   6.563   7.706   2.107 -1.4614  0.3900 -0.6295
   17MOL   H272 5424   6.790   8.029   2.188 -0.0778 -0.2145 -0.7350
   17MOL   H273 5425   6.822   8.031   2.359  0.4669  0.8346 -0.4399
   17MOL   C274 5426   6.967   7.918   2.242 -0.4783  0.3806 -0.0384
   17MOL   C275 5427   7.029   7.886   2.375 -0.5558  0.6153 -0.5379
   17MOL   C276 5428   7.089   7.765   2.405 -0.1148 -0.1919 -0.4779
   17MOL   C277 5429   7.148   7.742   2.527 -0.3996 -0.4349 -0.5604
   17MOL   C278 5430   7.155   7.842   2.621  0.5518  0.4276 -0.0798
   17MOL   F279 5431   7.206   7.818   2.748  0.3978 -0.1635 -0.3106
   17MOL   C280 5432   7.116   7.970   2.592 -0.3152 -1.1443  0.0333
   17MOL   C281 5433   7.056   7.995   2.465 -0.4912  0.0918 -0.5275
   17MOL   C282 5434   6.974   7.807   2.128 -0.2669  1.0198 -0.0314
   17MOL   H283 5435   7.024   8.002   2.201  1.9998 -0.7505  0.9387
   17MOL   H284 5436   7.093   7.690   2.326 -0.5010  1.1415 -1.7815
   17MOL   H285 5437   7.206   7.651   2.534 -1.0892 -0.7045  2.5041
   17MOL   H286 5438   7.135   8.054   2.658  0.1989  0.3506 -1.9597
   17MOL   H287 5439   7.020   8.094   2.443 -1.2859 -0.1667 -0.3712
   17MOL   H288 5440   7.078   7.776   2.117  0.0483  1.1421  2.3236
   17MOL   H289 5441   6.935   7.712   2.164  0.3906  0.3303 -1.1279
   17MOL   C290 5442   6.933   7.842   1.981  0.3143 -0.0779 -1.0287
   17MOL   C291 5443   6.949   7.994   1.944 -0.8961 -0.3065  0.1960
   17MOL   C292 5444   6.847   8.075   1.902 -0.5614  0.0795  0.0775
   17MOL   C293 5445   6.867   8.205   1.859 -0.4462  0.0880 -0.9428
   17MOL   C294 5446   6.999   0.021   1.871  0.4197 -0.2597  0.5617
   17MOL   F295 5447   7.021   0.152   1.838 -0.4547 -0.3763  0.6698
   17MOL   C296 5448   7.104   8.186   1.921  0.7506 -0.3424  0.6877
   17MOL   C297 5449   7.077   8.050   1.955 -0.5500 -0.6634 -0.3374
   17MOL   C298 5450   7.018   7.754   1.885 -0.5938 -0.2784 -0.0551
   17MOL   H299 5451   6.830   7.814   1.961 -0.0627  0.7207 -0.2327
   17MOL   H300 5452   6.745   8.040   1.898 -0.4793 -0.1429 -0.0948
   17MOL   H301 5453   6.787   0.034   1.822 -0.3499  0.4314 -0.5680
   17MOL   H302 5454   7.201   8.231   1.928  1.6212 -1.9523 -0.5825
   17MOL   H303 5455   7.167   8.001   1.989  1.8295  1.5194 -3.1427
   17MOL   H304 5456   6.993   7.779   1.782 -1.5365  2.1434  0.7289
   17MOL   H305 5457   7.120   7.778   1.911 -0.9654  0.0644  1.1032
   17MOL   C306 5458   7.011   7.601   1.897 -0.4230  0.5898  0.0182
   17MOL   C307 5459   6.878   7.548   1.848 -0.4036  0.0321 -0.1992
   17MOL   C308 5460   6.878   7.496   1.714  0.0269 -0.2507 -0.5396
   17MOL   C309 5461   6.765   7.432   1.671 -0.2959 -0.1920 -0.3659
   17MOL   C310 5462   6.650   7.427   1.754  0.4838  0.4900  0.2397
   17MOL   F311 5463   6.529   7.384   1.712 -0.4938 -0.1744 -0.0692
   17MOL   C312 5464   6.653   7.462   1.887 -0.0090  0.4691 -0.1908
   17MOL   C313 5465   6.773   7.524   1.938 -0.5818 -0.1088 -0.0920
   17MOL   C314 5466   7.138   7.544   1.841  0.0671 -0.3577  0.3179
   17MOL   H315 5467   7.006   7.575   2.003 -0.2429 -1.2310 -0.4095
   17MOL   H316 5468   6.960   7.503   1.643  1.0645  1.8299  0.8376
   17MOL   H317 5469   6.756   7.398   1.569  0.4522  0.2243 -0.5751
   17MOL   H318 5470   6.572   7.447   1.956 -0.8067  2.2540 -0.7119
   17MOL   H319 5471   6.776   7.548   2.043 -0.5758 -0.8616  0.0887
   17MOL   H320 5472   7.147   7.436   1.853 -0.6232 -0.7818 -2.5953
   17MOL   H321 5473   7.154   7.563   1.735  1.0508  1.1975  0.7270
   17MOL   H322 5474   7.220   7.595   1.891  1.0531 -0.7595 -0.8556
   18MOL     C1 5475   3.165   6.789   0.402 -0.3735 -0.0948 -0.4047
   18MOL     C2 5476   3.116   6.885   0.512  0.2003 -0.4431 -0.5472
   18MOL     C3 5477   3.112   7.025   0.486  0.8224 -0.9964 -0.3112
   18MOL     C4 5478   3.061   7.105   0.594 -1.0507  0.6892 -0.5888
   18MOL     C5 5479   3.031   7.058   0.717  0.0117  0.2096 -0.0997
   18MOL     F6 5480   3.002   7.143   0.819 -0.1295 -0.4591 -0.3866
   18MOL     C7 5481   3.038   6.919   0.743 -0.0971 -0.7346  0.6800
   18MOL     C8 5482   3.074   6.833   0.637  0.1650 -0.9346  0.1975
   18MOL     C9 5483   3.046   6.762   0.302 -0.0088  0.2326 -0.0046
   18MOL    H10 5484   3.209   6.701   0.448  0.4248  0.4191 -0.1711
   18MOL    H11 5485   3.139   7.072   0.393  0.4665  0.7868  0.4691
   18MOL    H12 5486   3.055   7.212   0.586  0.3880  0.7148 -1.6338
   18MOL    H13 5487   3.003   6.885   0.839  0.5238 -0.9358  0.8322
   18MOL    H14 5488   3.062   6.726   0.649 -2.8723 -0.4326  2.0215
   18MOL    H15 5489   3.020   6.853   0.249 -1.4518  0.8252  1.6404
   18MOL    H16 5490   3.095   6.695   0.231  0.2088  1.0457 -0.6168
   18MOL    H17 5491   3.243   6.841   0.344  0.7977 -1.9023 -0.4803
   18MOL    C18 5492   2.911   6.707   0.362  0.2961 -0.1413 -0.0353
   18MOL    C19 5493   2.813   6.695   0.243  0.7843 -0.1759 -0.4868
   18MOL    C20 5494   2.843   6.600   0.141  0.0349  0.0642  0.4971
   18MOL    C21 5495   2.759   6.579   0.030 -0.1639  0.0926  0.7741
   18MOL    C22 5496   2.643   6.654   0.019  0.6689  0.3113  0.0244
   18MOL    F23 5497   2.580   6.632   8.137  0.1011 -0.3541 -0.3290
   18MOL    C24 5498   2.595   6.737   0.126 -0.1953 -0.4217  0.2400
   18MOL    C25 5499   2.688   6.764   0.236  0.1053  0.0826  0.9038
   18MOL    C26 5500   2.936   6.564   0.431  0.3595 -0.2856  0.2457
   18MOL    H27 5501   2.874   6.776   0.437 -0.8672 -0.9485  0.1527
   18MOL    H28 5502   2.927   6.534   0.153 -1.8456 -2.6574 -0.7144
   18MOL    H29 5503   2.796   6.522   8.181  0.1645 -3.2199  3.0866
   18MOL    H30 5504   2.506   6.798   0.129  1.2262  1.6436  1.9809
   18MOL    H31 5505   2.662   6.835   0.312  2.2163  1.1602  0.6518
   18MOL    H32 5506   2.970   6.489   0.360  3.0662  0.9092  0.1979
   18MOL    H33 5507   3.017   6.588   0.501  0.6595  1.1952 -0.5780
   18MOL    C34 5508   2.814   6.505   0.510 -0.4671  0.2236 -0.5434
   18MOL    C35 5509   2.706   6.432   0.429  0.0475  0.3707 -0.4016
   18MOL    C36 5510   2.734   6.319   0.348 -0.9825  0.4664  0.1652
   18MOL    C37 5511   2.638   6.247   0.282 -0.7590 -0.6674 -0.3760
   18MOL    C38 5512   2.507   6.292   0.294  0.4021  0.2577 -0.5624
   18MOL    F39 5513   2.410   6.230   0.226 -0.0059  0.3850  0.1501
   18MOL    C40 5514   2.475   6.409   0.366  0.1392  0.1960  0.5152
   18MOL    C41 5515   2.576   6.477   0.436 -0.3403  0.7338  0.0699
   18MOL    C42 5516   2.848   6.421   0.635  0.0692  0.2387 -0.0638
   18MOL    H43 5517   2.771   6.596   0.551  1.7019  1.8287 -1.7500
   18MOL    H44 5518   2.834   6.278   0.343 -0.9041  0.0957  3.6527
   18MOL    H45 5519   2.670   6.150   0.246 -0.1218  0.1701 -2.1061
   18MOL    H46 5520   2.380   6.460   0.359 -0.7821 -1.7793 -2.4266
   18MOL    H47 5521   2.549   6.566   0.491 -1.7330  1.5703 -1.8789
   18MOL    H48 5522   2.918   6.340   0.614  0.1885 -0.1779  1.8006
   18MOL    H49 5523   2.904   6.480   0.708  1.0790 -1.2902  0.4398
   18MOL    C50 5524   2.734   6.362   0.718 -0.1733  0.0403  0.3291
   18MOL    C51 5525   2.776   6.240   0.788  0.2770 -0.1929 -0.8616
   18MOL    C52 5526   2.872   6.246   0.891  0.3392 -0.5359 -0.1691
   18MOL    C53 5527   2.934   6.129   0.935 -0.1678  0.2853 -0.2115
   18MOL    C54 5528   2.887   6.001   0.888  0.1871 -0.6014  0.0159
   18MOL    F55 5529   2.936   5.888   0.945  0.0323  0.4747 -0.2902
   18MOL    C56 5530   2.787   5.989   0.788 -0.5415 -0.2548  0.1665
   18MOL    C57 5531   2.743   6.113   0.738  0.0870 -0.0902  0.1108
   18MOL    C58 5532   2.659   6.462   0.801 -0.0099  1.2009 -0.6463
   18MOL    H59 5533   2.658   6.326   0.649  0.8824 -3.1960  0.7554
   18MOL    H60 5534   2.913   6.340   0.924 -1.4291 -0.0063  0.5845
   18MOL    H61 5535   3.013   6.127   1.009  0.2707 -1.4216 -0.7135
   18MOL    H62 5536   2.759   5.894   0.744 -3.5648  0.4263  0.5225
   18MOL    H63 5537   2.674   6.112   0.655  0.0092  0.4823  0.1615
   18MOL    H64 5538   2.726   6.498   0.879  1.3972 -0.3828 -1.0950
   18MOL    H65 5539   2.628   6.543   0.735  1.0928  0.4656 -2.0854
   18MOL    C66 5540   2.536   6.405   0.870 -0.5028 -0.5543 -0.1950
   18MOL    C67 5541   2.468   6.510   0.958 -0.7711 -0.6089 -0.1029
   18MOL    C68 5542   2.405   6.617   0.894 -0.7764  0.4842 -0.4754
   18MOL    C69 5543   2.329   6.711   0.977 -0.0333  0.4028 -0.1779
   18MOL    C70 5544   2.303   6.677   1.108  0.3652  0.0373  0.4359
   18MOL    F71 5545   2.219   6.753   1.191  0.2025  0.1282  1.2024
   18MOL    C72 5546   2.370   6.565   1.166  0.2722  0.2582  0.0385
   18MOL    C73 5547   2.465   6.491   1.093 -0.2612  0.1955  0.4260
   18MOL    C74 5548   2.440   6.338   0.774  0.0229  0.6189 -0.3434
   18MOL    H75 5549   2.580   6.329   0.933 -0.0453  0.0017  0.1647
   18MOL    H76 5550   2.402   6.632   0.787 -0.5982 -0.7844 -0.6623
   18MOL    H77 5551   2.284   6.794   0.924 -0.2846 -1.0633 -2.3451
   18MOL    H78 5552   2.356   6.544   1.271  0.8935  1.0479  0.2856
   18MOL    H79 5553   2.522   6.406   1.128 -0.1401  0.3620  0.6372
   18MOL    H80 5554   2.422   6.394   0.682 -2.3074  0.0745 -0.2420
   18MOL    H81 5555   2.497   6.254   0.733 -0.8246 -0.8199  1.4033
   18MOL    C82 5556   2.300   6.289   0.818 -0.2346 -0.5017  0.1875
   18MOL    C83 5557   2.206   6.283   0.701 -0.3478 -0.0577 -0.3446
   18MOL    C84 5558   2.079   6.351   0.710  0.4413 -0.6361  0.1145
   18MOL    C85 5559   1.995   6.330   0.601  0.4213 -0.2526  0.2505
   18MOL    C86 5560   2.021   6.250   0.489 -0.5920  0.1685  0.3912
   18MOL    F87 5561   1.933   6.246   0.384 -0.3030 -0.6802 -0.2763
   18MOL    C88 5562   2.146   6.187   0.480 -0.1311 -0.7714  1.0374
   18MOL    C89 5563   2.235   6.194   0.593 -0.1321  0.6985  0.1123
   18MOL    C90 5564   2.287   6.157   0.902  0.0353  0.2568  0.5770
   18MOL    H91 5565   2.255   6.363   0.885  1.7224  0.6832  0.2352
   18MOL    H92 5566   2.050   6.405   0.799  2.9530  1.5836 -0.3301
   18MOL    H93 5567   1.899   6.380   0.606  0.0806 -0.9919  1.0347
   18MOL    H94 5568   2.165   6.136   0.387 -1.8335 -0.5159  0.5359
   18MOL    H95 5569   2.328   6.139   0.590  0.3075  1.3157  1.5134
   18MOL    H96 5570   2.237   6.081   0.841 -0.4456  0.1670  1.0835
   18MOL    H97 5571   2.395   6.141   0.896  0.0771  1.0368 -0.7607
   18MOL    C98 5572   2.253   6.164   1.046 -0.0679  1.0619  0.0420
   18MOL    C99 5573   2.110   6.216   1.055  0.6125 -0.0510 -0.0482
   18MOL   C100 5574   2.005   6.131   1.015  0.8170  0.2093 -0.1620
   18MOL   C101 5575   1.872   6.180   1.015  0.4049 -0.0495 -0.6894
   18MOL   C102 5576   1.844   6.321   1.030 -0.3543  0.0395 -0.7040
   18MOL   F103 5577   1.715   6.375   1.018  0.7840 -0.0126  0.1480
   18MOL   C104 5578   1.954   6.406   1.069 -0.1269  0.6209 -0.0891
   18MOL   C105 5579   2.083   6.351   1.094  0.2277  0.1807  0.1531
   18MOL   C106 5580   2.275   6.039   1.126  0.3659  0.4199 -0.6675
   18MOL   H107 5581   2.318   6.240   1.089 -1.2028 -0.3713  4.5784
   18MOL   H108 5582   2.017   6.025   0.996 -1.3887  0.0264 -0.6283
   18MOL   H109 5583   1.798   6.108   0.984 -1.3081  0.6260  1.6596
   18MOL   H110 5584   1.926   6.510   1.081  1.0589  1.2002 -2.1529
   18MOL   H111 5585   2.156   6.428   1.116  1.0406 -0.6194  0.2994
   18MOL   H112 5586   2.220   6.061   1.218  0.0708 -0.1102 -0.7131
   18MOL   H113 5587   2.216   5.953   1.092  0.2245  0.0518  0.4854
   18MOL   C114 5588   2.428   6.003   1.144 -0.0911  0.3363  0.3840
   18MOL   C115 5589   2.515   6.120   1.201 -0.4137  0.0480 -0.4901
   18MOL   C116 5590   2.481   6.185   1.318  0.5337 -0.0686  0.1351
   18MOL   C117 5591   2.564   6.287   1.367  0.1407  0.3349 -0.3176
   18MOL   C118 5592   2.689   6.313   1.308 -0.0021 -0.4527  1.0771
   18MOL   F119 5593   2.773   6.407   1.359  0.3112 -0.5732 -0.1727
   18MOL   C120 5594   2.733   6.246   1.195  0.2647 -0.6174  0.0833
   18MOL   C121 5595   2.648   6.143   1.147 -0.4851 -0.2887 -0.2361
   18MOL   C122 5596   2.448   5.884   1.243  0.7048  0.5384  0.2060
   18MOL   H123 5597   2.471   5.961   1.053  0.1287  0.4734  0.4262
   18MOL   H124 5598   2.386   6.166   1.366  0.0955 -1.1796 -1.1395
   18MOL   H125 5599   2.536   6.324   1.465  1.7777 -0.0197  0.3032
   18MOL   H126 5600   2.830   6.267   1.152  1.4914 -2.0685  2.0235
   18MOL   H127 5601   2.685   6.093   1.059  0.6643  0.0447  0.0507
   18MOL   H128 5602   2.553   5.882   1.270  0.8112  2.6521  0.0404
   18MOL   H129 5603   2.381   5.916   1.323  0.9310  0.4923  0.4147
   18MOL   C130 5604   2.410   5.755   1.174  0.1760  0.7982  0.2965
   18MOL   C131 5605   2.514   5.712   1.068 -0.6464 -0.5735 -0.0243
   18MOL   C132 5606   2.474   5.719   0.933  0.1441  0.2188 -0.2027
   18MOL   C133 5607   2.565   5.680   0.829 -0.9341  0.6063  0.3026
   18MOL   C134 5608   2.691   5.633   0.872  0.4109 -0.7089 -0.0467
   18MOL   F135 5609   2.789   5.600   0.779  0.3217 -0.2515 -0.2403
   18MOL   C136 5610   2.731   5.619   1.006 -0.3608  0.3154 -0.2571
   18MOL   C137 5611   2.639   5.664   1.103 -0.3968  0.8748  0.1996
   18MOL   C138 5612   2.389   5.644   1.285  0.1433  0.8347  0.3039
   18MOL   H139 5613   2.314   5.757   1.123 -0.1316 -0.9901  0.7741
   18MOL   H140 5614   2.381   5.757   0.893  1.0138  0.4310 -2.0751
   18MOL   H141 5615   2.528   5.683   0.728 -1.7507 -1.5283  0.5168
   18MOL   H142 5616   2.832   5.589   1.028  0.5414  2.6144 -1.1222
   18MOL   H143 5617   2.665   5.652   1.207  1.1983 -0.5125 -0.3392
   18MOL   H144 5618   2.473   5.622   1.352  0.2124  0.2464  0.0317
   18MOL   H145 5619   2.320   5.682   1.361  1.1610 -0.7978  2.1163
   18MOL   C146 5620   2.335   5.503   1.240  0.1627  0.3321 -0.3276
   18MOL   C147 5621   2.314   5.403   1.358  0.4674 -0.3629  0.2815
   18MOL   C148 5622   2.399   5.289   1.361 -0.4267 -0.3585 -0.1597
   18MOL   C149 5623   2.382   5.195   1.461 -0.4799 -0.2986 -0.6363
   18MOL   C150 5624   2.289   5.214   1.570  0.2981 -0.1836  0.2552
   18MOL   F151 5625   2.287   5.136   1.681 -0.0136 -0.0539 -0.4157
   18MOL   C152 5626   2.201   5.323   1.569 -0.0396 -0.2362 -0.2775
   18MOL   C153 5627   2.214   5.422   1.459 -0.2373  0.0855  0.4185
   18MOL   C154 5628   2.202   5.508   1.151 -0.4617 -0.1755  0.0118
   18MOL   H155 5629   2.406   5.453   1.173 -0.0730  0.3205 -0.5707
   18MOL   H156 5630   2.471   5.274   1.282  1.9050 -0.0134  1.8406
   18MOL   H157 5631   2.443   5.106   1.466  0.3732  0.3073 -0.2456
   18MOL   H158 5632   2.135   5.341   1.653  0.7431 -1.2181  0.5572
   18MOL   H159 5633   2.159   5.515   1.459 -0.2895  0.0587 -1.0775
   18MOL   H160 5634   2.124   5.540   1.220 -0.4124  0.4812 -0.2350
   18MOL   H161 5635   2.200   5.585   1.074 -0.7523 -0.3213 -0.1286
   18MOL   C162 5636   2.168   5.378   1.081 -0.3813 -0.7938 -0.3215
   18MOL   C163 5637   2.018   5.364   1.045 -0.7400  0.1893  0.1113
   18MOL   C164 5638   1.944   5.245   1.073 -0.1376 -0.0556  0.4007
   18MOL   C165 5639   1.808   5.234   1.040 -0.1052 -0.4727 -0.0311
   18MOL   C166 5640   1.739   5.341   0.979  1.0079 -0.4689  0.1078
   18MOL   F167 5641   1.604   5.338   0.967  0.6141 -0.5828  0.5151
   18MOL   C168 5642   1.814   5.451   0.943 -0.3918 -0.0910  0.6856
   18MOL   C169 5643   1.948   5.466   0.980 -0.2625  0.1138  0.3380
   18MOL   C170 5644   2.254   5.363   0.943  0.2059 -0.7355 -1.0459
   18MOL   H171 5645   2.195   5.297   1.148  3.5965 -0.2741 -1.1735
   18MOL   H172 5646   1.981   5.164   1.134 -2.3427 -1.2380  0.2366
   18MOL   H173 5647   1.749   5.150   1.072  0.5857 -1.2690 -0.8192
   18MOL   H174 5648   1.774   5.531   0.882  1.2339  1.3298  1.4446
   18MOL   H175 5649   1.996   5.560   0.957 -0.8084  0.4264  0.4680
   18MOL   H176 5650   2.216   5.443   0.879 -0.6623 -1.0216 -0.8991
   18MOL   H177 5651   2.356   5.395   0.960  0.2789 -0.7359 -1.4799
   18MOL   C178 5652   2.241   5.232   0.867  0.5316  0.6385 -0.1161
   18MOL   C179 5653   2.287   5.246   0.718 -0.1885 -0.3464 -0.1541
   18MOL   C180 5654   2.188   5.263   0.611  0.0518 -0.5954 -0.6040
   18MOL   C181 5655   2.222   5.289   0.478 -0.2274  0.0265  0.4216
   18MOL   C182 5656   2.361   5.304   0.445  0.1328 -0.4805  0.2203
   18MOL   F183 5657   2.390   5.321   0.312  0.1944 -0.2705 -0.6259
   18MOL   C184 5658   2.455   5.293   0.546  0.0575 -0.0334 -0.2694
   18MOL   C185 5659   2.425   5.255   0.676  0.3056  0.3230 -0.2175
   18MOL   C186 5660   2.281   5.105   0.944  0.2371 -0.5761  0.5565
   18MOL   H187 5661   2.133   5.224   0.855  0.4557  1.9251 -0.4297
   18MOL   H188 5662   2.085   5.260   0.645  0.7870  0.3957  1.8248
   18MOL   H189 5663   2.143   5.301   0.405 -1.1869  0.2311  1.4685
   18MOL   H190 5664   2.561   5.295   0.527  0.0508 -4.4442 -1.3035
   18MOL   H191 5665   2.507   5.230   0.741 -0.8112 -0.2777  0.9728
   18MOL   H192 5666   2.367   5.113   1.011  1.6829 -1.5159 -1.1784
   18MOL   H193 5667   2.204   5.087   1.019 -0.7896 -0.4272 -0.4605
   18MOL   C194 5668   2.311   4.978   0.862  0.1603  0.4257  0.2780
   18MOL   C195 5669   2.385   4.867   0.946  0.1988 -0.3261  0.5077
   18MOL   C196 5670   2.325   4.817   1.069 -0.0668 -0.4123 -0.2690
   18MOL   C197 5671   2.398   4.718   1.149  0.0371 -0.3222 -0.6669
   18MOL   C198 5672   2.527   4.684   1.108  0.4598  0.2080  0.3183
   18MOL   F199 5673   2.603   4.596   1.184  0.2912  0.1866  0.0894
   18MOL   C200 5674   2.590   4.733   0.991 -1.2773  0.3555 -1.0670
   18MOL   C201 5675   2.518   4.823   0.918 -0.7486 -0.4726 -0.6551
   18MOL   C202 5676   2.172   4.935   0.803 -0.0752 -0.2797 -0.6515
   18MOL   H203 5677   2.383   5.004   0.784  1.2948 -0.9779  0.8287
   18MOL   H204 5678   2.223   4.845   1.088 -0.3338  0.0512 -2.2261
   18MOL   H205 5679   2.356   4.678   1.240 -0.0390 -1.7384 -1.3069
   18MOL   H206 5680   2.690   4.696   0.980 -0.2912  1.0925  3.9336
   18MOL   H207 5681   2.559   4.870   0.830 -3.2164  0.4437 -1.3793
   18MOL   H208 5682   2.121   4.892   0.890 -0.5164  0.6084 -0.4695
   18MOL   H209 5683   2.111   5.013   0.759 -1.6001 -1.0745 -0.0104
   18MOL   C210 5684   2.176   4.823   0.694  0.6674  0.1591  0.0315
   18MOL   C211 5685   2.052   4.732   0.717 -0.2781  0.0441  0.0001
   18MOL   C212 5686   1.920   4.775   0.688  0.1630  0.4000 -0.1040
   18MOL   C213 5687   1.819   4.677   0.700  0.1017  0.1993  0.2785
   18MOL   C214 5688   1.842   4.553   0.750 -0.1034  0.8200 -0.0499
   18MOL   F215 5689   1.737   4.465   0.763 -0.1267  0.2534  0.0596
   18MOL   C216 5690   1.971   4.512   0.787  0.4444 -0.1110  0.1729
   18MOL   C217 5691   2.076   4.598   0.763 -0.4100 -0.8917  0.3439
   18MOL   C218 5692   2.206   4.881   0.550  0.3322 -0.4441 -0.6353
   18MOL   H219 5693   2.261   4.761   0.720 -2.7467 -4.0893  1.6038
   18MOL   H220 5694   1.896   4.867   0.638  2.3152  0.6417 -0.7225
   18MOL   H221 5695   1.716   4.701   0.677  0.3678  1.3858  0.3226
   18MOL   H222 5696   1.991   4.412   0.823 -0.5419 -0.6352 -0.6990
   18MOL   H223 5697   2.174   4.558   0.783 -1.1431 -3.9483 -1.7565
   18MOL   H224 5698   2.144   4.970   0.533 -0.9446 -0.9904  0.9973
   18MOL   H225 5699   2.308   4.919   0.549  0.1176  0.4117  2.8986
   18MOL   C226 5700   2.173   4.791   0.432 -0.1499 -0.3296 -0.4160
   18MOL   C227 5701   2.176   4.875   0.300  0.4258  0.4285 -0.3538
   18MOL   C228 5702   2.084   4.833   0.202  0.1356 -0.1702 -0.4613
   18MOL   C229 5703   2.081   4.900   0.077  0.3073 -0.3824  0.4448
   18MOL   C230 5704   2.173   5.009   0.055  0.2519 -0.3785 -0.2855
   18MOL   F231 5705   2.169   5.070   8.164 -0.0185  0.6667 -0.7786
   18MOL   C232 5706   2.271   5.040   0.151  0.4387  0.0147  0.5397
   18MOL   C233 5707   2.268   4.978   0.277  0.5271  0.0051  0.1508
   18MOL   C234 5708   2.261   4.658   0.434  0.4368  0.3893  0.8949
   18MOL   H235 5709   2.071   4.751   0.434 -0.4140  0.3554 -0.2122
   18MOL   H236 5710   2.016   4.751   0.220  0.2146  0.0156  0.6877
   18MOL   H237 5711   2.019   4.869   8.229  0.5775  0.1087  0.0494
   18MOL   H238 5712   2.343   5.116   0.123 -0.7484  0.3916 -1.6227
   18MOL   H239 5713   2.346   5.006   0.346  1.3358  0.2191 -0.8428
   18MOL   H240 5714   2.255   4.592   0.521  2.4676 -1.6749 -0.4629
   18MOL   H241 5715   2.215   4.602   0.352  0.0615  0.9755  0.7061
   18MOL   C242 5716   2.406   4.675   0.376 -0.9803  0.7007  0.2527
   18MOL   C243 5717   2.512   4.716   0.479  0.0073 -0.4013 -0.2097
   18MOL   C244 5718   2.582   4.837   0.455  0.4114  0.5842 -0.2259
   18MOL   C245 5719   2.694   4.866   0.535  0.7270  0.2658  0.1735
   18MOL   C246 5720   2.732   4.786   0.641  0.3199  0.7377  0.1250
   18MOL   F247 5721   2.833   4.823   0.718 -0.1180 -0.1174 -0.3616
   18MOL   C248 5722   2.659   4.670   0.663  0.3009  0.8189  0.4547
   18MOL   C249 5723   2.549   4.632   0.584  0.3568 -0.1342  0.3229
   18MOL   C250 5724   2.466   4.551   0.293  0.1829 -0.1624  0.7150
   18MOL   H251 5725   2.405   4.761   0.308  0.0876 -0.2192 -0.9325
   18MOL   H252 5726   2.574   4.903   0.370  1.8523  2.6618  1.1966
   18MOL   H253 5727   2.748   4.956   0.512  0.0421  0.7908  0.6154
   18MOL   H254 5728   2.686   4.615   0.751 -0.4218  0.9042  0.7382
   18MOL   H255 5729   2.486   4.550   0.615 -0.8729  1.4018  2.0049
   18MOL   H256 5730   2.575   4.551   0.295  0.2233 -2.9901 -0.1935
   18MOL   H257 5731   2.435   4.456   0.336 -0.4285  0.5231  1.8084
   18MOL   C258 5732   2.420   4.546   0.141  0.0425  0.2432 -0.0444
   18MOL   C259 5733   2.521   4.627   0.058  0.5369  0.3200  0.4805
   18MOL   C260 5734   2.643   4.561   0.032  0.0590  0.2658  0.0005
   18MOL   C261 5735   2.744   4.632   8.199 -0.0719  0.4416  0.1017
   18MOL   C262 5736   2.708   4.761   8.153 -0.3558 -0.0977  0.4424
   18MOL   F263 5737   2.802   4.826   8.081  0.0557  0.1596  0.0892
   18MOL   C264 5738   2.590   4.826   8.184  0.2034 -0.0443  0.4550
   18MOL   C265 5739   2.486   4.757   0.013 -0.0162  0.3413  0.1459
   18MOL   C266 5740   2.399   4.395   0.104  0.3873  0.6877  0.0330
   18MOL   H267 5741   2.328   4.604   0.132 -0.9333 -0.6813  3.3120
   18MOL   H268 5742   2.678   4.462   0.059  1.1252  0.8486  0.7613
   18MOL   H269 5743   2.840   4.586   8.185 -0.2996  0.6700 -2.3403
   18MOL   H270 5744   2.579   4.923   8.137 -0.5344 -0.3899 -0.0963
   18MOL   H271 5745   2.390   4.801   0.038  0.2403  1.1593 -0.2695
   18MOL   H272 5746   2.463   4.320   0.149 -1.8953 -3.3430 -3.0293
   18MOL   H273 5747   2.305   4.372   0.155 -1.9750  4.2726 -2.4266
   18MOL   C274 5748   2.380   4.363   8.184  0.4783  0.0356  0.2075
   18MOL   C275 5749   2.501   4.298   8.123 -0.4553  0.1607 -0.2566
   18MOL   C276 5750   2.546   4.169   8.169 -0.1549 -0.4971  0.1315
   18MOL   C277 5751   2.667   4.115   8.117 -0.1206 -0.2991  0.2816
   18MOL   C278 5752   2.739   4.188   8.023 -0.2319 -0.0999 -0.4717
   18MOL   F279 5753   2.865   4.156   8.000 -0.4643 -0.1106 -0.3378
   18MOL   C280 5754   2.694   4.315   7.971  0.4049 -0.1488  0.1126
   18MOL   C281 5755   2.574   4.370   8.026  0.0487  0.5001  0.0838
   18MOL   C282 5756   2.258   4.270   8.182  0.1080  0.1510 -0.0606
   18MOL   H283 5757   2.369   4.460   8.135 -0.2053 -0.6202 -0.9643
   18MOL   H284 5758   2.488   4.125   0.014 -0.0159 -0.6879  0.1283
   18MOL   H285 5759   2.712   4.025   8.156 -0.3931 -0.1161  1.0415
   18MOL   H286 5760   2.766   4.369   7.913  1.9043 -0.3123  1.7795
   18MOL   H287 5761   2.542   4.470   8.002  0.8568  0.7158 -0.0998
   18MOL   H288 5762   2.269   4.186   0.017  1.3899  0.7196  0.4420
   18MOL   H289 5763   2.161   4.302   8.219  0.5118  0.5783  0.6519
   18MOL   C290 5764   2.228   4.205   8.042  0.2602  0.5871  0.6398
   18MOL   C291 5765   2.112   4.104   8.057  0.8332  0.9685  0.4824
   18MOL   C292 5766   2.131   3.971   8.100 -0.5383 -0.0859  0.2078
   18MOL   C293 5767   2.027   3.875   8.108  0.0986  0.1446 -0.6006
   18MOL   C294 5768   1.900   3.913   8.075  0.0044 -0.3760  0.4236
   18MOL   F295 5769   1.799   3.825   8.078  0.3631 -0.2529 -0.0889
   18MOL   C296 5770   1.874   4.045   8.023 -0.4916 -0.4845 -0.7209
   18MOL   C297 5771   1.977   4.143   8.021 -0.0191 -0.2733  0.4749
   18MOL   C298 5772   2.219   4.300   7.914 -0.2414 -0.8427 -0.0839
   18MOL   H299 5773   2.303   4.131   8.015  0.3861 -0.4684  3.7085
   18MOL   H300 5774   2.227   3.931   8.130 -1.3889 -1.1940  1.5140
   18MOL   H301 5775   2.038   3.774   8.145  0.7880  0.7917  1.0475
   18MOL   H302 5776   1.776   4.069   7.985 -0.8180 -2.7086 -1.3782
   18MOL   H303 5777   1.951   4.242   7.986  4.7931  1.3049  1.0534
   18MOL   H304 5778   2.141   4.370   7.945  0.7392  1.1615 -2.0763
   18MOL   H305 5779   2.306   4.365   7.910  0.8693 -2.3972 -1.4476
   18MOL   C306 5780   2.198   4.225   7.783  0.3494  0.4617  0.0706
   18MOL   C307 5781   2.087   4.295   7.702  0.1467 -0.8697 -0.3717
   18MOL   C308 5782   1.957   4.239   7.682  0.1918  0.0148  0.1522
   18MOL   C309 5783   1.868   4.302   7.592  0.1553 -0.3382  1.4167
   18MOL   C310 5784   1.905   4.420   7.523 -0.9921  0.3419 -0.0199
   18MOL   F311 5785   1.828   4.469   7.431  0.5128  0.0335 -0.0433
   18MOL   C312 5786   2.030   4.488   7.548 -0.2483  0.0284 -0.5223
   18MOL   C313 5787   2.114   4.427   7.647  0.5632  0.1948 -0.1066
   18MOL   C314 5788   2.327   4.205   7.703  0.3354  0.2019  0.5865
   18MOL   H315 5789   2.148   4.129   7.796  0.8612  0.1920  0.0359
   18MOL   H316 5790   1.923   4.152   7.735  0.4935  1.1290  2.2530
   18MOL   H317 5791   1.771   4.263   7.564  0.3336  1.2332 -1.5304
   18MOL   H318 5792   2.051   4.578   7.492  1.0202 -0.8760 -1.5262
   18MOL   H319 5793   2.206   4.482   7.659  0.1301  1.2978 -1.6373
   18MOL   H320 5794   2.316   4.137   7.618  2.0647  2.0265 -1.1439
   18MOL   H321 5795   2.381   4.293   7.671  1.1599 -1.2214 -2.0926
   18MOL   H322 5796   2.393   4.151   7.771  1.2699  2.2524  1.3356
   19MOL     C1 5797   4.712   1.658   4.504  0.5308 -0.1797 -0.2704
   19MOL     C2 5798   4.718   1.803   4.532 -0.5114  0.9361 -0.1189
   19MOL     C3 5799   4.658   1.850   4.655 -0.5380 -0.1812 -0.0406
   19MOL     C4 5800   4.660   1.993   4.678 -0.0611 -0.4093  0.4458
   19MOL     C5 5801   4.723   2.079   4.591 -0.0632 -0.4104 -0.3838
   19MOL     F6 5802   4.723   2.212   4.616  0.2209 -0.0993 -0.1862
   19MOL     C7 5803   4.782   2.029   4.476  0.4305  0.2336 -0.1519
   19MOL     C8 5804   4.779   1.892   4.445 -0.6227 -0.2701 -0.1392
   19MOL     C9 5805   4.854   1.603   4.494  0.7676 -0.3299  0.1880
   19MOL    H10 5806   4.646   1.640   4.418  0.2803 -1.5172  0.1898
   19MOL    H11 5807   4.615   1.776   4.720  0.6994 -2.2188 -1.4802
   19MOL    H12 5808   4.622   2.031   4.771  0.6216 -1.7142  1.2655
   19MOL    H13 5809   4.818   2.094   4.398  0.7203 -0.7711 -0.8529
   19MOL    H14 5810   4.838   1.856   4.363  0.2201 -0.2311  0.4454
   19MOL    H15 5811   4.910   1.643   4.410  0.8914  0.9334  0.8537
   19MOL    H16 5812   4.913   1.629   4.581  0.1993  0.5356  0.3179
   19MOL    H17 5813   4.660   1.623   4.593  1.1602  1.7006  0.8667
   19MOL    C18 5814   4.875   1.451   4.473  0.2679 -0.3792  0.0738
   19MOL    C19 5815   4.843   1.413   4.324 -0.1254 -0.3890 -0.1243
   19MOL    C20 5816   4.939   1.430   4.224  0.4250  0.0593 -0.1518
   19MOL    C21 5817   4.908   1.412   4.089  0.2473  0.7779 -0.3300
   19MOL    C22 5818   4.784   1.361   4.050  0.1105  0.0273  0.3774
   19MOL    F23 5819   4.734   1.364   3.923 -0.0183  0.6763 -0.3611
   19MOL    C24 5820   4.692   1.330   4.151 -0.1274 -1.0477  1.1047
   19MOL    C25 5821   4.715   1.363   4.287 -0.0167 -0.6959  0.3903
   19MOL    C26 5822   5.003   1.408   4.532 -0.5302 -0.1321  0.1134
   19MOL    H27 5823   4.796   1.402   4.530 -0.5120  0.6604 -0.1095
   19MOL    H28 5824   5.038   1.455   4.259  0.4608 -0.4837  0.1349
   19MOL    H29 5825   4.984   1.425   4.013  2.0240 -3.0724  0.6808
   19MOL    H30 5826   4.592   1.298   4.128 -1.3103  1.9439  1.9678
   19MOL    H31 5827   4.640   1.346   4.362  1.7510 -1.6141  1.9850
   19MOL    H32 5828   5.078   1.467   4.479 -1.6511  3.0592  1.9538
   19MOL    H33 5829   5.012   1.430   4.638 -1.9987 -0.7322  0.3701
   19MOL    C34 5830   5.031   1.256   4.518  0.2275 -0.4810  0.5618
   19MOL    C35 5831   5.178   1.229   4.526  0.4300 -0.2723 -0.2223
   19MOL    C36 5832   5.257   1.238   4.650  0.1925 -0.3237 -0.0774
   19MOL    C37 5833   5.393   1.204   4.652 -0.9536  0.3703 -0.4789
   19MOL    C38 5834   5.458   1.156   4.539 -0.7177 -0.6197  0.0498
   19MOL    F39 5835   5.590   1.110   4.544  0.0130  0.2464 -0.0484
   19MOL    C40 5836   5.389   1.159   4.419 -0.3913 -0.9316  0.2263
   19MOL    C41 5837   5.249   1.189   4.414  0.1240 -0.6657 -0.0703
   19MOL    C42 5838   4.941   1.163   4.606  0.2441 -0.0835 -0.4090
   19MOL    H43 5839   5.003   1.239   4.414 -0.9361  2.1848  0.4035
   19MOL    H44 5840   5.217   1.276   4.743  1.9110  0.4147  0.3725
   19MOL    H45 5841   5.455   1.202   4.740  1.9479  0.4038 -2.4651
   19MOL    H46 5842   5.435   1.127   4.327  0.9584  0.4752  0.3844
   19MOL    H47 5843   5.203   1.178   4.317  0.4196  0.4564 -0.3469
   19MOL    H48 5844   4.998   1.127   4.692  0.4797  1.6114  0.1599
   19MOL    H49 5845   4.862   1.226   4.648 -0.3458 -1.5861  0.7781
   19MOL    C50 5846   4.874   1.047   4.544 -0.3526  0.6939 -1.3095
   19MOL    C51 5847   4.961   0.970   4.446 -0.1724  0.2875  0.9214
   19MOL    C52 5848   4.916   0.919   4.321 -0.0542 -0.5020  0.0656
   19MOL    C53 5849   4.991   0.838   4.241 -0.1129 -0.2946  0.0315
   19MOL    C54 5850   5.121   0.803   4.276  0.7922 -0.5945 -0.3281
   19MOL    F55 5851   5.201   0.733   4.194 -0.4824 -0.1365  0.0286
   19MOL    C56 5852   5.171   0.840   4.401 -0.0574  0.1321 -0.1456
   19MOL    C57 5853   5.088   0.924   4.483  0.1061 -0.5856  0.0253
   19MOL    C58 5854   4.816   0.950   4.648 -0.0270  0.0465 -0.0482
   19MOL    H59 5855   4.789   1.094   4.495  0.0852  2.5575 -0.3094
   19MOL    H60 5856   4.812   0.941   4.300  0.1796  0.9111  0.3487
   19MOL    H61 5857   4.945   0.796   4.153  0.4234  1.4084 -1.0656
   19MOL    H62 5858   5.265   0.803   4.439  1.1352 -0.0907 -3.2084
   19MOL    H63 5859   5.120   0.947   4.584  0.7354 -2.6801  0.3353
   19MOL    H64 5860   4.761   0.874   4.592 -1.3909  0.4679  0.6831
   19MOL    H65 5861   4.894   0.900   4.704 -0.2762 -0.1246  0.1502
   19MOL    C66 5862   4.709   1.020   4.741  0.0105 -0.7908  0.3298
   19MOL    C67 5863   4.607   1.106   4.664 -0.0630  0.5073 -0.3359
   19MOL    C68 5864   4.521   1.053   4.564 -0.0005 -0.4452  0.3567
   19MOL    C69 5865   4.426   1.130   4.504  0.3591  0.3564  0.2907
   19MOL    C70 5866   4.426   1.269   4.525  0.7913  0.0831  0.2310
   19MOL    F71 5867   4.339   1.336   4.449 -0.0422 -0.2215 -0.6797
   19MOL    C72 5868   4.504   1.325   4.624  0.3021 -0.0110 -0.8302
   19MOL    C73 5869   4.594   1.242   4.694  0.0342  0.2637  0.2892
   19MOL    C74 5870   4.635   0.908   4.825 -0.1116 -0.5203  0.2006
   19MOL    H75 5871   4.764   1.083   4.811 -0.3631 -2.0261  1.7496
   19MOL    H76 5872   4.532   0.949   4.539 -0.1653 -0.4928  0.4726
   19MOL    H77 5873   4.369   1.094   4.420 -0.9516 -0.8399  1.6699
   19MOL    H78 5874   4.498   1.430   4.648  0.9422 -0.3194  0.7151
   19MOL    H79 5875   4.655   1.277   4.777  0.8724 -1.7946  0.5801
   19MOL    H80 5876   4.547   0.952   4.872  0.7573  0.8840  0.5437
   19MOL    H81 5877   4.595   0.832   4.758  0.0911 -0.7368  0.3286
   19MOL    C82 5878   4.714   0.843   4.937 -0.0128 -0.6246  0.3650
   19MOL    C83 5879   4.721   0.940   5.056 -0.2747 -0.0387  0.3879
   19MOL    C84 5880   4.848   1.005   5.086 -0.0500 -0.1710  0.4060
   19MOL    C85 5881   4.853   1.097   5.199  0.1579 -0.4327  0.6017
   19MOL    C86 5882   4.734   1.126   5.271  0.1995 -0.2442  0.0421
   19MOL    F87 5883   4.734   1.224   5.368  0.6150 -0.0893 -0.0050
   19MOL    C88 5884   4.617   1.053   5.252  0.2301 -0.3198  0.0091
   19MOL    C89 5885   4.612   0.965   5.140  0.9374  0.2881  0.5754
   19MOL    C90 5886   4.653   0.711   4.984  0.6168 -0.0210 -0.0475
   19MOL    H91 5887   4.818   0.837   4.906 -0.5528  2.5369 -2.3655
   19MOL    H92 5888   4.935   0.984   5.026 -0.6887  0.3870 -0.7243
   19MOL    H93 5889   4.939   1.162   5.207 -1.1144  1.1781  1.7029
   19MOL    H94 5890   4.532   1.064   5.318  0.8339 -1.0726  0.9189
   19MOL    H95 5891   4.523   0.906   5.125  0.5072  1.2440 -0.6235
   19MOL    H96 5892   4.714   0.679   5.069  1.8774  0.1484 -0.8770
   19MOL    H97 5893   4.552   0.724   5.023  1.2095 -0.1137  1.5634
   19MOL    C98 5894   4.668   0.600   4.880 -0.0109  0.6074  0.4211
   19MOL    C99 5895   4.807   0.580   4.828 -0.1632  0.0623  0.3668
   19MOL   C100 5896   4.847   0.609   4.696  0.3239  0.4597  0.0180
   19MOL   C101 5897   4.980   0.599   4.655  0.2806  0.3623  0.1085
   19MOL   C102 5898   5.075   0.559   4.751  0.2998  0.5827  0.2474
   19MOL   F103 5899   5.201   0.534   4.717  0.1804 -0.0307 -0.1252
   19MOL   C104 5900   5.033   0.535   4.882  0.0242  0.9351  0.5630
   19MOL   C105 5901   4.899   0.538   4.918  0.3551 -0.3479  0.3802
   19MOL   C106 5902   4.591   0.471   4.929 -0.6929  0.0219  0.5109
   19MOL   H107 5903   4.606   0.633   4.797 -0.1674  0.1303  0.3467
   19MOL   H108 5904   4.778   0.636   4.617  1.7913 -0.8982 -1.7535
   19MOL   H109 5905   5.012   0.619   4.555 -1.3972 -1.4265 -0.8363
   19MOL   H110 5906   5.112   0.509   4.950 -0.9682 -0.0759  1.3408
   19MOL   H111 5907   4.867   0.537   5.022  2.4805 -0.0045  1.0550
   19MOL   H112 5908   4.636   0.438   5.022  1.2529 -0.6443 -0.6428
   19MOL   H113 5909   4.490   0.507   4.951 -0.7441 -0.2343  0.7069
   19MOL   C114 5910   4.596   0.363   4.811  0.0936 -0.6301  0.0789
   19MOL   C115 5911   4.711   0.259   4.817  0.2127  0.0800  0.6741
   19MOL   C116 5912   4.746   0.195   4.934  0.8586 -0.0940  0.0952
   19MOL   C117 5913   4.858   0.112   4.938 -0.6162  0.1915  0.4281
   19MOL   C118 5914   4.935   0.093   4.822 -0.5629 -0.2282  0.4685
   19MOL   F119 5915   5.037   0.007   4.826  0.0681 -0.0673 -0.4842
   19MOL   C120 5916   4.906   0.155   4.701 -0.3337  0.1989  0.1069
   19MOL   C121 5917   4.791   0.235   4.697  0.2134  0.3734 -0.2537
   19MOL   C122 5918   4.460   0.300   4.782  0.0355  0.9959  0.1133
   19MOL   H123 5919   4.615   0.416   4.718  1.1407  2.0471  1.7642
   19MOL   H124 5920   4.679   0.201   5.019  0.6749  2.5053 -0.1737
   19MOL   H125 5921   4.887   0.071   5.034 -0.5376  0.2771  0.4410
   19MOL   H126 5922   4.971   0.132   4.618 -1.1649  1.7301 -0.9948
   19MOL   H127 5923   4.763   0.285   4.605 -1.5002 -1.6845 -0.8813
   19MOL   H128 5924   4.476   0.235   4.697  2.9174  2.6608 -0.6794
   19MOL   H129 5925   4.430   0.237   4.866 -1.7198  0.8924 -0.5564
   19MOL   C130 5926   4.327   0.390   4.756 -0.3029 -0.3739 -0.5667
   19MOL   C131 5927   4.367   0.500   4.655 -0.1245 -0.1361 -0.2313
   19MOL   C132 5928   4.345   0.637   4.690  0.4275  0.1901  0.3818
   19MOL   C133 5929   4.370   0.735   4.594  0.0944  0.5834 -0.1376
   19MOL   C134 5930   4.430   0.709   4.474 -0.2562  0.4387  0.8215
   19MOL   F135 5931   4.459   0.805   4.388  0.2928  0.0384 -0.4067
   19MOL   C136 5932   4.443   0.574   4.439  0.6722  0.3658  0.0720
   19MOL   C137 5933   4.416   0.470   4.526 -0.4476  0.1397 -0.8473
   19MOL   C138 5934   4.201   0.317   4.690 -0.1225 -0.0807  0.3589
   19MOL   H139 5935   4.303   0.438   4.851  2.1591 -0.7024  0.2548
   19MOL   H140 5936   4.305   0.668   4.786  0.5659 -0.2284  0.5751
   19MOL   H141 5937   4.347   0.838   4.617 -0.0958  0.4854  0.1136
   19MOL   H142 5938   4.478   0.557   4.338 -1.4866 -1.8475 -0.3626
   19MOL   H143 5939   4.417   0.369   4.489  1.7398 -0.3291  0.4149
   19MOL   H144 5940   4.118   0.386   4.686 -1.4753 -1.7326 -0.6480
   19MOL   H145 5941   4.231   0.279   4.592 -0.5658 -2.2523  1.0349
   19MOL   C146 5942   4.149   0.190   4.768  0.5729 -0.1627 -0.1852
   19MOL   C147 5943   4.145   0.205   4.919  0.4220 -0.1876 -0.5685
   19MOL   C148 5944   4.060   0.301   4.978 -0.1441  0.2153 -0.1058
   19MOL   C149 5945   4.033   0.300   5.118 -0.3404 -0.1813  0.3467
   19MOL   C150 5946   4.110   0.210   5.194  0.5615  0.0109 -0.1176
   19MOL   F151 5947   4.093   0.198   5.328  0.2434  0.0268  0.0112
   19MOL   C152 5948   4.202   0.126   5.139 -0.8720 -0.7669  0.2889
   19MOL   C153 5949   4.214   0.115   4.996  0.6340  0.5791  0.2096
   19MOL   C154 5950   4.025   0.144   4.710  0.6003 -0.3724  0.2711
   19MOL   H155 5951   4.220   0.114   4.736 -1.5244 -1.2859 -2.2912
   19MOL   H156 5952   4.016   0.372   4.908 -0.1615 -0.0695 -0.3830
   19MOL   H157 5953   3.963   0.365   5.166  0.6410  2.5309 -1.7890
   19MOL   H158 5954   4.268   0.061   5.195  1.7119  0.1378 -1.6027
   19MOL   H159 5955   4.278   0.034   4.962 -1.8328 -1.5775  0.5420
   19MOL   H160 5956   3.980   0.078   4.785 -0.3942 -0.4628 -0.3984
   19MOL   H161 5957   3.960   0.230   4.693  0.0411 -0.6338  1.0246
   19MOL   C162 5958   4.019   0.062   4.581 -0.6149  0.5648  0.4148
   19MOL   C163 5959   4.035   8.146   4.606  0.2246 -0.9236 -0.1530
   19MOL   C164 5960   3.961   8.086   4.710 -0.5299 -0.1874 -0.4229
   19MOL   C165 5961   3.988   7.951   4.740 -0.0222  0.3667 -0.6724
   19MOL   C166 5962   4.057   7.873   4.649  0.0080 -0.3919  0.2774
   19MOL   F167 5963   4.079   7.738   4.674  0.1887 -0.1051  0.0011
   19MOL   C168 5964   4.116   7.936   4.537  0.2119  0.3167 -0.6931
   19MOL   C169 5965   4.101   8.071   4.512  0.5250  0.1271  0.2004
   19MOL   C170 5966   3.891   0.076   4.499 -0.0012 -0.0387 -0.4395
   19MOL   H171 5967   4.102   0.093   4.518 -1.3856 -0.1972 -1.0034
   19MOL   H172 5968   3.891   8.138   4.773  0.3594  0.9462 -0.3480
   19MOL   H173 5969   3.946   7.903   4.827 -1.8984  0.4381 -1.5283
   19MOL   H174 5970   4.177   7.885   4.464  1.0948  2.4703 -1.5278
   19MOL   H175 5971   4.159   8.120   4.436  4.3494  0.5749  3.2470
   19MOL   H176 5972   3.885   8.220   4.440  0.1139 -1.5593  1.8018
   19MOL   H177 5973   3.799   0.070   4.558  0.2064 -2.2508 -0.3190
   19MOL   C178 5974   3.881   0.206   4.414  0.5455 -0.3412  0.5980
   19MOL   C179 5975   4.011   0.231   4.331  0.2649 -0.4410 -0.8836
   19MOL   C180 5976   4.088   0.123   4.273 -0.0686  0.2226  0.2554
   19MOL   C181 5977   4.195   0.159   4.195  0.2638 -0.1062  0.3499
   19MOL   C182 5978   4.232   0.292   4.172  0.2327  0.2786 -0.2778
   19MOL   F183 5979   4.332   0.317   4.082 -0.3208  0.0759  0.1616
   19MOL   C184 5980   4.159   0.395   4.229  0.0815  0.1901  0.0129
   19MOL   C185 5981   4.046   0.367   4.306 -0.7513 -0.5177 -0.3523
   19MOL   C186 5982   3.760   0.193   4.326 -0.1491  0.6116  0.3087
   19MOL   H187 5983   3.869   0.295   4.475 -1.4973  1.2374 -2.0130
   19MOL   H188 5984   4.051   0.022   4.270 -1.0727  0.5923 -0.2572
   19MOL   H189 5985   4.254   0.085   4.143  2.3272  1.2396  0.6847
   19MOL   H190 5986   4.196   0.495   4.215  1.2263 -0.6773 -3.6634
   19MOL   H191 5987   3.997   0.451   4.353  0.4738 -1.4403  2.6688
   19MOL   H192 5988   3.758   0.289   4.274 -0.8264 -0.6430 -2.0742
   19MOL   H193 5989   3.776   0.117   4.250  3.5612 -0.2731  1.8779
   19MOL   C194 5990   3.623   0.187   4.398 -0.4203 -0.4229 -0.5135
   19MOL   C195 5991   3.604   0.267   4.526  0.1197  0.2690 -0.0393
   19MOL   C196 5992   3.602   0.410   4.541 -0.0412 -0.4146 -0.5137
   19MOL   C197 5993   3.578   0.476   4.660  0.0390  0.1457 -0.7671
   19MOL   C198 5994   3.538   0.404   4.769 -0.1737  0.1947 -1.0601
   19MOL   F199 5995   3.502   0.460   4.889 -0.4504  0.6571  0.1052
   19MOL   C200 5996   3.534   0.262   4.761 -1.0332  0.2869 -0.1683
   19MOL   C201 5997   3.566   0.196   4.644 -0.2507 -0.3689 -0.5439
   19MOL   C202 5998   3.502   0.221   4.303  0.3442  0.1323 -0.6432
   19MOL   H203 5999   3.614   0.083   4.428  0.4245 -0.8908 -1.8326
   19MOL   H204 6000   3.641   0.456   4.451  1.7761 -1.7897 -0.4555
   19MOL   H205 6001   3.576   0.584   4.669 -0.7264  0.2076 -1.5515
   19MOL   H206 6002   3.524   0.202   4.851  0.3983  0.6035  0.2202
   19MOL   H207 6003   3.572   0.088   4.642  1.3398 -0.2893 -0.2769
   19MOL   H208 6004   3.502   0.325   4.273 -0.2773  0.3210 -0.0079
   19MOL   H209 6005   3.513   0.172   4.207 -0.5461 -0.6304 -0.3655
   19MOL   C210 6006   3.354   0.201   4.347 -0.3662  0.5894 -0.4358
   19MOL   C211 6007   3.286   0.335   4.383 -0.6426  0.1925  0.5314
   19MOL   C212 6008   3.268   0.439   4.288  0.5682 -0.1285 -0.2485
   19MOL   C213 6009   3.195   0.553   4.324 -0.3237 -0.1875 -0.0669
   19MOL   C214 6010   3.152   0.570   4.459  0.0635 -0.1365 -0.1345
   19MOL   F215 6011   3.079   0.675   4.500  0.1653 -0.4996 -0.3068
   19MOL   C216 6012   3.169   0.465   4.550 -0.4134 -0.0537  0.3781
   19MOL   C217 6013   3.245   0.354   4.519  0.7419  0.7651  0.2230
   19MOL   C218 6014   3.275   0.126   4.242  0.2560 -0.2484  0.2733
   19MOL   H219 6015   3.344   0.149   4.442  0.5462  0.9368 -0.1467
   19MOL   H220 6016   3.297   0.426   4.185 -0.2304  0.8103 -0.6000
   19MOL   H221 6017   3.188   0.629   4.247 -0.9653 -0.3660 -0.1890
   19MOL   H222 6018   3.152   0.483   4.655  1.3050  0.9272  0.5037
   19MOL   H223 6019   3.283   0.292   4.599 -0.0165 -0.0739 -0.0638
   19MOL   H224 6020   3.171   0.135   4.276 -0.2947  1.7792 -1.7866
   19MOL   H225 6021   3.279   0.180   4.148 -3.6195 -0.5038 -0.1389
   19MOL   C226 6022   3.307   8.211   4.219 -0.8647  0.7494 -0.6970
   19MOL   C227 6023   3.392   8.147   4.338 -0.6020 -0.1589  0.0176
   19MOL   C228 6024   3.524   8.100   4.311 -0.0371 -0.2238  1.1068
   19MOL   C229 6025   3.609   8.050   4.413  0.0970 -0.2297  0.3763
   19MOL   C230 6026   3.561   8.031   4.545  0.5748 -0.6301 -0.4701
   19MOL   F231 6027   3.645   7.974   4.633 -0.1141 -0.5204  0.4005
   19MOL   C232 6028   3.418   8.060   4.570 -0.2269 -0.3201 -0.7884
   19MOL   C233 6029   3.341   8.126   4.469  0.2449  0.3040  0.1398
   19MOL   C234 6030   3.191   8.126   4.183  1.0147  1.0392  0.0497
   19MOL   H235 6031   3.376   8.200   4.135 -4.4676 -0.4693 -3.5821
   19MOL   H236 6032   3.558   8.109   4.209  0.5945 -1.0589  1.2407
   19MOL   H237 6033   3.711   8.017   4.395  1.0294  3.4150 -1.4354
   19MOL   H238 6034   3.371   8.057   4.667 -0.6641 -0.8097 -1.0130
   19MOL   H239 6035   3.238   8.150   4.491 -0.2446  0.0865 -1.8827
   19MOL   H240 6036   3.237   8.029   4.165  1.9054  1.1517  1.5636
   19MOL   H241 6037   3.122   8.111   4.266  1.0313 -0.2185 -0.1540
   19MOL   C242 6038   3.124   8.161   4.048 -0.4433  0.0294  0.1989
   19MOL   C243 6039   3.219   8.200   3.928  0.0808 -0.4867 -0.1199
   19MOL   C244 6040   3.214   0.093   3.870 -0.0206  0.1600  0.6694
   19MOL   C245 6041   3.302   0.137   3.771 -0.1701  0.3592 -0.3727
   19MOL   C246 6042   3.393   0.043   3.715 -0.1903  0.3050  0.1633
   19MOL   F247 6043   3.477   0.083   3.616  0.1965  0.0176  0.4720
   19MOL   C248 6044   3.387   8.144   3.760 -0.2748  0.0742  0.3569
   19MOL   C249 6045   3.314   8.112   3.874 -0.0207 -0.0354  0.0234
   19MOL   C250 6046   3.006   8.078   4.005  0.9213  1.0571 -0.6497
   19MOL   H251 6047   3.084   0.025   4.072 -2.8652 -0.8043 -0.2951
   19MOL   H252 6048   3.148   0.163   3.920 -1.4209 -0.6208 -0.0560
   19MOL   H253 6049   3.297   0.239   3.735 -0.9335  0.5997  0.3940
   19MOL   H254 6050   3.460   8.073   3.725 -1.0897  0.0431 -1.2931
   19MOL   H255 6051   3.325   8.011   3.911  1.6411 -0.1023 -0.6039
   19MOL   H256 6052   2.919   8.143   4.018 -0.2197 -0.6226  0.1717
   19MOL   H257 6053   3.001   8.062   3.897 -1.0542  0.3276 -0.4793
   19MOL   C258 6054   2.973   7.938   4.071  0.7987 -0.2532  0.7498
   19MOL   C259 6055   2.829   7.908   4.039  0.3572  0.1206 -0.0423
   19MOL   C260 6056   2.722   7.959   4.120  0.2352  0.1864  0.2503
   19MOL   C261 6057   2.591   7.919   4.099 -0.4832  0.5423  0.5491
   19MOL   C262 6058   2.560   7.824   3.995  0.3180  0.4885 -0.0324
   19MOL   F263 6059   2.434   7.775   3.977  0.3097 -0.4868 -0.0443
   19MOL   C264 6060   2.660   7.773   3.916 -0.0376 -0.0657  0.2584
   19MOL   C265 6061   2.793   7.815   3.932  0.6732 -0.2668 -0.5556
   19MOL   C266 6062   3.080   7.833   4.034  0.0326  0.5489 -0.3631
   19MOL   H267 6063   2.991   7.949   4.178 -0.9137  2.4804  0.7942
   19MOL   H268 6064   2.756   8.022   4.201  0.8256  0.2244 -0.0221
   19MOL   H269 6065   2.510   7.937   4.168  0.3706 -2.8171  2.5504
   19MOL   H270 6066   2.628   7.694   3.849 -1.7369 -0.1049  1.0968
   19MOL   H271 6067   2.872   7.782   3.867  2.6351  0.1904  1.5333
   19MOL   H272 6068   3.071   7.808   3.928  0.9859 -1.6860  0.0720
   19MOL   H273 6069   3.181   7.874   4.036  0.8715 -1.5181  1.0696
   19MOL   C274 6070   3.095   7.709   4.121 -0.4166 -0.6778 -0.5535
   19MOL   C275 6071   3.170   7.604   4.048  0.3680 -0.1957 -0.1689
   19MOL   C276 6072   3.107   7.475   4.031  0.1278 -0.4278 -0.1068
   19MOL   C277 6073   3.179   7.370   3.970 -1.0546  0.5780 -0.5604
   19MOL   C278 6074   3.314   7.384   3.930  0.3169 -0.3991 -0.3957
   19MOL   F279 6075   3.389   7.283   3.874  0.1193 -0.0891 -0.1288
   19MOL   C280 6076   3.371   7.511   3.937  0.7066  0.4225  0.5266
   19MOL   C281 6077   3.300   7.617   3.999  0.8683  0.1908 -0.1822
   19MOL   C282 6078   3.166   7.739   4.262  0.0733 -0.7159 -0.3945
   19MOL   H283 6079   2.992   7.684   4.143 -0.8302 -1.0871 -2.8108
   19MOL   H284 6080   3.011   7.463   4.079  0.1429  1.3316  0.4163
   19MOL   H285 6081   3.139   7.271   3.957 -0.7034  0.2594  0.6535
   19MOL   H286 6082   3.471   7.518   3.899  0.2604 -0.4711 -0.8434
   19MOL   H287 6083   3.360   7.706   4.012 -0.0433  1.2864 -3.0966
   19MOL   H288 6084   3.267   7.771   4.237  1.0112 -1.8989  1.7744
   19MOL   H289 6085   3.098   7.811   4.309 -1.2598  0.6918 -4.2471
   19MOL   C290 6086   3.169   7.617   4.356  0.2254 -0.3911  0.1266
   19MOL   C291 6087   3.311   7.582   4.388  1.1436  0.6162 -0.5255
   19MOL   C292 6088   3.365   7.459   4.353  0.3529  0.1371 -0.0588
   19MOL   C293 6089   3.499   7.428   4.370 -0.4974  0.2840  0.2164
   19MOL   C294 6090   3.589   7.518   4.431  0.3323  0.1060 -0.6797
   19MOL   F295 6091   3.723   7.478   4.437  0.3134  0.0359 -0.5351
   19MOL   C296 6092   3.536   7.643   4.471 -0.4474  0.4537 -0.8691
   19MOL   C297 6093   3.401   7.679   4.440  0.5228 -0.4019  0.0667
   19MOL   C298 6094   3.097   7.647   4.488 -0.4822 -0.6079  0.4543
   19MOL   H299 6095   3.120   7.532   4.308  0.8128 -0.3584 -0.5344
   19MOL   H300 6096   3.305   7.385   4.303 -0.0372 -2.2783  3.7750
   19MOL   H301 6097   3.532   7.333   4.330 -0.9544 -0.4179  1.4734
   19MOL   H302 6098   3.596   7.714   4.527 -0.6034 -0.0322 -0.0896
   19MOL   H303 6099   3.365   7.775   4.473 -0.6081 -0.6539 -0.3980
   19MOL   H304 6100   3.127   7.567   4.556  1.5114  0.9337  1.4431
   19MOL   H305 6101   3.128   7.742   4.529 -0.5570 -0.2176 -0.3787
   19MOL   C306 6102   2.947   7.643   4.471  0.2691 -0.0033  0.7897
   19MOL   C307 6103   2.882   7.509   4.419 -0.0186 -0.4230  0.0334
   19MOL   C308 6104   2.897   7.388   4.487  0.6997 -0.9593 -0.7426
   19MOL   C309 6105   2.831   7.279   4.442 -0.0185 -0.8189  0.0648
   19MOL   C310 6106   2.748   7.285   4.332  0.6081  0.4892  0.1168
   19MOL   F311 6107   2.677   7.170   4.291 -0.0486  0.1304 -0.0132
   19MOL   C312 6108   2.738   7.400   4.255  0.2315 -0.2294 -0.0829
   19MOL   C313 6109   2.803   7.514   4.300  0.2367 -0.2993 -0.1471
   19MOL   C314 6110   2.879   7.681   4.603 -0.3277  0.4529  0.0320
   19MOL   H315 6111   2.913   7.723   4.405 -1.2916 -0.4171  1.0774
   19MOL   H316 6112   2.959   7.379   4.576  1.4490 -0.6229 -1.2218
   19MOL   H317 6113   2.845   7.184   4.492  0.0570 -0.9943 -0.2872
   19MOL   H318 6114   2.680   7.404   4.164  0.4031 -1.3926 -0.2431
   19MOL   H319 6115   2.786   7.605   4.245 -2.7865  0.3326  1.6990
   19MOL   H320 6116   2.923   7.768   4.653 -0.1040  0.6394 -0.4933
   19MOL   H321 6117   2.774   7.707   4.583 -0.4132  2.7554  2.9648
   19MOL   H322 6118   2.885   7.599   4.675 -1.7773 -0.1704 -0.5334
   20MOL     C1 6119   5.946   2.167   6.478  0.2087 -0.1400 -0.3510
   20MOL     C2 6120   5.959   2.029   6.537 -0.6432 -0.4797 -0.1109
   20MOL     C3 6121   5.979   2.015   6.677  0.1146  0.1613  0.2408
   20MOL     C4 6122   5.997   1.886   6.728  0.4593  0.2822 -0.4786
   20MOL     C5 6123   5.996   1.775   6.647  0.3093 -0.5846 -0.7184
   20MOL     F6 6124   6.007   1.660   6.704  0.0306 -0.4775 -0.1854
   20MOL     C7 6125   5.975   1.787   6.509  0.6181  0.7875  0.4939
   20MOL     C8 6126   5.952   1.916   6.459 -0.4460  0.5967  0.9103
   20MOL     C9 6127   5.812   2.183   6.405  0.0079  0.9101 -0.0603
   20MOL    H10 6128   6.030   2.192   6.414  0.8386 -0.2149  0.4371
   20MOL    H11 6129   5.998   2.100   6.741 -0.3430  1.3993 -1.2364
   20MOL    H12 6130   6.012   1.875   6.835  0.0399 -1.6548 -0.6025
   20MOL    H13 6131   5.985   1.703   6.441 -1.5989  1.9341 -1.2978
   20MOL    H14 6132   5.954   1.909   6.351  1.4219  0.6717  0.9263
   20MOL    H15 6133   5.798   2.141   6.305 -0.3523 -0.9542  0.7559
   20MOL    H16 6134   5.740   2.114   6.450  2.0001  1.2708  3.8674
   20MOL    H17 6135   5.957   2.244   6.555 -2.7168  1.4353 -1.4438
   20MOL    C18 6136   5.763   2.324   6.412 -0.2885  0.0752  0.0356
   20MOL    C19 6137   5.861   2.420   6.335 -0.7462  0.2241 -0.2821
   20MOL    C20 6138   5.916   2.534   6.403 -0.3939  0.8165  0.0650
   20MOL    C21 6139   5.996   2.622   6.336  0.4153  0.4488  0.0274
   20MOL    C22 6140   6.034   2.603   6.201 -0.2079 -0.1213  0.2227
   20MOL    F23 6141   6.120   2.687   6.138 -0.5939  0.5154  0.2236
   20MOL    C24 6142   5.998   2.481   6.143 -0.2833  1.1268  0.8277
   20MOL    C25 6143   5.902   2.398   6.199  0.1530 -0.6532  0.4764
   20MOL    C26 6144   5.617   2.332   6.357  0.0470  0.5616  0.5828
   20MOL    H27 6145   5.771   2.338   6.520 -1.6500  1.3399 -0.0174
   20MOL    H28 6146   5.884   2.553   6.504 -0.5701  2.4875 -0.2906
   20MOL    H29 6147   6.020   2.719   6.378 -0.3648  1.6321 -2.1723
   20MOL    H30 6148   6.030   2.450   6.045 -2.6308 -0.6549  0.5750
   20MOL    H31 6149   5.865   2.316   6.139 -2.0515 -0.6987  1.8491
   20MOL    H32 6150   5.613   2.296   6.254  0.4625  0.5159  0.5834
   20MOL    H33 6151   5.559   2.253   6.406  1.5374 -0.9077  0.0224
   20MOL    C34 6152   5.543   2.470   6.372  0.6248  0.3632  0.5784
   20MOL    C35 6153   5.567   2.557   6.248  0.4079 -0.1693 -0.2571
   20MOL    C36 6154   5.523   2.521   6.121  0.0955 -0.6099 -0.1029
   20MOL    C37 6155   5.555   2.591   6.003  0.0452  0.0857  0.0314
   20MOL    C38 6156   5.633   2.710   6.018  0.2121 -0.5583  0.1247
   20MOL    F39 6157   5.669   2.779   5.903 -0.3443  0.1431 -0.2922
   20MOL    C40 6158   5.675   2.751   6.144  0.1706  0.9181 -0.2320
   20MOL    C41 6159   5.643   2.679   6.265  0.2119 -0.2492  0.3456
   20MOL    C42 6160   5.386   2.464   6.395 -0.2685  0.5820 -0.4464
   20MOL    H43 6161   5.584   2.527   6.455 -1.6097  1.8495  0.7119
   20MOL    H44 6162   5.462   2.432   6.118  0.1389 -0.6345 -0.2556
   20MOL    H45 6163   5.525   2.555   5.905  1.0542  2.6067 -1.2416
   20MOL    H46 6164   5.739   2.837   6.156  1.4447 -0.2010  1.2407
   20MOL    H47 6165   5.688   2.707   6.359 -0.6415 -0.8785  0.9483
   20MOL    H48 6166   5.333   2.554   6.363 -1.6418  0.4924  1.4791
   20MOL    H49 6167   5.345   2.385   6.333 -2.3670  0.1729  1.4021
   20MOL    C50 6168   5.340   2.430   6.539 -0.2205 -0.6358  0.4636
   20MOL    C51 6169   5.389   2.535   6.636 -0.6731  0.3816 -0.3319
   20MOL    C52 6170   5.376   2.675   6.610  0.2494 -0.4278  0.3835
   20MOL    C53 6171   5.418   2.767   6.708  0.1020 -0.3035  0.4098
   20MOL    C54 6172   5.488   2.725   6.821  0.8042  0.0015  0.1323
   20MOL    F55 6173   5.527   2.808   6.916 -0.7255  0.2698 -0.1885
   20MOL    C56 6174   5.507   2.587   6.837  0.4554  0.1293 -0.8183
   20MOL    C57 6175   5.452   2.494   6.751 -0.8323  0.3991 -0.7841
   20MOL    C58 6176   5.189   2.397   6.560 -0.2048  0.5594  0.2727
   20MOL    H59 6177   5.394   2.339   6.567  0.0109 -0.4333  0.6790
   20MOL    H60 6178   5.324   2.708   6.521 -2.1494  0.6670  2.1298
   20MOL    H61 6179   5.410   2.872   6.683 -0.4712 -0.0287  1.7133
   20MOL    H62 6180   5.562   2.556   6.925 -1.2686 -3.2861 -0.8824
   20MOL    H63 6181   5.471   2.391   6.776 -2.3485  0.4464  0.6755
   20MOL    H64 6182   5.161   2.405   6.665 -1.7507  1.5226 -0.2035
   20MOL    H65 6183   5.116   2.465   6.516  0.9663  1.8018  0.2203
   20MOL    C66 6184   5.143   2.254   6.514  0.3217  0.1363  0.1750
   20MOL    C67 6185   5.243   2.146   6.555  0.7244 -0.4534 -0.5627
   20MOL    C68 6186   5.324   2.090   6.455  0.8308  0.2208 -0.5928
   20MOL    C69 6187   5.435   2.014   6.490 -0.2040  0.5819 -0.0747
   20MOL    C70 6188   5.469   1.991   6.627  0.1600 -0.1124  1.0611
   20MOL    F71 6189   5.586   1.926   6.656  0.3988 -0.7562  0.0443
   20MOL    C72 6190   5.386   2.038   6.731  0.5184  0.2193  0.1571
   20MOL    C73 6191   5.277   2.119   6.691  0.8513  0.5317  0.7230
   20MOL    C74 6192   5.005   2.206   6.566  0.1333 -0.2058  0.1047
   20MOL    H75 6193   5.139   2.260   6.406 -2.0728  2.0969  0.3082
   20MOL    H76 6194   5.311   2.122   6.353  2.3116 -2.3454 -1.6345
   20MOL    H77 6195   5.497   1.977   6.411 -1.0199 -0.1154 -0.4045
   20MOL    H78 6196   5.421   2.032   6.833 -2.8661 -0.0144  1.3719
   20MOL    H79 6197   5.221   2.174   6.766  0.5301  1.5637 -0.2628
   20MOL    H80 6198   4.991   2.099   6.550 -0.6584  0.0949 -1.2592
   20MOL    H81 6199   4.999   2.217   6.674 -0.5887  2.8420 -0.1991
   20MOL    C82 6200   4.885   2.275   6.503 -0.0137 -0.4153 -0.3915
   20MOL    C83 6201   4.872   2.251   6.350  0.2321 -0.3442 -0.2806
   20MOL    C84 6202   4.785   2.149   6.305 -0.2895 -0.9920 -0.3680
   20MOL    C85 6203   4.779   2.114   6.166 -0.1182 -0.0731  0.1638
   20MOL    C86 6204   4.863   2.187   6.077  0.0821 -0.0547  0.4301
   20MOL    F87 6205   4.859   2.162   5.943  0.0757 -1.3160  0.1874
   20MOL    C88 6206   4.949   2.288   6.124  0.9663  0.1417 -0.2438
   20MOL    C89 6207   4.958   2.324   6.259 -0.0622  0.3705  0.0201
   20MOL    C90 6208   4.765   2.253   6.597  0.1733 -0.3172  0.0129
   20MOL    H91 6209   4.901   2.383   6.505  1.1592 -0.5990  0.4764
   20MOL    H92 6210   4.721   2.089   6.368 -0.2446 -0.1564  0.4759
   20MOL    H93 6211   4.718   2.031   6.132  1.3178 -0.9179 -0.4121
   20MOL    H94 6212   5.015   2.337   6.053 -0.2905 -0.8160 -2.1140
   20MOL    H95 6213   5.028   2.399   6.293  0.6432 -0.0857 -0.4255
   20MOL    H96 6214   4.707   2.165   6.568 -1.5655  1.0506 -0.7433
   20MOL    H97 6215   4.792   2.230   6.700  0.5917  1.5748  0.3374
   20MOL    C98 6216   4.657   2.362   6.593 -0.1812  0.6000  0.3912
   20MOL    C99 6217   4.524   2.307   6.623 -0.2017 -0.0351 -0.2537
   20MOL   C100 6218   4.451   2.252   6.517  0.2599  0.5704 -0.5928
   20MOL   C101 6219   4.322   2.205   6.540  0.1222 -0.5591  0.2474
   20MOL   C102 6220   4.260   2.201   6.668 -0.5086  0.4058 -0.2731
   20MOL   F103 6221   4.134   2.145   6.689  0.4084  0.2689  0.0804
   20MOL   C104 6222   4.335   2.258   6.773 -0.6400  0.2407  0.5211
   20MOL   C105 6223   4.463   2.311   6.749 -0.0615 -0.1960  0.5572
   20MOL   C106 6224   4.696   2.487   6.682  0.4768 -1.1705 -0.2591
   20MOL   H107 6225   4.648   2.382   6.486 -1.6432  1.2215  0.6293
   20MOL   H108 6226   4.494   2.232   6.420  0.5060  0.5336 -0.4760
   20MOL   H109 6227   4.274   2.152   6.459 -1.2614  0.5513  0.3384
   20MOL   H110 6228   4.293   2.259   6.872  0.4079  0.9252  0.9608
   20MOL   H111 6229   4.518   2.351   6.832 -3.2251 -0.1605  2.7233
   20MOL   H112 6230   4.715   2.455   6.784 -0.8489 -0.7084  0.1409
   20MOL   H113 6231   4.794   2.527   6.656  0.4213 -0.7584  0.1697
   20MOL   C114 6232   4.587   2.598   6.692 -0.4164 -0.5997  0.9026
   20MOL   C115 6233   4.594   2.679   6.819 -0.0479  0.3614  0.3568
   20MOL   C116 6234   4.712   2.752   6.860  0.6031  0.3731  0.1354
   20MOL   C117 6235   4.711   2.824   6.976  0.5474 -0.5269  0.1512
   20MOL   C118 6236   4.591   2.847   7.052 -0.6110 -0.6652  0.6152
   20MOL   F119 6237   4.594   2.925   7.163  0.4215  0.3668 -0.1901
   20MOL   C120 6238   4.471   2.789   7.001  0.1649 -0.4166  0.6250
   20MOL   C121 6239   4.477   2.704   6.890  0.1187 -0.2819 -0.2374
   20MOL   C122 6240   4.600   2.704   6.580 -0.6911 -0.5281 -0.1024
   20MOL   H123 6241   4.489   2.552   6.681 -1.0518  0.5777  1.6410
   20MOL   H124 6242   4.806   2.747   6.806  0.0888  1.7851 -0.9138
   20MOL   H125 6243   4.800   2.877   7.009 -1.3328  3.0506 -0.2538
   20MOL   H126 6244   4.379   2.812   7.054 -1.1947  1.1556 -2.2666
   20MOL   H127 6245   4.387   2.657   6.853  0.3877 -1.1897  0.2569
   20MOL   H128 6246   4.520   2.772   6.610 -0.6294 -0.8125  0.7188
   20MOL   H129 6247   4.684   2.773   6.593 -1.8677  0.8389  0.3878
   20MOL   C130 6248   4.588   2.664   6.430  0.8223  0.2206  0.1269
   20MOL   C131 6249   4.461   2.582   6.391 -0.1470  0.9028 -0.9295
   20MOL   C132 6250   4.474   2.493   6.280 -0.5795  0.4085  0.1205
   20MOL   C133 6251   4.359   2.430   6.228  0.2966  0.1638  0.2690
   20MOL   C134 6252   4.233   2.449   6.289  0.1495 -0.5601 -0.4810
   20MOL   F135 6253   4.128   2.375   6.256 -0.0716  0.0430 -0.0485
   20MOL   C136 6254   4.223   2.535   6.402  0.3551  0.1080 -0.1070
   20MOL   C137 6255   4.333   2.600   6.446  0.1474  0.0745  0.3408
   20MOL   C138 6256   4.584   2.780   6.328 -0.6563  0.0196 -0.4421
   20MOL   H139 6257   4.665   2.590   6.408  0.8256  0.0844  0.5964
   20MOL   H140 6258   4.572   2.478   6.237  0.6702  3.9701  1.5297
   20MOL   H141 6259   4.350   2.365   6.142  0.6222 -0.7394  0.9176
   20MOL   H142 6260   4.127   2.562   6.444  0.3079  0.3601 -0.3771
   20MOL   H143 6261   4.317   2.680   6.517  3.2001  0.5287  0.6246
   20MOL   H144 6262   4.566   2.738   6.229  1.1372 -0.3519 -0.6278
   20MOL   H145 6263   4.500   2.841   6.360 -1.1121 -1.6594  1.6567
   20MOL   C146 6264   4.719   2.862   6.330  0.3571 -0.5010  0.0418
   20MOL   C147 6265   4.833   2.787   6.269 -0.4655  0.1109  0.3892
   20MOL   C148 6266   4.939   2.756   6.357 -0.5443  0.3380 -0.3964
   20MOL   C149 6267   5.048   2.685   6.307  0.3475 -0.4538 -0.2915
   20MOL   C150 6268   5.052   2.640   6.181  0.1837 -0.1195  0.2582
   20MOL   F151 6269   5.156   2.561   6.137 -0.2222 -0.5094 -0.0650
   20MOL   C152 6270   4.947   2.670   6.094 -0.0405  0.5394 -0.5916
   20MOL   C153 6271   4.837   2.746   6.136 -0.0659 -0.7421  0.1742
   20MOL   C154 6272   4.704   2.999   6.260 -0.1863 -0.5542  0.1526
   20MOL   H155 6273   4.750   2.880   6.433 -2.3924  2.1417  0.4981
   20MOL   H156 6274   4.944   2.786   6.461  0.8651  2.6647 -1.1083
   20MOL   H157 6275   5.136   2.682   6.369 -0.5755 -1.2247  1.0224
   20MOL   H158 6276   4.943   2.609   6.005 -3.2895  0.3250 -0.3621
   20MOL   H159 6277   4.743   2.751   6.083 -0.1577 -0.5596  0.3541
   20MOL   H160 6278   4.802   3.044   6.248 -0.1140 -0.0539  2.3057
   20MOL   H161 6279   4.681   2.979   6.156 -1.4378 -1.5191  0.5971
   20MOL   C162 6280   4.595   3.089   6.331 -0.7861 -0.4164  0.3354
   20MOL   C163 6281   4.618   3.096   6.485 -0.3392 -0.0734 -0.3551
   20MOL   C164 6282   4.521   3.045   6.570 -0.1510 -0.1588 -0.6371
   20MOL   C165 6283   4.538   3.076   6.708  0.0695  0.3270  0.0231
   20MOL   C166 6284   4.648   3.141   6.761 -0.2580  0.8049 -0.7244
   20MOL   F167 6285   4.660   3.157   6.896  0.1548 -0.4742  0.2340
   20MOL   C168 6286   4.742   3.194   6.671  1.2470  0.8874 -0.8355
   20MOL   C169 6287   4.723   3.174   6.534  0.8134 -0.5387 -0.3035
   20MOL   C170 6288   4.589   3.230   6.268 -0.7463 -0.4942  0.9547
   20MOL   H171 6289   4.494   3.050   6.319 -1.0106  0.3091 -0.1390
   20MOL   H172 6290   4.429   2.997   6.540  0.9920 -3.8097  1.4287
   20MOL   H173 6291   4.462   3.054   6.781 -0.2305 -0.8379 -0.6182
   20MOL   H174 6292   4.820   3.258   6.710  1.4478  0.9528 -1.3486
   20MOL   H175 6293   4.781   3.222   6.457 -3.1055 -0.1026 -3.1078
   20MOL   H176 6294   4.685   3.280   6.263  0.3788 -2.6832 -0.2429
   20MOL   H177 6295   4.583   3.216   6.160 -0.7329  2.1577  0.5814
   20MOL   C178 6296   4.474   3.323   6.318 -0.1157 -0.0928 -0.1336
   20MOL   C179 6297   4.530   3.420   6.409  0.5767 -0.1786 -0.7277
   20MOL   C180 6298   4.632   3.505   6.364 -0.3171  0.2772  0.0392
   20MOL   C181 6299   4.706   3.587   6.454 -0.5202  0.1722  1.0723
   20MOL   C182 6300   4.664   3.589   6.588 -0.1526 -0.3471  0.6496
   20MOL   F183 6301   4.729   3.668   6.673  0.3596  0.3232  0.3792
   20MOL   C184 6302   4.553   3.514   6.625 -0.2163 -0.0166  0.1727
   20MOL   C185 6303   4.489   3.427   6.541 -0.4689  0.2439 -0.3341
   20MOL   C186 6304   4.381   3.386   6.215  0.3507  0.2371  0.0808
   20MOL   H187 6305   4.410   3.263   6.383 -0.6160 -0.3679 -0.8776
   20MOL   H188 6306   4.674   3.504   6.264 -0.4415 -2.8112 -0.0161
   20MOL   H189 6307   4.784   3.652   6.418  0.6197 -1.4678  0.5537
   20MOL   H190 6308   4.523   3.513   6.728 -3.4770 -0.8114 -0.7133
   20MOL   H191 6309   4.413   3.362   6.583 -0.3803 -0.7672 -1.7206
   20MOL   H192 6310   4.315   3.440   6.283  1.1088  1.4950 -0.1618
   20MOL   H193 6311   4.430   3.464   6.156 -1.0972  1.0582 -0.0531
   20MOL   C194 6312   4.310   3.284   6.120  0.5766 -0.4397  0.5846
   20MOL   C195 6313   4.245   3.162   6.186 -0.2875 -0.3153 -0.7551
   20MOL   C196 6314   4.295   3.032   6.160  0.7238 -0.2931  0.0474
   20MOL   C197 6315   4.243   2.915   6.218 -0.5945 -0.5566  0.3791
   20MOL   C198 6316   4.143   2.929   6.312  0.3250  0.3493 -0.0999
   20MOL   F199 6317   4.105   2.823   6.387  0.3973 -0.0558  0.5420
   20MOL   C200 6318   4.091   3.055   6.338 -0.5788 -0.5116  0.4130
   20MOL   C201 6319   4.136   3.170   6.274  0.9519  0.3863  0.2053
   20MOL   C202 6320   4.193   3.357   6.043 -0.2478 -0.1572 -1.1144
   20MOL   H203 6321   4.370   3.248   6.037  2.7371  4.7422 -0.2967
   20MOL   H204 6322   4.386   3.020   6.104  0.2413 -0.8365 -0.6336
   20MOL   H205 6323   4.287   2.819   6.198 -1.2653 -0.3861 -2.1739
   20MOL   H206 6324   4.016   3.057   6.417 -1.5900 -1.7629 -0.4759
   20MOL   H207 6325   4.097   3.265   6.308 -0.9036  0.0422 -0.8732
   20MOL   H208 6326   4.122   3.284   6.005 -1.2379  1.1204 -1.7770
   20MOL   H209 6327   4.137   3.410   6.120  0.2664  0.3958 -1.1130
   20MOL   C210 6328   4.243   3.442   5.915  0.3134  0.1841 -0.4530
   20MOL   C211 6329   4.319   3.361   5.808 -0.9120  0.0803 -0.6843
   20MOL   C212 6330   4.441   3.426   5.763 -0.5456  1.2360  0.1622
   20MOL   C213 6331   4.525   3.360   5.675 -0.0349  0.2976  0.3884
   20MOL   C214 6332   4.493   3.237   5.626  0.3732  0.6912  0.0085
   20MOL   F215 6333   4.578   3.184   5.526  0.4563 -0.3891  0.5223
   20MOL   C216 6334   4.370   3.179   5.661  0.1731  0.5088  0.6216
   20MOL   C217 6335   4.284   3.236   5.757  0.4799  0.6792  0.0966
   20MOL   C218 6336   4.128   3.524   5.855 -0.4697 -0.3692 -0.7832
   20MOL   H219 6337   4.311   3.521   5.947  0.7579 -1.0198  1.6902
   20MOL   H220 6338   4.460   3.525   5.802  1.3591  2.0058 -2.5334
   20MOL   H221 6339   4.625   3.392   5.652  1.4197 -3.9136  0.4059
   20MOL   H222 6340   4.348   3.082   5.620 -1.0693  1.2199 -0.4223
   20MOL   H223 6341   4.201   3.173   5.785 -0.7450  1.9499 -0.5982
   20MOL   H224 6342   4.166   3.572   5.765  2.0481 -0.2990  0.2587
   20MOL   H225 6343   4.061   3.445   5.821 -0.4711 -0.1385 -1.3096
   20MOL   C226 6344   4.042   3.618   5.940  0.4282  0.3600  0.1631
   20MOL   C227 6345   4.115   3.742   6.000 -0.2679 -0.1536 -0.2707
   20MOL   C228 6346   4.169   3.729   6.129 -0.0027  0.3698  0.2105
   20MOL   C229 6347   4.228   3.833   6.196  0.3197  0.2565  0.4932
   20MOL   C230 6348   4.246   3.960   6.126 -0.0083 -0.7140  0.2020
   20MOL   F231 6349   4.304   4.067   6.188  0.2461  0.0049 -0.3458
   20MOL   C232 6350   4.204   3.971   5.990 -0.2644  0.3066  0.1183
   20MOL   C233 6351   4.143   3.860   5.931 -0.2983  0.1682  0.2242
   20MOL   C234 6352   3.918   3.665   5.856  0.8866  0.0507  0.1703
   20MOL   H235 6353   4.002   3.571   6.030 -1.8102 -1.1890 -1.5894
   20MOL   H236 6354   4.150   3.641   6.187  2.4888 -0.0054  0.5304
   20MOL   H237 6355   4.264   3.823   6.297 -1.1454 -0.0267  1.0035
   20MOL   H238 6356   4.221   4.065   5.939  0.6280 -0.0271 -0.2033
   20MOL   H239 6357   4.118   3.878   5.828  0.8550 -2.8267 -0.6644
   20MOL   H240 6358   3.864   3.740   5.913 -0.6197 -1.5940  0.9457
   20MOL   H241 6359   3.959   3.721   5.772 -1.5156  3.3768  1.1489
   20MOL   C242 6360   3.815   3.554   5.808  0.4860  0.5172  0.3768
   20MOL   C243 6361   3.778   3.466   5.925 -0.1517 -0.0094 -0.0974
   20MOL   C244 6362   3.681   3.506   6.020 -0.2134 -0.0571  0.5223
   20MOL   C245 6363   3.668   3.435   6.137 -0.0621  0.4947 -0.7479
   20MOL   C246 6364   3.745   3.317   6.167  0.0450 -0.2209  0.2831
   20MOL   F247 6365   3.732   3.259   6.292 -0.0564  0.9128  0.7143
   20MOL   C248 6366   3.826   3.270   6.068 -0.2257  0.6251 -0.5308
   20MOL   C249 6367   3.846   3.346   5.947  0.4734  0.2091 -0.3621
   20MOL   C250 6368   3.688   3.607   5.725 -0.1352 -0.0062 -0.8974
   20MOL   H251 6369   3.861   3.489   5.734 -1.0382 -0.7836  0.5482
   20MOL   H252 6370   3.631   3.602   6.013  2.1780  1.2142  0.3769
   20MOL   H253 6371   3.597   3.456   6.216  0.7634  1.9670 -0.3785
   20MOL   H254 6372   3.884   3.179   6.079  0.8079  1.2483 -0.7367
   20MOL   H255 6373   3.924   3.316   5.878  1.6659  1.8559  0.2363
   20MOL   H256 6374   3.623   3.519   5.721 -1.1300  0.7399 -1.5226
   20MOL   H257 6375   3.628   3.673   5.788  0.6506 -0.1989  0.0662
   20MOL   C258 6376   3.729   3.673   5.590  0.4504  0.0259 -0.4871
   20MOL   C259 6377   3.766   3.574   5.489 -0.2971  0.3922  0.2957
   20MOL   C260 6378   3.670   3.486   5.431  0.0953  0.5146 -0.2268
   20MOL   C261 6379   3.703   3.389   5.332  0.5637  0.0664 -0.7051
   20MOL   C262 6380   3.833   3.386   5.284 -0.7598  0.9301  0.1636
   20MOL   F263 6381   3.870   3.295   5.194 -0.2876  0.0874 -0.4241
   20MOL   C264 6382   3.929   3.475   5.334 -0.0042  0.5994  0.0417
   20MOL   C265 6383   3.897   3.571   5.439 -0.0155 -1.5365  0.2751
   20MOL   C266 6384   3.620   3.763   5.526 -0.0054 -0.3439 -0.2204
   20MOL   H267 6385   3.815   3.740   5.596  0.3278  0.0128  1.6526
   20MOL   H268 6386   3.567   3.479   5.463  0.7718 -0.2099  1.8391
   20MOL   H269 6387   3.636   3.316   5.288 -0.9999 -1.2715  3.6313
   20MOL   H270 6388   4.030   3.469   5.297  0.1973  1.3220  0.4525
   20MOL   H271 6389   3.968   3.638   5.486 -0.1120 -0.2868 -1.3158
   20MOL   H272 6390   3.656   3.796   5.428  0.0432  0.0595 -0.0692
   20MOL   H273 6391   3.530   3.702   5.531  0.6558 -1.3990 -0.9807
   20MOL   C274 6392   3.581   3.891   5.598 -0.6679 -0.9491  0.4456
   20MOL   C275 6393   3.697   3.986   5.600  0.0863 -0.3300  0.1230
   20MOL   C276 6394   3.772   4.006   5.714 -0.1853 -0.6482 -0.4222
   20MOL   C277 6395   3.879   4.094   5.718  0.1498 -0.3053  0.4525
   20MOL   C278 6396   3.917   4.171   5.602 -0.5066 -0.6683  0.8120
   20MOL   F279 6397   4.011   4.263   5.617 -0.7221 -0.1394 -0.3690
   20MOL   C280 6398   3.845   4.153   5.486 -0.6731 -0.4061 -0.3563
   20MOL   C281 6399   3.729   4.069   5.485  0.1402 -0.8630 -0.2452
   20MOL   C282 6400   3.447   3.957   5.559  0.2359  0.3571 -0.3713
   20MOL   H283 6401   3.567   3.855   5.700  1.4905 -1.3992  0.6116
   20MOL   H284 6402   3.740   3.950   5.801 -1.3390  0.3028 -0.2165
   20MOL   H285 6403   3.937   4.110   5.808  0.0568 -1.0587  0.6504
   20MOL   H286 6404   3.887   4.206   5.402  0.6578  0.7671  1.0146
   20MOL   H287 6405   3.694   4.062   5.383  0.3884  2.7670 -0.6510
   20MOL   H288 6406   3.434   4.055   5.604 -0.7119  0.8301 -1.6265
   20MOL   H289 6407   3.455   3.972   5.451  1.4401  0.3271 -0.2845
   20MOL   C290 6408   3.322   3.876   5.596  0.1256  0.5342  0.7139
   20MOL   C291 6409   3.313   3.833   5.738 -0.1377  0.6047 -0.8310
   20MOL   C292 6410   3.329   3.697   5.774 -0.6008  0.4775 -0.5190
   20MOL   C293 6411   3.317   3.662   5.908  0.0039 -0.7970 -0.6423
   20MOL   C294 6412   3.292   3.760   6.004  0.4857  0.0944  0.4818
   20MOL   F295 6413   3.282   3.724   6.132  0.4464  0.3216  0.1959
   20MOL   C296 6414   3.288   3.895   5.966  0.1087 -0.5091 -0.3099
   20MOL   C297 6415   3.299   3.937   5.829 -0.0371 -0.3048 -0.4686
   20MOL   C298 6416   3.180   3.951   5.558  0.1790  0.6831  0.4355
   20MOL   H299 6417   3.340   3.784   5.541 -1.0197 -0.2815  1.6734
   20MOL   H300 6418   3.338   3.613   5.707  0.0022  0.0581  0.0789
   20MOL   H301 6419   3.327   3.563   5.951 -0.9531  0.0711  1.6949
   20MOL   H302 6420   3.278   3.972   6.040 -0.2202 -0.0434 -0.8325
   20MOL   H303 6421   3.293   4.036   5.785  0.7443  0.7297  1.6838
   20MOL   H304 6422   3.167   4.034   5.628  0.0444 -0.9518  2.3932
   20MOL   H305 6423   3.193   3.996   5.460 -3.2863 -0.7177 -0.7579
   20MOL   C306 6424   3.049   3.861   5.577 -0.0929  0.6932  0.3437
   20MOL   C307 6425   2.983   3.886   5.709  0.3003 -0.3631  0.6224
   20MOL   C308 6426   2.985   3.789   5.808 -0.1069  0.5368 -0.8222
   20MOL   C309 6427   2.935   3.822   5.935 -0.3718  0.1542  0.0242
   20MOL   C310 6428   2.881   3.946   5.962  0.5726  0.6474  0.3307
   20MOL   F311 6429   2.848   3.972   6.091 -0.3880 -0.3627  0.1450
   20MOL   C312 6430   2.875   4.042   5.860  0.1237  0.7692  0.1948
   20MOL   C313 6431   2.928   4.015   5.735 -0.0479  0.3121  0.3411
   20MOL   C314 6432   2.954   3.874   5.466  0.0225 -0.5975  0.3557
   20MOL   H315 6433   3.064   3.754   5.585 -0.1463  0.7561  1.4769
   20MOL   H316 6434   3.011   3.685   5.794 -1.5426  0.0161  0.2520
   20MOL   H317 6435   2.933   3.747   6.013 -0.5355  1.6522  1.4865
   20MOL   H318 6436   2.825   4.135   5.881  0.0183  0.3606  1.8252
   20MOL   H319 6437   2.924   4.090   5.658 -3.0602 -1.4206 -1.3082
   20MOL   H320 6438   3.004   3.840   5.375  0.7587 -0.4606  0.7128
   20MOL   H321 6439   2.877   3.797   5.482  1.2854 -1.8300  0.6037
   20MOL   H322 6440   2.934   3.980   5.457  4.4686  0.3482  0.5256
   21MOL     C1 6441   6.506   4.345   2.331 -0.5448 -0.8367 -0.5487
   21MOL     C2 6442   6.607   4.415   2.413 -0.1995 -0.1015  0.3967
   21MOL     C3 6443   6.602   4.557   2.437 -0.0860 -0.0951  0.1383
   21MOL     C4 6444   6.704   4.618   2.518 -0.1319 -0.3123 -0.6636
   21MOL     C5 6445   6.804   4.543   2.579 -0.4348  0.6462  0.4238
   21MOL     F6 6446   6.892   4.606   2.662  0.5041 -0.2595 -0.8675
   21MOL     C7 6447   6.804   4.406   2.559 -0.3586  0.1347  0.7139
   21MOL     C8 6448   6.710   4.342   2.473  0.6421  1.3356 -0.5166
   21MOL     C9 6449   6.469   4.411   2.198  0.9722  0.0594 -0.1171
   21MOL    H10 6450   6.413   4.341   2.388  0.5644 -0.9851  1.3167
   21MOL    H11 6451   6.540   4.628   2.384 -0.4269 -1.2414 -1.0238
   21MOL    H12 6452   6.697   4.726   2.523 -0.5298 -0.2927 -1.5310
   21MOL    H13 6453   6.881   4.345   2.604 -2.3990 -0.8728  3.0269
   21MOL    H14 6454   6.715   4.235   2.458 -0.1647  1.2797 -0.4207
   21MOL    H15 6455   6.417   4.507   2.199 -0.7866 -0.8762  1.8398
   21MOL    H16 6456   6.562   4.449   2.155  0.7557  0.3747 -0.3106
   21MOL    H17 6457   6.545   4.247   2.304 -0.3741 -1.0609  0.4674
   21MOL    C18 6458   6.408   4.321   2.094  0.3236  0.0241 -0.7371
   21MOL    C19 6459   6.311   4.208   2.143 -0.9594  0.1511 -0.1012
   21MOL    C20 6460   6.188   4.247   2.194 -0.5908  0.1271 -0.9540
   21MOL    C21 6461   6.082   4.161   2.224 -0.5018 -0.0876  0.3821
   21MOL    C22 6462   6.096   4.025   2.205  0.2254  0.6690 -0.3089
   21MOL    F23 6463   5.990   3.948   2.238  0.1928  0.1138  0.0935
   21MOL    C24 6464   6.219   3.978   2.163 -0.2263 -0.3167  0.1880
   21MOL    C25 6465   6.324   4.063   2.121  1.1954 -0.3688  0.0027
   21MOL    C26 6466   6.331   4.401   1.982 -0.8209  0.6052 -0.8785
   21MOL    H27 6467   6.492   4.260   2.059  2.2440  3.1138 -1.6967
   21MOL    H28 6468   6.168   4.349   2.222 -0.5653 -0.2868  0.6386
   21MOL    H29 6469   5.989   4.204   2.259 -0.6469 -0.1400  0.0649
   21MOL    H30 6470   6.245   3.874   2.156  1.3499  0.0488  0.2938
   21MOL    H31 6471   6.419   4.022   2.090  1.3467  0.6703 -0.9514
   21MOL    H32 6472   6.238   4.442   2.022  0.1771  0.6968  1.4276
   21MOL    H33 6473   6.391   4.490   1.963  0.9279 -1.1881 -4.2584
   21MOL    C34 6474   6.312   4.318   1.846  0.3797 -0.2061 -0.0402
   21MOL    C35 6475   6.173   4.345   1.791 -0.0588  0.7835 -0.3194
   21MOL    C36 6476   6.134   4.475   1.768 -0.1963 -0.2197  0.1518
   21MOL    C37 6477   6.004   4.496   1.722 -0.4058 -0.6252 -0.1001
   21MOL    C38 6478   5.906   4.399   1.715 -0.1402 -0.2271 -0.5951
   21MOL    F39 6479   5.777   4.429   1.689  0.5997  0.1636 -0.0130
   21MOL    C40 6480   5.945   4.266   1.731 -0.0826 -0.3279 -0.1455
   21MOL    C41 6481   6.080   4.242   1.775 -0.9527  0.5025 -0.3070
   21MOL    C42 6482   6.419   4.338   1.738 -0.4344  0.5200  0.2019
   21MOL    H43 6483   6.303   4.214   1.878  0.4339 -0.6420 -1.4044
   21MOL    H44 6484   6.207   4.555   1.773  0.3717 -0.8376  1.9381
   21MOL    H45 6485   5.988   4.602   1.710  1.8085  0.0072  1.9902
   21MOL    H46 6486   5.868   4.190   1.726 -0.5546  0.0344  1.4859
   21MOL    H47 6487   6.111   4.142   1.802 -1.8141  0.4609  0.5373
   21MOL    H48 6488   6.381   4.281   1.653  3.5141  0.3020 -1.5046
   21MOL    H49 6489   6.414   4.443   1.708 -0.7023  0.2026 -0.8690
   21MOL    C50 6490   6.566   4.307   1.759 -0.0741 -0.3046  0.0592
   21MOL    C51 6491   6.595   4.158   1.768  0.4207 -0.3747 -0.4195
   21MOL    C52 6492   6.583   4.072   1.659 -0.1155 -0.1227 -0.4941
   21MOL    C53 6493   6.617   3.938   1.671 -0.8256 -0.3371  0.1221
   21MOL    C54 6494   6.667   3.882   1.796 -0.4203  0.3503  0.5454
   21MOL    F55 6495   6.715   3.753   1.808 -0.2381 -0.2037 -0.4104
   21MOL    C56 6496   6.691   3.972   1.906  0.5400 -0.0973  0.2406
   21MOL    C57 6497   6.652   4.107   1.891 -0.0233  0.1815  0.1035
   21MOL    C58 6498   6.669   4.366   1.655  0.2220 -0.2803  0.3420
   21MOL    H59 6499   6.592   4.349   1.856 -2.3887  1.2628  0.0536
   21MOL    H60 6500   6.553   4.115   1.564  1.8116  0.6717 -0.7661
   21MOL    H61 6501   6.615   3.873   1.584 -1.6766  0.5017 -0.4938
   21MOL    H62 6502   6.712   3.931   2.003 -1.1031  1.2183  1.1808
   21MOL    H63 6503   6.668   4.164   1.982 -0.1559  0.4974 -0.0699
   21MOL    H64 6504   6.763   4.311   1.651  0.8723  0.8933 -1.0543
   21MOL    H65 6505   6.618   4.354   1.560  0.2996  0.4130  0.2125
   21MOL    C66 6506   6.704   4.515   1.669 -0.1413  0.1309 -0.1247
   21MOL    C67 6507   6.717   4.568   1.813  0.1169 -0.1054  0.3088
   21MOL    C68 6508   6.843   4.552   1.882  0.5897  0.4462  0.7920
   21MOL    C69 6509   6.850   4.599   2.011 -0.5430  0.6673  0.7204
   21MOL    C70 6510   6.747   4.667   2.083 -0.0312 -0.1774 -0.8939
   21MOL    F71 6511   6.752   4.726   2.205 -0.8072  0.0103 -0.2480
   21MOL    C72 6512   6.627   4.681   2.010  0.1769 -0.3149  0.5626
   21MOL    C73 6513   6.612   4.641   1.872  0.2981 -0.1430 -0.2102
   21MOL    C74 6514   6.833   4.546   1.589  0.2329 -0.1717 -0.6212
   21MOL    H75 6515   6.620   4.557   1.615 -0.5572  1.3810  1.4653
   21MOL    H76 6516   6.930   4.511   1.834  0.5117 -1.3643  2.1269
   21MOL    H77 6517   6.946   4.603   2.061  0.4227  1.7024 -1.1467
   21MOL    H78 6518   6.548   4.720   2.072  0.6370  0.4826  0.6538
   21MOL    H79 6519   6.519   4.662   1.822  0.2808  1.2737  0.4056
   21MOL    H80 6520   6.911   4.478   1.625  0.7848 -0.4103 -2.2230
   21MOL    H81 6521   6.822   4.527   1.482  1.6605  1.1226 -1.0075
   21MOL    C82 6522   6.884   4.696   1.595 -0.0770  0.2967  0.1623
   21MOL    C83 6523   7.006   4.713   1.518  0.6159 -0.2008  0.4388
   21MOL    C84 6524   7.012   4.761   1.383  0.9782  0.1621 -0.3691
   21MOL    C85 6525   7.139   4.775   1.322 -0.3165 -0.2340  0.7175
   21MOL    C86 6526   7.257   4.720   1.379 -0.1612 -0.4465  1.3445
   21MOL    F87 6527   7.372   4.715   1.306 -0.4859  0.3501  0.0588
   21MOL    C88 6528   7.247   4.672   1.512  0.3137  0.0213  0.0161
   21MOL    C89 6529   7.123   4.665   1.574 -0.4776 -0.1554  0.2430
   21MOL    C90 6530   6.776   4.797   1.557  0.8495  0.8116 -0.0385
   21MOL    H91 6531   6.905   4.720   1.700  0.4354 -2.5000  0.7580
   21MOL    H92 6532   6.923   4.796   1.332  0.1434 -1.7370 -0.2640
   21MOL    H93 6533   7.141   4.820   1.224  1.6446  0.4900  1.0680
   21MOL    H94 6534   7.330   4.631   1.566 -0.6000 -0.7274  0.8691
   21MOL    H95 6535   7.117   4.623   1.674 -0.9324  2.3007  1.2827
   21MOL    H96 6536   6.747   4.772   1.455 -2.5083  1.1202  0.7782
   21MOL    H97 6537   6.677   4.786   1.601  0.6011 -2.0211 -1.2078
   21MOL    C98 6538   6.801   4.948   1.578  0.0488 -0.8817  0.0506
   21MOL    C99 6539   6.679   5.028   1.517 -0.2727 -0.2562 -0.3411
   21MOL   C100 6540   6.552   5.023   1.564 -0.1425 -0.4937 -0.2990
   21MOL   C101 6541   6.447   5.098   1.503 -0.7459  0.2195  0.3758
   21MOL   C102 6542   6.471   5.173   1.389  0.0078 -0.0088  0.0998
   21MOL   F103 6543   6.376   5.239   1.329  0.7603 -0.2455 -0.2065
   21MOL   C104 6544   6.596   5.175   1.335  0.9257 -0.1209  0.4108
   21MOL   C105 6545   6.700   5.111   1.404  0.2365 -0.1825 -0.0280
   21MOL   C106 6546   6.820   4.999   1.723 -0.0579 -0.0231 -0.1675
   21MOL   H107 6547   6.880   4.980   1.511 -1.9868  1.9050 -1.1336
   21MOL   H108 6548   6.533   4.968   1.655  0.0210 -4.0139 -2.3267
   21MOL   H109 6549   6.351   5.091   1.550 -0.2221 -0.3297  1.3797
   21MOL   H110 6550   6.619   5.241   1.253 -0.2865 -0.3296 -0.1143
   21MOL   H111 6551   6.795   5.120   1.354 -0.1290  0.1296 -0.6595
   21MOL   H112 6552   6.795   5.105   1.716  0.3272  0.0358 -0.6552
   21MOL   H113 6553   6.754   4.951   1.795 -0.7995  0.7233 -0.3426
   21MOL   C114 6554   6.967   5.012   1.784 -0.7976  0.5351  0.3065
   21MOL   C115 6555   7.063   5.083   1.695  0.6128  1.6114 -0.1135
   21MOL   C116 6556   7.192   5.019   1.672 -0.5859 -0.6037 -0.5177
   21MOL   C117 6557   7.278   5.073   1.575 -0.3278 -0.0368  0.5282
   21MOL   C118 6558   7.248   5.185   1.500  0.2462  0.8517  0.5005
   21MOL   F119 6559   7.338   5.236   1.409 -0.3452 -0.1207 -0.3023
   21MOL   C120 6560   7.121   5.246   1.512  0.5005 -0.2214  0.6060
   21MOL   C121 6561   7.030   5.202   1.614 -0.1855  0.0560  0.9796
   21MOL   C122 6562   6.968   5.078   1.925 -0.3649 -0.2005  0.3648
   21MOL   H123 6563   7.004   4.912   1.807  2.2361  1.2631 -1.1310
   21MOL   H124 6564   7.231   4.934   1.726 -0.7398 -1.5262 -1.8562
   21MOL   H125 6565   7.372   5.024   1.555 -0.7393  0.3963 -2.7252
   21MOL   H126 6566   7.099   5.327   1.445 -2.0432 -0.6672  0.8674
   21MOL   H127 6567   6.931   5.246   1.620  0.4444  1.5773  0.5297
   21MOL   H128 6568   6.946   5.184   1.924  1.2520  0.1538  0.2621
   21MOL   H129 6569   6.889   5.021   1.974  1.3609 -2.3777  0.7092
   21MOL   C130 6570   7.105   5.062   2.007  0.0858 -1.0712 -0.4797
   21MOL   C131 6571   7.104   5.161   2.122  0.5238 -0.1017 -0.0611
   21MOL   C132 6572   6.987   5.172   2.199  0.7106  0.7590  0.0119
   21MOL   C133 6573   6.978   5.264   2.309 -0.0646 -0.0469 -0.2097
   21MOL   C134 6574   7.086   5.347   2.335  0.3735  0.1746 -0.1646
   21MOL   F135 6575   7.081   5.440   2.434  0.0319  0.2685  0.3221
   21MOL   C136 6576   7.201   5.338   2.253 -0.3072 -0.6435  0.1763
   21MOL   C137 6577   7.203   5.254   2.146  0.7299 -0.0252 -0.6435
   21MOL   C138 6578   7.128   4.919   2.054 -0.3798  0.6328 -0.5069
   21MOL   H139 6579   7.188   5.092   1.942 -2.4358  3.3482 -1.8352
   21MOL   H140 6580   6.899   5.117   2.172  1.1839 -0.1431  0.3060
   21MOL   H141 6581   6.889   5.276   2.369 -1.4383  0.0548 -2.1998
   21MOL   H142 6582   7.281   5.410   2.265  0.5259 -1.4478 -0.4871
   21MOL   H143 6583   7.293   5.261   2.086  1.7053 -0.8780  0.7046
   21MOL   H144 6584   7.035   4.874   2.088 -0.5813  0.1479 -1.6753
   21MOL   H145 6585   7.151   4.859   1.966  0.4325 -0.6161  0.5327
   21MOL   C146 6586   7.231   4.894   2.170 -0.4546 -0.1220 -0.1494
   21MOL   C147 6587   7.232   4.750   2.216 -0.1301  0.6358  0.3594
   21MOL   C148 6588   7.194   4.718   2.344 -0.0303  0.5566  0.1544
   21MOL   C149 6589   7.187   4.577   2.385 -0.6209 -0.6915 -0.0302
   21MOL   C150 6590   7.211   4.471   2.288  0.3555  0.2818 -0.0571
   21MOL   F151 6591   7.200   4.342   2.321 -0.0072  0.2250  0.2101
   21MOL   C152 6592   7.254   4.510   2.160 -0.5307 -0.0503  0.2207
   21MOL   C153 6593   7.258   4.646   2.123  0.2990 -0.7552 -0.8093
   21MOL   C154 6594   7.376   4.939   2.137  0.2735 -0.4867 -0.8077
   21MOL   H155 6595   7.204   4.959   2.253  1.3634  0.5149 -0.0302
   21MOL   H156 6596   7.167   4.795   2.415 -1.4067  0.9657 -0.8028
   21MOL   H157 6597   7.153   4.548   2.484  0.7603 -1.2190  0.2938
   21MOL   H158 6598   7.288   4.441   2.083  0.5531  1.3660 -0.5896
   21MOL   H159 6599   7.278   4.673   2.021 -0.1444 -0.1056 -0.7270
   21MOL   H160 6600   7.417   4.884   2.052  0.3230 -0.7621 -0.6037
   21MOL   H161 6601   7.381   5.041   2.099  0.5876  0.0557  0.6601
   21MOL   C162 6602   7.471   4.928   2.263 -1.1953  0.0280 -0.4360
   21MOL   C163 6603   7.621   4.951   2.231 -0.0864  0.0488  0.5582
   21MOL   C164 6604   7.663   5.076   2.177  0.3355 -0.1144  0.2657
   21MOL   C165 6605   7.799   5.095   2.142 -0.4079  0.1919 -0.3240
   21MOL   C166 6606   7.887   4.985   2.169 -0.2941  1.1054  0.2582
   21MOL   F167 6607   8.017   5.005   2.134  0.1049  0.1911 -0.3768
   21MOL   C168 6608   7.849   4.861   2.220 -0.5845 -0.4910 -0.4660
   21MOL   C169 6609   7.715   4.846   2.250  0.1039 -0.5437 -0.3292
   21MOL   C170 6610   7.438   5.033   2.381 -0.7362  0.0000  0.3809
   21MOL   H171 6611   7.448   4.828   2.299 -0.9340  0.7617  1.8288
   21MOL   H172 6612   7.595   5.158   2.157 -2.0480 -2.3347 -1.0582
   21MOL   H173 6613   7.833   5.191   2.107 -1.4812  1.0581  0.9636
   21MOL   H174 6614   7.928   4.789   2.232 -0.6043 -0.5907 -0.9415
   21MOL   H175 6615   7.678   4.749   2.279  0.6127 -0.5265  0.4028
   21MOL   H176 6616   7.461   5.131   2.340  0.0559 -0.9635 -1.5221
   21MOL   H177 6617   7.329   5.030   2.384 -0.8027 -1.0456 -2.0247
   21MOL   C178 6618   7.500   5.005   2.519 -0.3874  0.5567 -0.1105
   21MOL   C179 6619   7.505   5.131   2.610 -0.1367 -0.0530  0.2712
   21MOL   C180 6620   7.636   5.174   2.654  0.3470 -0.4166  0.3665
   21MOL   C181 6621   7.647   5.269   2.756 -0.5294 -0.4098  0.5666
   21MOL   C182 6622   7.536   5.352   2.788  0.0378 -0.8659 -0.8635
   21MOL   F183 6623   7.555   5.450   2.881 -0.0385  0.5501  0.5715
   21MOL   C184 6624   7.412   5.332   2.720 -0.4473  0.5181 -0.0488
   21MOL   C185 6625   7.396   5.214   2.642  0.5950 -1.0585 -0.6005
   21MOL   C186 6626   7.448   4.880   2.593 -0.1040 -0.1109 -0.4248
   21MOL   H187 6627   7.601   4.977   2.489 -0.0897  0.3964  1.0322
   21MOL   H188 6628   7.722   5.112   2.632  2.2199  2.4452 -0.6725
   21MOL   H189 6629   7.746   5.280   2.798 -0.1665 -0.7519 -0.2001
   21MOL   H190 6630   7.321   5.388   2.737  0.2210  1.2001  1.3557
   21MOL   H191 6631   7.293   5.196   2.614 -0.0246  2.7041 -0.9922
   21MOL   H192 6632   7.413   4.901   2.694 -1.1525 -2.5892 -0.2348
   21MOL   H193 6633   7.352   4.852   2.550 -0.8881 -2.0091  2.3816
   21MOL   C194 6634   7.541   4.760   2.599 -0.3544  0.2339  0.3563
   21MOL   C195 6635   7.661   4.784   2.684  0.0248 -0.3112 -0.9596
   21MOL   C196 6636   7.785   4.773   2.624 -0.8671 -0.1507  0.0765
   21MOL   C197 6637   7.896   4.774   2.702  0.5044 -0.3071 -0.5352
   21MOL   C198 6638   7.888   4.789   2.840 -0.3730 -0.0884 -0.3446
   21MOL   F199 6639   7.999   4.783   2.913 -0.5701  0.2281  0.5106
   21MOL   C200 6640   7.764   4.790   2.902 -0.2833  0.4231 -0.0906
   21MOL   C201 6641   7.650   4.791   2.825 -0.5631  0.2480  0.1585
   21MOL   C202 6642   7.466   4.630   2.636 -0.0386 -0.3390 -0.1599
   21MOL   H203 6643   7.575   4.741   2.497 -1.5723  0.2600 -0.0683
   21MOL   H204 6644   7.806   4.748   2.521  0.6753  0.1715  0.3017
   21MOL   H205 6645   7.990   4.748   2.655  0.9813 -0.0620  0.2710
   21MOL   H206 6646   7.761   4.787   3.010 -0.0965  0.2438 -0.0905
   21MOL   H207 6647   7.547   4.794   2.858 -0.8674  2.8375 -0.8732
   21MOL   H208 6648   7.473   4.616   2.744 -2.1427  0.8513  0.1774
   21MOL   H209 6649   7.361   4.651   2.614 -0.1045  0.5481  0.9181
   21MOL   C210 6650   7.501   4.502   2.558 -0.4086  0.7814 -0.3519
   21MOL   C211 6651   7.646   4.460   2.561 -0.1156  0.3891 -0.1091
   21MOL   C212 6652   7.714   4.448   2.685  0.4716 -0.0325  0.1128
   21MOL   C213 6653   7.851   4.408   2.676  0.6239  0.0898  0.2386
   21MOL   C214 6654   7.920   4.392   2.556  0.5958  0.3812 -0.2939
   21MOL   F215 6655   8.053   4.359   2.558  0.4187  0.0547  0.7030
   21MOL   C216 6656   7.849   4.412   2.436 -0.7275  0.8403  0.5526
   21MOL   C217 6657   7.713   4.433   2.442  0.2807 -0.9622  0.2519
   21MOL   C218 6658   7.409   4.380   2.577 -0.3410 -0.6116 -0.0770
   21MOL   H219 6659   7.481   4.517   2.452 -0.2745 -0.9066 -0.6327
   21MOL   H220 6660   7.674   4.456   2.785  0.8790  0.5161  0.2342
   21MOL   H221 6661   7.907   4.399   2.768 -0.1149  1.6944  0.8740
   21MOL   H222 6662   7.887   4.389   2.338 -1.8011 -0.1488  0.3522
   21MOL   H223 6663   7.654   4.446   2.352  1.2776  0.8665 -0.1705
   21MOL   H224 6664   7.312   4.410   2.536 -0.5664  0.7784  1.4104
   21MOL   H225 6665   7.454   4.300   2.518  0.4221  1.2951 -2.1845
   21MOL   C226 6666   7.391   4.313   2.712  0.1207 -0.0355  0.5212
   21MOL   C227 6667   7.337   4.409   2.818 -0.1424  0.1472  0.5006
   21MOL   C228 6668   7.422   4.456   2.920 -0.6077  0.2114  0.7782
   21MOL   C229 6669   7.374   4.545   3.018  0.1963 -0.4008  0.4936
   21MOL   C230 6670   7.242   4.586   3.016  0.1732 -0.7406 -0.1580
   21MOL   F231 6671   7.198   4.674   3.106  0.5343 -0.1344  0.1566
   21MOL   C232 6672   7.156   4.543   2.913  0.3120  0.3498 -0.0350
   21MOL   C233 6673   7.205   4.449   2.817  0.0572  0.0726 -0.1052
   21MOL   C234 6674   7.309   4.177   2.712  0.6388 -0.4982 -0.1038
   21MOL   H235 6675   7.485   4.281   2.758 -0.7559  0.0783  2.4762
   21MOL   H236 6676   7.526   4.429   2.930  0.3991  3.9559  1.3027
   21MOL   H237 6677   7.443   4.592   3.087 -2.1604  1.8843  1.3712
   21MOL   H238 6678   7.059   4.585   2.890  0.6425  0.8577 -0.5074
   21MOL   H239 6679   7.134   4.432   2.738 -0.3539  0.9578  0.0638
   21MOL   H240 6680   7.294   4.130   2.809  2.9207 -2.4649 -0.6796
   21MOL   H241 6681   7.220   4.188   2.649  0.1760 -3.8059 -0.0751
   21MOL   C242 6682   7.383   4.063   2.631 -0.0583  0.2473 -0.7255
   21MOL   C243 6683   7.509   4.031   2.712 -0.2407 -0.1757  0.0414
   21MOL   C244 6684   7.635   4.081   2.664 -0.4703 -0.3397 -0.7178
   21MOL   C245 6685   7.751   4.052   2.737 -0.3873 -0.0184 -0.0262
   21MOL   C246 6686   7.746   3.982   2.860 -0.3279  0.0769 -0.2195
   21MOL   F247 6687   7.855   3.941   2.925 -0.0241 -0.1324  0.1876
   21MOL   C248 6688   7.621   3.935   2.909 -0.1997  0.0269  0.1966
   21MOL   C249 6689   7.510   3.954   2.831 -0.0807 -0.1484  0.4661
   21MOL   C250 6690   7.287   3.936   2.617 -0.5055 -0.7085 -0.0778
   21MOL   H251 6691   7.406   4.098   2.531  0.9429  1.5253 -0.0641
   21MOL   H252 6692   7.644   4.122   2.565  0.4778 -1.2122 -1.0032
   21MOL   H253 6693   7.838   4.087   2.683 -0.7327  1.1749  0.1737
   21MOL   H254 6694   7.615   3.879   3.001 -1.1723 -1.2304 -0.6194
   21MOL   H255 6695   7.414   3.926   2.872 -0.0741  0.1504  0.6887
   21MOL   H256 6696   7.251   3.897   2.712  1.8603  0.3857  1.3157
   21MOL   H257 6697   7.195   3.982   2.581  0.6280 -0.0395 -2.2133
   21MOL   C258 6698   7.337   3.814   2.537  0.3896 -0.0482  0.3172
   21MOL   C259 6699   7.387   3.857   2.402 -0.0168 -0.1127 -0.0581
   21MOL   C260 6700   7.305   3.879   2.297  0.0982 -0.0733  1.1671
   21MOL   C261 6701   7.357   3.909   2.168  0.5168  0.6655  0.1529
   21MOL   C262 6702   7.496   3.902   2.144  0.0412 -0.1836 -0.1196
   21MOL   F263 6703   7.547   3.908   2.019 -0.7355 -0.2505  0.0378
   21MOL   C264 6704   7.579   3.880   2.253  0.3099 -0.2724 -0.2729
   21MOL   C265 6705   7.526   3.862   2.380  0.1573  0.0839  0.0989
   21MOL   C266 6706   7.426   3.707   2.603 -1.1243  0.6329 -0.7108
   21MOL   H267 6707   7.243   3.761   2.524  0.2477  0.4070 -0.5110
   21MOL   H268 6708   7.197   3.881   2.301  0.0493 -0.3863 -0.0667
   21MOL   H269 6709   7.298   3.938   2.082 -0.8923 -0.7924  0.6091
   21MOL   H270 6710   7.686   3.872   2.240  0.1193 -2.3274 -0.8529
   21MOL   H271 6711   7.597   3.842   2.459 -0.2910 -0.4871  0.3595
   21MOL   H272 6712   7.468   3.647   2.522 -1.6603 -0.4804 -0.1766
   21MOL   H273 6713   7.506   3.754   2.660 -2.4986 -0.0550  1.8460
   21MOL   C274 6714   7.359   3.620   2.705  0.2117 -0.0555 -0.0145
   21MOL   C275 6715   7.232   3.560   2.653 -0.1923 -0.3414  0.3034
   21MOL   C276 6716   7.108   3.591   2.716  0.3631 -0.5195  0.0430
   21MOL   C277 6717   6.988   3.534   2.679 -0.4794  0.8701 -0.2490
   21MOL   C278 6718   6.980   3.456   2.561 -0.1316  0.5005 -0.5103
   21MOL   F279 6719   6.864   3.410   2.511  0.3803 -0.0186 -0.5584
   21MOL   C280 6720   7.101   3.428   2.488 -0.2006 -0.1022  0.0709
   21MOL   C281 6721   7.220   3.489   2.534  0.2320 -0.1013  0.5364
   21MOL   C282 6722   7.449   3.500   2.749  0.2315  0.7402  0.2897
   21MOL   H283 6723   7.336   3.678   2.795 -0.6766  1.3985 -1.1488
   21MOL   H284 6724   7.118   3.651   2.805  0.6006 -0.3717 -0.0827
   21MOL   H285 6725   6.897   3.540   2.736  1.1272  0.6962  2.4346
   21MOL   H286 6726   7.092   3.375   2.394 -0.6664  0.1265 -0.0147
   21MOL   H287 6727   7.309   3.477   2.473 -0.8274 -1.3024 -0.8014
   21MOL   H288 6728   7.397   3.404   2.743  1.0116  0.3987 -1.2216
   21MOL   H289 6729   7.533   3.495   2.679 -0.0174  1.1215 -0.0388
   21MOL   C290 6730   7.522   3.505   2.887  0.3263  0.3288  0.3505
   21MOL   C291 6731   7.437   3.558   2.998 -0.3932  0.0835  0.0851
   21MOL   C292 6732   7.300   3.527   3.016  0.0774 -0.7950  0.1141
   21MOL   C293 6733   7.226   3.590   3.118  0.1816 -0.0136 -0.2751
   21MOL   C294 6734   7.294   3.671   3.213 -0.0681  0.5257  0.7822
   21MOL   F295 6735   7.222   3.732   3.313  0.0589 -0.5291  0.0111
   21MOL   C296 6736   7.427   3.704   3.197 -0.1562 -0.2031 -0.2430
   21MOL   C297 6737   7.498   3.646   3.089  0.4909  0.3604 -0.2279
   21MOL   C298 6738   7.585   3.363   2.918  0.5497  0.4292  0.0567
   21MOL   H299 6739   7.602   3.578   2.869  0.4347  0.1141 -0.0522
   21MOL   H300 6740   7.248   3.458   2.951 -0.9416  0.7565 -0.7457
   21MOL   H301 6741   7.123   3.572   3.145  0.8553  0.3133  2.7736
   21MOL   H302 6742   7.476   3.766   3.270 -1.1270 -1.6833  1.7395
   21MOL   H303 6743   7.605   3.657   3.098  1.0568 -3.2655 -1.4748
   21MOL   H304 6744   7.506   3.294   2.948  0.9089  0.4350  1.0623
   21MOL   H305 6745   7.619   3.312   2.828  0.6224  0.5785 -0.0010
   21MOL   C306 6746   7.701   3.359   3.016 -0.2122  0.4390 -0.0561
   21MOL   C307 6747   7.759   3.219   3.028 -0.2305 -0.2548  0.8841
   21MOL   C308 6748   7.813   3.149   2.912  0.8495 -0.3330 -0.0835
   21MOL   C309 6749   7.877   3.024   2.924  0.2563 -0.4766  0.4567
   21MOL   C310 6750   7.881   2.965   3.055 -0.4614 -0.0159 -0.1119
   21MOL   F311 6751   7.945   2.846   3.068  0.0935 -0.6315  0.2063
   21MOL   C312 6752   7.823   3.031   3.168  0.8685 -0.8955 -0.7827
   21MOL   C313 6753   7.768   3.158   3.155  0.9165 -0.7439  0.2495
   21MOL   C314 6754   7.814   3.452   2.972  0.4845 -0.1692  0.1601
   21MOL   H315 6755   7.674   3.395   3.115  1.2711  1.4473  0.0001
   21MOL   H316 6756   7.822   3.202   2.819  0.6136  0.3867  0.3018
   21MOL   H317 6757   7.921   2.979   2.837 -1.4941  2.3009 -1.9482
   21MOL   H318 6758   7.832   2.981   3.264  0.9803 -1.6411 -1.1729
   21MOL   H319 6759   7.713   3.197   3.240 -0.4940 -2.5880  0.2190
   21MOL   H320 6760   7.909   3.439   3.024  1.5808 -1.1847 -2.0240
   21MOL   H321 6761   7.829   3.441   2.864 -1.2590 -0.1944 -0.0989
   21MOL   H322 6762   7.779   3.555   2.979  2.7392  0.6764 -0.5595
   22MOL     C1 6763   7.581   6.383   4.285 -0.2653 -0.0163 -0.1256
   22MOL     C2 6764   7.551   6.279   4.180 -0.2971 -0.2733  0.2427
   22MOL     C3 6765   7.647   6.249   4.085 -0.4769  0.0450 -0.4485
   22MOL     C4 6766   7.617   6.167   3.968 -0.1359 -0.1354 -0.3014
   22MOL     C5 6767   7.485   6.114   3.953  0.5481 -0.0390 -0.3874
   22MOL     F6 6768   7.454   6.032   3.855  0.5132  0.5350 -0.0502
   22MOL     C7 6769   7.383   6.151   4.048  0.1246 -0.0532  0.1553
   22MOL     C8 6770   7.417   6.237   4.161  0.2002  0.9820  0.0190
   22MOL     C9 6771   7.495   6.509   4.280 -0.5568 -0.3987  0.0609
   22MOL    H10 6772   7.689   6.400   4.285 -0.4042  1.0510 -1.3061
   22MOL    H11 6773   7.745   6.294   4.088  0.5361 -2.1704  2.6084
   22MOL    H12 6774   7.696   6.147   3.897  0.4791  1.8335 -0.2134
   22MOL    H13 6775   7.278   6.127   4.036  0.2673 -1.4005  1.4212
   22MOL    H14 6776   7.343   6.257   4.237  0.2311 -1.5367  0.7715
   22MOL    H15 6777   7.516   6.566   4.189  0.4077  0.1921  0.6404
   22MOL    H16 6778   7.390   6.482   4.274 -0.6092 -0.5990  1.7054
   22MOL    H17 6779   7.577   6.332   4.381  0.3564 -0.6644 -0.4407
   22MOL    C18 6780   7.520   6.615   4.389 -0.2713  0.1473 -0.2177
   22MOL    C19 6781   7.657   6.682   4.366  0.5080 -0.2648  0.0732
   22MOL    C20 6782   7.773   6.652   4.432  0.4799 -0.1917  0.7038
   22MOL    C21 6783   7.902   6.703   4.395  0.3660  0.2534 -0.0624
   22MOL    C22 6784   7.908   6.799   4.291 -0.5693 -0.0412  0.2347
   22MOL    F23 6785   8.024   6.849   4.251 -0.2307  0.5135  0.0266
   22MOL    C24 6786   7.795   6.833   4.220  0.0674  0.1152  0.6692
   22MOL    C25 6787   7.669   6.771   4.253  0.7095 -0.3109  0.6213
   22MOL    C26 6788   7.400   6.712   4.401 -0.3304  0.3985 -0.4376
   22MOL    H27 6789   7.527   6.560   4.483 -1.3342  0.5650  0.1074
   22MOL    H28 6790   7.773   6.581   4.514  2.8060 -1.9888 -0.7778
   22MOL    H29 6791   7.985   6.678   4.460 -0.5888 -1.1668  0.6529
   22MOL    H30 6792   7.794   6.904   4.138  0.6579 -1.7914 -1.0393
   22MOL    H31 6793   7.584   6.791   4.191  0.1962  0.3162  1.5048
   22MOL    H32 6794   7.376   6.745   4.299  1.4285 -0.2636 -1.0803
   22MOL    H33 6795   7.311   6.665   4.443 -0.5950  2.3012  1.1869
   22MOL    C34 6796   7.413   6.832   4.494  0.0556 -0.4349  0.1560
   22MOL    C35 6797   7.292   6.921   4.475  0.4226 -0.2964 -0.0303
   22MOL    C36 6798   7.167   6.883   4.518  0.2893  0.9039  0.2353
   22MOL    C37 6799   7.060   6.972   4.506 -0.0370  0.0130 -0.7366
   22MOL    C38 6800   7.079   7.097   4.448  0.1808  0.0958 -1.0167
   22MOL    F39 6801   6.968   7.174   4.438  0.0359 -0.3366  0.1536
   22MOL    C40 6802   7.206   7.132   4.400 -0.3377 -0.2052  0.3183
   22MOL    C41 6803   7.316   7.048   4.420  0.1687  0.3079  1.0843
   22MOL    C42 6804   7.431   6.787   4.639 -0.6480 -0.8065 -0.7263
   22MOL    H43 6805   7.498   6.897   4.476 -0.8756  1.3142  1.8633
   22MOL    H44 6806   7.149   6.782   4.550  1.5484  0.3105 -0.9345
   22MOL    H45 6807   6.962   6.946   4.542  0.7154 -2.4637 -0.3580
   22MOL    H46 6808   7.229   7.228   4.356 -2.9470 -0.4284 -1.7011
   22MOL    H47 6809   7.417   7.085   4.416  0.4387 -0.4552  0.8027
   22MOL    H48 6810   7.347   6.800   4.708 -0.6301  0.1980 -0.8895
   22MOL    H49 6811   7.436   6.678   4.647 -0.2541 -0.6967  0.6515
   22MOL    C50 6812   7.571   6.828   4.702 -0.1828 -0.6930 -0.0990
   22MOL    C51 6813   7.587   6.978   4.691  0.2148 -0.5113  0.0697
   22MOL    C52 6814   7.687   7.034   4.613 -0.5499 -0.4963  1.1644
   22MOL    C53 6815   7.686   7.173   4.584  0.3239 -0.8533 -0.0380
   22MOL    C54 6816   7.582   7.258   4.639 -0.2803 -0.3102  0.3781
   22MOL    F55 6817   7.585   7.389   4.613 -0.3214  0.4563 -0.0759
   22MOL    C56 6818   7.488   7.201   4.723 -0.2432  0.5065  0.2546
   22MOL    C57 6819   7.488   7.061   4.751  0.2136 -0.1137  0.7689
   22MOL    C58 6820   7.588   6.777   4.846  0.3925  0.3179  0.0465
   22MOL    H59 6821   7.657   6.784   4.652  0.6749 -0.3356  1.0333
   22MOL    H60 6822   7.759   6.969   4.566  1.1696  1.0845  1.5551
   22MOL    H61 6823   7.762   7.219   4.523  0.0842  0.0392  0.3284
   22MOL    H62 6824   7.405   7.260   4.759 -0.5012 -1.0087  2.2200
   22MOL    H63 6825   7.415   7.019   4.819  0.2720 -1.7058 -0.1374
   22MOL    H64 6826   7.673   6.835   4.881  1.8829 -1.5357 -0.4302
   22MOL    H65 6827   7.505   6.817   4.905  1.8458  1.2080  1.5093
   22MOL    C66 6828   7.619   6.618   4.860  0.7176 -0.2194 -0.1030
   22MOL    C67 6829   7.740   6.586   4.943  0.7883  0.7503 -0.0407
   22MOL    C68 6830   7.861   6.572   4.878 -0.7228 -0.4152  0.0745
   22MOL    C69 6831   7.981   6.554   4.953  0.0455 -0.5133 -0.3671
   22MOL    C70 6832   7.976   6.547   5.096 -1.6509  0.6356 -0.0773
   22MOL    F71 6833   8.088   6.528   5.168 -0.5452 -0.1446  0.4861
   22MOL    C72 6834   7.852   6.566   5.158 -0.2683  0.2661 -0.2403
   22MOL    C73 6835   7.734   6.588   5.083  0.1458 -0.1392 -0.1424
   22MOL    C74 6836   7.496   6.539   4.905  0.0354 -0.8126  0.6592
   22MOL    H75 6837   7.650   6.583   4.761  0.0272  1.4216 -0.9313
   22MOL    H76 6838   7.864   6.577   4.770  0.3156  0.9912  0.1469
   22MOL    H77 6839   8.077   6.537   4.907 -0.0192 -0.0709 -0.6685
   22MOL    H78 6840   7.850   6.588   5.264 -1.7605  0.7307 -0.3583
   22MOL    H79 6841   7.643   6.614   5.135  1.3601  0.0772  1.9346
   22MOL    H80 6842   7.455   6.589   4.992 -2.8291 -0.0019 -1.1086
   22MOL    H81 6843   7.417   6.545   4.831  1.2117 -0.8583 -0.6162
   22MOL    C82 6844   7.515   6.387   4.937  0.4428 -1.1912  0.0154
   22MOL    C83 6845   7.390   6.326   4.997  0.5885 -0.0361  0.2619
   22MOL    C84 6846   7.267   6.326   4.920  0.0284  0.7452 -0.6443
   22MOL    C85 6847   7.155   6.254   4.964 -0.3758 -0.4615  0.3497
   22MOL    C86 6848   7.158   6.187   5.087  0.7049  0.4362  0.0659
   22MOL    F87 6849   7.048   6.120   5.133  0.1643 -0.0351 -0.4885
   22MOL    C88 6850   7.282   6.181   5.157  0.2057  0.2195 -1.1858
   22MOL    C89 6851   7.396   6.251   5.116 -0.3183 -0.1210  0.3769
   22MOL    C90 6852   7.571   6.311   4.815 -0.3903  0.0643  0.7012
   22MOL    H91 6853   7.575   6.378   5.027 -1.3109 -1.7548  1.1552
   22MOL    H92 6854   7.260   6.385   4.830 -0.5965  1.8538  0.1224
   22MOL    H93 6855   7.060   6.257   4.911  0.6409  0.4501 -1.4670
   22MOL    H94 6856   7.285   6.121   5.248 -0.7926  0.5828 -0.9060
   22MOL    H95 6857   7.488   6.244   5.173  0.4050 -0.3181 -0.7978
   22MOL    H96 6858   7.492   6.330   4.742 -0.6175  0.1360  0.9638
   22MOL    H97 6859   7.656   6.375   4.790  0.0041 -1.3161 -1.6546
   22MOL    C98 6860   7.616   6.162   4.811 -0.0415  0.5013 -0.4919
   22MOL    C99 6861   7.569   6.085   4.688 -0.0987 -0.6179 -0.8734
   22MOL   C100 6862   7.495   5.967   4.710  0.4558 -0.7141 -0.8379
   22MOL   C101 6863   7.443   5.886   4.607 -0.9122 -0.1614 -0.2041
   22MOL   C102 6864   7.460   5.933   4.472  0.1480  0.0663 -0.5113
   22MOL   F103 6865   7.410   5.862   4.366  0.0141 -0.4491 -0.0721
   22MOL   C104 6866   7.525   6.058   4.444 -0.2120 -0.1380  0.6163
   22MOL   C105 6867   7.578   6.132   4.550 -0.5857 -0.0705 -0.2746
   22MOL   C106 6868   7.772   6.150   4.826 -0.8499  0.1170  0.4303
   22MOL   H107 6869   7.573   6.125   4.904 -1.1071  2.6762 -0.0872
   22MOL   H108 6870   7.482   5.928   4.810  0.0579  0.0749 -0.5750
   22MOL   H109 6871   7.396   5.790   4.622 -0.6306 -0.6020 -1.9823
   22MOL   H110 6872   7.546   6.088   4.343  1.0266 -2.7901  0.0287
   22MOL   H111 6873   7.624   6.228   4.531 -0.2223 -0.3771 -0.9638
   22MOL   H112 6874   7.809   6.062   4.774 -3.9792 -0.9433 -0.0937
   22MOL   H113 6875   7.823   6.226   4.766  1.9003 -1.4631  0.6617
   22MOL   C114 6876   7.827   6.168   4.973 -0.2005 -0.0747  0.2966
   22MOL   C115 6877   7.772   6.063   5.068  0.2377 -0.6156  0.4148
   22MOL   C116 6878   7.713   6.091   5.195  1.1275 -0.7975  0.7110
   22MOL   C117 6879   7.664   5.989   5.278  0.3155  0.3504 -0.3065
   22MOL   C118 6880   7.669   5.856   5.238  0.1199 -0.7973 -0.3293
   22MOL   F119 6881   7.618   5.754   5.311  0.6337 -0.1975 -0.5279
   22MOL   C120 6882   7.737   5.820   5.114  0.5732  0.2876  1.0131
   22MOL   C121 6883   7.787   5.927   5.035  0.5053 -0.9200 -0.2144
   22MOL   C122 6884   7.980   6.182   4.978 -0.5396  0.0036 -0.4749
   22MOL   H123 6885   7.784   6.264   5.001 -4.8223 -1.7617 -0.5551
   22MOL   H124 6886   7.699   6.197   5.213  0.1619 -0.4722 -1.7036
   22MOL   H125 6887   7.615   6.012   5.372  0.6913  1.2740 -0.3286
   22MOL   H126 6888   7.750   5.720   5.077 -1.2393  0.7175 -0.8908
   22MOL   H127 6889   7.815   5.909   4.932 -2.5181 -2.8439 -0.7469
   22MOL   H128 6890   8.022   6.098   4.924 -1.0242 -0.0636 -0.7469
   22MOL   H129 6891   8.008   6.277   4.933  0.6241 -0.1415 -0.0832
   22MOL   C130 6892   8.041   6.176   5.118 -0.3703  0.8057  0.5142
   22MOL   C131 6893   8.049   6.030   5.175 -0.0193  0.0045  0.1403
   22MOL   C132 6894   7.988   6.002   5.306  0.2573  0.2980  0.6774
   22MOL   C133 6895   7.985   5.868   5.357 -0.7594 -0.2273  0.6978
   22MOL   C134 6896   8.051   5.768   5.279 -0.3874 -0.0850  0.4010
   22MOL   F135 6897   8.053   5.641   5.322 -0.2242  0.2882 -0.0407
   22MOL   C136 6898   8.124   5.803   5.162 -0.4069 -0.1655 -0.0637
   22MOL   C137 6899   8.124   5.937   5.110  0.4054  0.7074  0.6994
   22MOL   C138 6900   8.184   6.248   5.102 -0.4081 -0.2918 -0.0266
   22MOL   H139 6901   7.984   6.227   5.197  1.2534  1.9490  0.9618
   22MOL   H140 6902   7.927   6.079   5.351 -1.2796 -0.4207 -0.1405
   22MOL   H141 6903   7.930   5.842   5.446 -0.6484 -1.5020  0.4059
   22MOL   H142 6904   8.171   5.721   5.110 -1.9597 -0.7220 -0.6196
   22MOL   H143 6905   8.177   5.955   5.018  0.7613 -3.4554  0.0146
   22MOL   H144 6906   0.001   6.198   5.020 -0.8612  0.0460 -0.5238
   22MOL   H145 6907   8.176   6.354   5.078  0.2269  0.1718  1.7377
   22MOL   C146 6908   0.046   6.226   5.220  0.6117 -0.4993  0.0366
   22MOL   C147 6909   0.184   6.287   5.179 -0.2538 -0.8283 -1.5341
   22MOL   C148 6910   0.201   6.427   5.191  0.0001 -0.6414  0.3093
   22MOL   C149 6911   0.330   6.478   5.185 -0.5219  0.0748 -0.0595
   22MOL   C150 6912   0.443   6.398   5.157  0.5333 -0.4306 -0.1337
   22MOL   F151 6913   0.569   6.445   5.151 -0.5853  0.8517  0.4383
   22MOL   C152 6914   0.421   6.262   5.133 -0.5743 -0.5170 -0.3905
   22MOL   C153 6915   0.295   6.204   5.145 -0.2536  0.2456 -0.1271
   22MOL   C154 6916   0.002   6.264   5.357  0.7011 -0.6635 -0.2541
   22MOL   H155 6917   0.073   6.120   5.222  0.4184 -0.5532 -0.2289
   22MOL   H156 6918   0.124   6.497   5.220 -0.8046 -0.0802 -2.9269
   22MOL   H157 6919   0.337   6.582   5.213 -1.4947 -0.1018  0.9002
   22MOL   H158 6920   0.503   6.201   5.098 -2.8172 -3.4574 -0.7139
   22MOL   H159 6921   0.283   6.098   5.128 -0.3389  0.1168  0.6953
   22MOL   H160 6922   0.006   6.373   5.361 -3.9764 -0.3704 -0.8426
   22MOL   H161 6923   8.129   6.249   5.362  1.1454 -3.9834  0.3280
   22MOL   C162 6924   0.063   6.210   5.480  0.1625  0.1251 -0.0064
   22MOL   C163 6925   8.232   6.080   5.538 -0.5615  0.7201 -0.1223
   22MOL   C164 6926   8.116   6.094   5.615  0.0024 -0.3018  0.6599
   22MOL   C165 6927   8.053   5.982   5.668  0.2590  0.1076  0.7065
   22MOL   C166 6928   8.112   5.853   5.655 -0.0346 -0.2829 -0.0323
   22MOL   F167 6929   8.066   5.745   5.726 -0.3818  0.0004 -0.4862
   22MOL   C168 6930   8.231   5.840   5.577  0.4982  0.0401 -0.9383
   22MOL   C169 6931   0.058   5.951   5.513  0.2218 -0.1737  0.2053
   22MOL   C170 6932   0.215   6.208   5.472  0.1878  0.2514  0.1370
   22MOL   H171 6933   0.038   6.286   5.553  1.4990 -0.6854  1.3265
   22MOL   H172 6934   8.077   6.193   5.631 -2.6257 -1.0482 -0.8090
   22MOL   H173 6935   7.962   5.984   5.725  1.0622 -1.6139  2.0759
   22MOL   H174 6936   0.031   5.738   5.566 -0.9025 -0.3213 -2.1736
   22MOL   H175 6937   0.149   5.937   5.457 -0.0979 -2.1997  0.1343
   22MOL   H176 6938   0.243   6.130   5.401  0.2590  0.2719  0.1418
   22MOL   H177 6939   0.245   6.304   5.430 -1.4192 -0.1036 -1.8892
   22MOL   C178 6940   0.291   6.180   5.604  0.6173  0.4590  0.2602
   22MOL   C179 6941   0.440   6.176   5.576  0.0602  0.7274 -0.2205
   22MOL   C180 6942   0.523   6.075   5.639  0.1201  0.5383 -0.1028
   22MOL   C181 6943   0.662   6.083   5.628 -0.1374 -0.0977 -0.0806
   22MOL   C182 6944   0.723   6.191   5.551  0.0471  0.6919 -0.4176
   22MOL   F183 6945   0.859   6.205   5.546  0.1613 -0.5709 -0.9792
   22MOL   C184 6946   0.644   6.282   5.492  0.0556 -1.2619 -0.5641
   22MOL   C185 6947   0.503   6.272   5.497 -0.0961 -0.5340  0.1343
   22MOL   C186 6948   0.258   6.277   5.718 -0.6404  0.0915 -0.4912
   22MOL   H187 6949   0.267   6.081   5.644  1.4005 -0.2356 -0.9297
   22MOL   H188 6950   0.484   5.989   5.692  0.3116 -0.4380 -1.5338
   22MOL   H189 6951   0.719   6.002   5.671  1.5680  2.0954  1.9233
   22MOL   H190 6952   0.690   6.366   5.443 -1.4860  0.6931  1.2513
   22MOL   H191 6953   0.442   6.354   5.463  0.6220 -0.0509 -0.0013
   22MOL   H192 6954   0.245   6.372   5.667 -0.7660  1.0926  1.3669
   22MOL   H193 6955   0.157   6.258   5.757 -0.7863 -2.4508 -2.0039
   22MOL   C194 6956   0.350   6.288   5.843 -0.4712 -0.2974  0.5464
   22MOL   C195 6957   0.333   6.414   5.926 -0.6746  0.3281  0.6653
   22MOL   C196 6958   0.206   6.449   5.980  0.7467 -0.1555 -0.3869
   22MOL   C197 6959   0.205   6.560   6.071  0.3462  0.8934  0.0225
   22MOL   C198 6960   0.327   6.630   6.100 -0.2911  0.1602 -0.6193
   22MOL   F199 6961   0.328   6.738   6.192 -0.2407 -0.2138 -0.3918
   22MOL   C200 6962   0.444   6.599   6.041  0.7369 -0.6202  0.6978
   22MOL   C201 6963   0.448   6.496   5.946 -0.7471  0.4814 -0.2454
   22MOL   C202 6964   0.342   6.156   5.931 -0.0204 -0.4675  0.0938
   22MOL   H203 6965   0.450   6.306   5.803 -0.2538 -2.1609  0.1841
   22MOL   H204 6966   0.125   6.380   5.963  1.4560 -1.0232 -0.3153
   22MOL   H205 6967   0.110   6.592   6.110 -0.7456 -1.4065 -0.6697
   22MOL   H206 6968   0.524   6.671   6.052  0.0981  0.5246 -1.8804
   22MOL   H207 6969   0.543   6.476   5.899 -1.8652 -2.7119 -1.2527
   22MOL   H208 6970   0.244   6.161   5.977  0.5481  0.3746  1.2404
   22MOL   H209 6971   0.340   6.067   5.867  2.7751 -0.8812  0.5174
   22MOL   C210 6972   0.445   6.135   6.046  0.3662  0.3238  0.1856
   22MOL   C211 6973   0.409   6.022   6.142  0.5938  0.1201  0.4899
   22MOL   C212 6974   0.319   6.049   6.247  0.5159 -0.2704 -0.1329
   22MOL   C213 6975   0.291   5.954   6.345  0.0943 -0.0956 -0.5123
   22MOL   C214 6976   0.361   5.833   6.345  1.4351 -0.3244  0.0756
   22MOL   F215 6977   0.339   5.747   6.448 -0.1927  0.1263  0.0943
   22MOL   C216 6978   0.450   5.804   6.242 -0.1090  0.8107  0.7873
   22MOL   C217 6979   0.469   5.895   6.134  0.4815  0.3544 -0.0773
   22MOL   C218 6980   0.587   6.129   5.990 -0.3355  0.2446 -0.6752
   22MOL   H219 6981   0.427   6.220   6.112  0.9540 -0.2025  1.0376
   22MOL   H220 6982   0.267   6.144   6.245 -0.3032 -0.7280 -1.4196
   22MOL   H221 6983   0.233   5.977   6.433 -0.3361  0.7718 -1.0226
   22MOL   H222 6984   0.498   5.708   6.256  0.4330  1.1599  1.3267
   22MOL   H223 6985   0.542   5.870   6.058 -1.4267 -0.9452 -1.5159
   22MOL   H224 6986   0.602   6.035   5.936 -1.7363  0.4448 -1.4361
   22MOL   H225 6987   0.587   6.203   5.910  2.0343  0.0913 -0.8665
   22MOL   C226 6988   0.707   6.141   6.088  0.2287  0.0012 -0.3512
   22MOL   C227 6989   0.827   6.110   5.998  0.6993 -0.2670  0.3893
   22MOL   C228 6990   0.885   6.210   5.917 -0.5342  0.4642 -0.6116
   22MOL   C229 6991   0.982   6.179   5.817 -0.3257  0.3289 -0.0830
   22MOL   C230 6992   1.023   6.045   5.795  0.3484 -0.0465 -0.1967
   22MOL   F231 6993   1.123   6.027   5.707 -0.8293 -0.2804 -0.3004
   22MOL   C232 6994   0.953   5.944   5.865  0.6015 -0.9370  0.1650
   22MOL   C233 6995   0.865   5.976   5.964  0.2977 -0.2042  0.0689
   22MOL   C234 6996   0.714   6.265   6.179  0.7113 -0.2541  0.4599
   22MOL   H235 6997   0.689   6.056   6.153  0.9628 -0.4527 -0.7365
   22MOL   H236 6998   0.853   6.313   5.930 -1.0488  0.1426  0.7078
   22MOL   H237 6999   1.012   6.261   5.753  4.5530  0.1550  1.7118
   22MOL   H238 7000   0.978   5.841   5.846 -0.9337 -1.7146  2.1575
   22MOL   H239 7001   0.823   5.890   6.013  0.1922  0.1647  0.6298
   22MOL   H240 7002   0.719   6.355   6.118  0.4024 -0.0737  0.7031
   22MOL   H241 7003   0.617   6.277   6.228 -0.1676 -1.1954 -1.0191
   22MOL   C242 7004   0.823   6.258   6.292  0.4479  0.1722 -0.0052
   22MOL   C243 7005   0.901   6.384   6.325 -0.0833 -0.4867 -0.6908
   22MOL   C244 7006   0.850   6.516   6.297  0.1193 -0.2071  0.6479
   22MOL   C245 7007   0.925   6.627   6.329 -0.4824 -0.9897 -0.1179
   22MOL   C246 7008   1.047   6.611   6.399  0.3596  0.8263  0.0955
   22MOL   F247 7009   1.121   6.719   6.424  0.0658 -0.3117 -0.3166
   22MOL   C248 7010   1.099   6.481   6.429 -0.5280 -0.1861  0.1124
   22MOL   C249 7011   1.025   6.371   6.387 -0.5760 -0.2605 -0.6380
   22MOL   C250 7012   0.766   6.173   6.414 -0.5595  0.2095  0.4218
   22MOL   H251 7013   0.901   6.208   6.235 -0.3546  0.1735 -1.1299
   22MOL   H252 7014   0.756   6.532   6.248  1.0533  0.7735 -0.8597
   22MOL   H253 7015   0.901   6.729   6.306  3.7296 -0.1618 -1.1042
   22MOL   H254 7016   1.189   6.471   6.487 -0.1983  0.6789 -0.2377
   22MOL   H255 7017   1.063   6.273   6.412 -1.1976 -0.4802 -0.5363
   22MOL   H256 7018   0.684   6.114   6.373 -0.9537 -0.7802  2.5460
   22MOL   H257 7019   0.843   6.103   6.447 -0.5967 -0.0974 -0.1398
   22MOL   C258 7020   0.717   6.257   6.540 -0.0448  0.7769 -0.2027
   22MOL   C259 7021   0.601   6.340   6.500  0.1785  0.0252 -0.4319
   22MOL   C260 7022   0.476   6.280   6.459  0.1575 -0.5978 -0.5872
   22MOL   C261 7023   0.361   6.347   6.440 -0.7615 -0.4912  0.1994
   22MOL   C262 7024   0.372   6.489   6.436  0.1204  0.4704 -0.0937
   22MOL   F263 7025   0.262   6.564   6.416 -0.1490  0.2054 -0.5354
   22MOL   C264 7026   0.493   6.553   6.457  0.5771 -0.9711 -0.3951
   22MOL   C265 7027   0.605   6.481   6.500 -0.8291  0.8444 -0.4024
   22MOL   C266 7028   0.671   6.153   6.651 -0.1399  0.2609 -0.9503
   22MOL   H267 7029   0.794   6.322   6.582 -0.4500  1.2210 -0.1553
   22MOL   H268 7030   0.475   6.172   6.473  0.5140 -0.8348 -2.2862
   22MOL   H269 7031   0.264   6.302   6.433 -1.0679 -0.1112  1.6611
   22MOL   H270 7032   0.503   6.659   6.439  0.4633 -0.2564  3.4279
   22MOL   H271 7033   0.701   6.526   6.524 -0.9602 -0.1224  2.0967
   22MOL   H272 7034   0.608   6.202   6.725 -0.8414  0.5875 -1.7537
   22MOL   H273 7035   0.611   6.071   6.612 -1.6972  0.4806  0.9038
   22MOL   C274 7036   0.788   6.086   6.734 -0.2497 -0.7167  0.5080
   22MOL   C275 7037   0.843   6.192   6.831 -0.0081 -0.1749  0.4578
   22MOL   C276 7038   0.771   6.232   6.947 -0.3443  0.6137 -0.0553
   22MOL   C277 7039   0.843   6.307   7.047  0.0779  0.1564  0.3872
   22MOL   C278 7040   0.967   6.360   7.015 -0.5092  0.1205  0.3865
   22MOL   F279 7041   1.038   6.439   7.098 -0.3190  0.2267 -0.0484
   22MOL   C280 7042   1.030   6.338   6.890  0.0068 -0.4657 -0.6642
   22MOL   C281 7043   0.969   6.247   6.804 -0.8683  0.1718 -0.2263
   22MOL   C282 7044   0.750   5.950   6.803 -0.2078 -0.9735  0.5078
   22MOL   H283 7045   0.862   6.066   6.657 -1.6836 -0.9178 -0.8134
   22MOL   H284 7046   0.675   6.186   6.962 -0.0218  0.6780  2.5104
   22MOL   H285 7047   0.805   6.306   7.148  0.2702  0.7765  0.4693
   22MOL   H286 7048   1.125   6.382   6.864  0.2674  0.9511  2.5500
   22MOL   H287 7049   1.030   6.209   6.724 -0.9114  1.0562 -0.6904
   22MOL   H288 7050   0.838   5.924   6.861  2.1593  2.5992 -1.2904
   22MOL   H289 7051   0.667   5.967   6.872  0.0459 -2.1414  1.0902
   22MOL   C290 7052   0.711   5.834   6.711 -0.3108  0.3136  1.1878
   22MOL   C291 7053   0.829   5.797   6.624 -0.5023  0.5359  0.2266
   22MOL   C292 7054   0.807   5.782   6.486 -0.4948  0.3023  0.7217
   22MOL   C293 7055   0.908   5.748   6.397 -0.1670 -0.1773  0.7871
   22MOL   C294 7056   1.035   5.723   6.442  0.0423  0.2331 -0.0786
   22MOL   F295 7057   1.129   5.680   6.360  0.3763 -0.1501  0.2154
   22MOL   C296 7058   1.060   5.724   6.585  0.0980 -0.4777  0.0557
   22MOL   C297 7059   0.957   5.770   6.674  0.4373 -0.0410  0.5709
   22MOL   C298 7060   0.669   5.712   6.803 -0.9090  0.1257 -0.2664
   22MOL   H299 7061   0.620   5.854   6.655  0.3633  0.4881  0.1589
   22MOL   H300 7062   0.716   5.803   6.431 -1.1391  1.1833  2.1012
   22MOL   H301 7063   0.894   5.753   6.290  0.6845 -0.0525  0.6794
   22MOL   H302 7064   1.160   5.717   6.627 -1.3226  0.6356  3.7476
   22MOL   H303 7065   0.983   5.785   6.778  0.1759  0.0970  0.6176
   22MOL   H304 7066   0.753   5.696   6.870 -0.2667  1.7798 -0.6613
   22MOL   H305 7067   0.580   5.741   6.858  0.0408  2.3771  0.1512
   22MOL   C306 7068   0.650   5.574   6.735  0.1818 -0.2954  0.6083
   22MOL   C307 7069   0.657   5.461   6.838 -0.1779  0.3857  0.2720
   22MOL   C308 7070   0.712   5.335   6.799 -0.1750  0.2015 -0.0242
   22MOL   C309 7071   0.722   5.226   6.889  0.0735  0.2886 -0.3070
   22MOL   C310 7072   0.673   5.245   7.021  0.7691 -0.2332  0.2678
   22MOL   F311 7073   0.670   5.145   7.117 -0.1651 -0.5556 -0.1210
   22MOL   C312 7074   0.623   5.371   7.055 -0.1814  0.4373 -0.2690
   22MOL   C313 7075   0.614   5.481   6.968  1.1008  0.3609  0.5419
   22MOL   C314 7076   0.518   5.575   6.654  0.7290  0.0096 -0.1723
   22MOL   H315 7077   0.731   5.560   6.663 -1.3610 -1.9944 -0.8477
   22MOL   H316 7078   0.748   5.327   6.697 -1.4179  0.6735 -0.5075
   22MOL   H317 7079   0.768   5.133   6.862 -1.6088 -0.1534 -1.7383
   22MOL   H318 7080   0.591   5.385   7.157  1.2339  0.1437  0.2251
   22MOL   H319 7081   0.571   5.577   6.992 -1.2637 -0.3149 -0.8333
   22MOL   H320 7082   0.508   5.474   6.615 -0.8746  0.3512 -0.6659
   22MOL   H321 7083   0.435   5.594   6.722  0.1986 -0.6011 -0.6429
   22MOL   H322 7084   0.524   5.644   6.570 -1.0807  2.2247  1.4702
   23MOL     C1 7085   8.071   1.070   1.085 -0.2393 -0.4088  0.0899
   23MOL     C2 7086   7.948   1.037   1.009  0.3787 -0.6674  0.1123
   23MOL     C3 7087   7.943   0.984   0.883  0.1332  0.4158 -0.2689
   23MOL     C4 7088   7.822   0.966   0.817 -0.3823 -0.6112 -0.1295
   23MOL     C5 7089   7.701   1.000   0.886 -0.3276 -0.2942 -0.3905
   23MOL     F6 7090   7.587   0.963   0.822 -0.0409 -0.2514  0.0738
   23MOL     C7 7091   7.699   1.047   1.022  0.4546 -0.1429 -0.1069
   23MOL     C8 7092   7.825   1.065   1.075  0.4226  0.1448 -0.4803
   23MOL     C9 7093   8.139   0.939   1.143 -0.2901  0.0333 -0.1305
   23MOL    H10 7094   8.060   1.143   1.165 -1.3717 -2.4214  1.8354
   23MOL    H11 7095   8.030   0.949   0.830 -0.9772  0.0209 -1.8612
   23MOL    H12 7096   7.818   0.926   0.717  1.4233 -1.3203  0.0593
   23MOL    H13 7097   7.615   1.059   1.089  0.8521  2.2614  0.0130
   23MOL    H14 7098   7.837   1.090   1.179 -0.5638 -2.7066  0.3861
   23MOL    H15 7099   8.068   0.886   1.207  0.2817  0.4786  0.8739
   23MOL    H16 7100   8.163   0.878   1.056  0.3891  0.3828 -0.1935
   23MOL    H17 7101   8.143   1.112   1.014 -1.0557 -1.4920 -1.4146
   23MOL    C18 7102   0.034   0.966   1.221 -0.4077  0.4485 -0.2323
   23MOL    C19 7103   0.007   1.055   1.347 -0.0695 -0.5643 -0.1202
   23MOL    C20 7104   8.148   1.013   1.443  0.7407 -0.4166 -0.1283
   23MOL    C21 7105   8.109   1.099   1.545  0.2688 -0.2651 -0.4235
   23MOL    C22 7106   8.162   1.227   1.557 -0.1793  0.3944 -0.3158
   23MOL    F23 7107   8.118   1.307   1.659  0.9966 -0.0570 -0.4935
   23MOL    C24 7108   0.032   1.265   1.472 -0.5038  0.3630  0.3033
   23MOL    C25 7109   0.074   1.181   1.368 -0.3370 -0.2749 -0.2387
   23MOL    C26 7110   0.116   0.840   1.255 -0.1109 -0.0126  0.0780
   23MOL    H27 7111   0.103   1.025   1.161 -0.7912  0.6832 -0.4456
   23MOL    H28 7112   8.109   0.912   1.437  0.8190 -0.5687  1.6985
   23MOL    H29 7113   8.034   1.066   1.615 -0.2242  1.3523 -0.1671
   23MOL    H30 7114   0.077   1.363   1.470  1.0258 -0.3091  0.9722
   23MOL    H31 7115   0.151   1.209   1.298  1.5251 -1.4734  1.2650
   23MOL    H32 7116   0.193   0.875   1.323  0.6468  0.1026 -0.8388
   23MOL    H33 7117   0.064   0.768   1.320 -2.8198  0.8590 -1.0497
   23MOL    C34 7118   0.176   0.757   1.135 -0.4404 -0.1928  0.0427
   23MOL    C35 7119   0.235   0.849   1.024 -0.5338  0.7505 -0.7326
   23MOL    C36 7120   0.323   0.952   1.061 -0.1188  0.3911 -0.5688
   23MOL    C37 7121   0.362   1.053   0.965  0.3228  0.2498  0.0512
   23MOL    C38 7122   0.306   1.048   0.836 -0.2013 -0.1102 -0.6163
   23MOL    F39 7123   0.340   1.137   0.736  0.0915 -0.2668  0.0141
   23MOL    C40 7124   0.218   0.949   0.800  0.2935 -0.2491 -0.1131
   23MOL    C41 7125   0.187   0.844   0.892  0.1128  0.2919 -0.2962
   23MOL    C42 7126   0.290   0.668   1.170 -0.3715 -0.0395 -0.1021
   23MOL    H43 7127   0.099   0.703   1.080 -1.6583  0.0345  1.4842
   23MOL    H44 7128   0.353   0.958   1.165 -0.4675  1.7631 -0.5453
   23MOL    H45 7129   0.430   1.136   0.982  1.3214 -0.3902 -0.7765
   23MOL    H46 7130   0.182   0.939   0.699  0.4053 -2.3075  0.0470
   23MOL    H47 7131   0.106   0.776   0.871 -0.4668  1.1690 -0.9002
   23MOL    H48 7132   0.314   0.630   1.071  0.2224  1.1120 -0.4095
   23MOL    H49 7133   0.378   0.731   1.186 -1.2246  1.3273 -0.6389
   23MOL    C50 7134   0.270   0.555   1.279 -0.3466  0.1843  0.0374
   23MOL    C51 7135   0.161   0.456   1.234  0.1992  0.2832 -0.4190
   23MOL    C52 7136   0.185   0.355   1.134 -0.2584  0.6960 -0.7906
   23MOL    C53 7137   0.082   0.276   1.084  0.1036 -0.3924  0.4364
   23MOL    C54 7138   8.182   0.289   1.126  0.1164  0.1650  0.0480
   23MOL    F55 7139   8.087   0.207   1.069  0.1710 -0.7364  0.8238
   23MOL    C56 7140   8.160   0.382   1.229  0.0616  0.4930 -0.0495
   23MOL    C57 7141   0.025   0.470   1.276  0.5575 -0.0070 -0.3467
   23MOL    C58 7142   0.395   0.469   1.314  0.2124  0.5593 -0.0493
   23MOL    H59 7143   0.227   0.604   1.366  0.7906  0.8468  0.2321
   23MOL    H60 7144   0.282   0.341   1.087  0.0489  1.7089 -0.4656
   23MOL    H61 7145   0.102   0.204   1.006 -0.1409  0.9192 -0.8637
   23MOL    H62 7146   8.059   0.381   1.266 -1.5639  1.7273 -4.1055
   23MOL    H63 7147   8.230   0.545   1.348  0.0638  0.1294 -0.6924
   23MOL    H64 7148   0.355   0.388   1.374  2.8460 -0.4467  0.3918
   23MOL    H65 7149   0.438   0.438   1.218 -0.4212  2.2631 -0.9043
   23MOL    C66 7150   0.506   0.536   1.397  0.3077  0.2181  0.5565
   23MOL    C67 7151   0.582   0.649   1.334  0.3553  0.7884 -0.0402
   23MOL    C68 7152   0.560   0.783   1.375  0.8111 -0.0243  0.7017
   23MOL    C69 7153   0.624   0.890   1.309 -0.2177  0.0098 -0.1580
   23MOL    C70 7154   0.718   0.859   1.206  0.4997 -0.1263 -0.6663
   23MOL    F71 7155   0.791   0.956   1.146  0.4830  0.0336 -0.6038
   23MOL    C72 7156   0.755   0.724   1.181 -0.5601 -0.1709 -0.1960
   23MOL    C73 7157   0.683   0.622   1.249  1.0240  0.3017  0.2654
   23MOL    C74 7158   0.487   0.549   1.545 -0.5830 -0.8957  0.2747
   23MOL    H75 7159   0.583   0.459   1.394 -0.7118 -1.0081  3.5990
   23MOL    H76 7160   0.482   0.802   1.448  0.6321 -0.3500  0.6003
   23MOL    H77 7161   0.604   0.992   1.338 -0.5115 -0.4696  1.3893
   23MOL    H78 7162   0.826   0.701   1.103  1.2366 -1.2009  1.6800
   23MOL    H79 7163   0.717   0.523   1.223 -0.0624 -0.1641  0.5812
   23MOL    H80 7164   0.427   0.636   1.573  0.8757  0.6054 -1.0959
   23MOL    H81 7165   0.412   0.476   1.574  0.8638 -2.2650  0.6714
   23MOL    C82 7166   0.618   0.542   1.625 -0.3864  0.0144  0.3171
   23MOL    C83 7167   0.606   0.629   1.752  0.2890  0.7198  0.1201
   23MOL    C84 7168   0.535   0.589   1.865 -0.5229  0.3720  0.0205
   23MOL    C85 7169   0.530   0.659   1.986 -0.2127  0.2059 -0.1824
   23MOL    C86 7170   0.607   0.777   1.995  0.2134  0.6786 -0.0943
   23MOL    F87 7171   0.611   0.847   2.109 -0.1130  0.0699  0.2712
   23MOL    C88 7172   0.678   0.821   1.880  0.4442 -0.0912 -0.4760
   23MOL    C89 7173   0.678   0.752   1.759 -0.2229  0.0853  0.1216
   23MOL    C90 7174   0.663   0.394   1.640 -0.0239  0.7365 -0.4192
   23MOL    H91 7175   0.685   0.599   1.561  0.1112 -0.5427  0.3387
   23MOL    H92 7176   0.478   0.497   1.856 -0.2522  0.1474  0.5347
   23MOL    H93 7177   0.477   0.613   2.068 -1.3241  1.0602 -0.3967
   23MOL    H94 7178   0.728   0.916   1.889  0.0352  0.0418  0.4272
   23MOL    H95 7179   0.733   0.781   1.670 -2.3385 -1.0499 -1.6075
   23MOL    H96 7180   0.637   0.351   1.737 -0.3462  0.8490 -0.4563
   23MOL    H97 7181   0.596   0.335   1.579 -0.1083  0.2404  0.1448
   23MOL    C98 7182   0.810   0.372   1.603 -0.5253 -0.2214 -0.1619
   23MOL    C99 7183   0.894   0.457   1.699 -0.0688  0.1915  0.6787
   23MOL   C100 7184   0.948   0.569   1.650  0.4407  0.5484  0.1377
   23MOL   C101 7185   1.021   0.658   1.731  0.2138  1.0163 -0.3505
   23MOL   C102 7186   1.040   0.631   1.868 -0.6196 -0.6073 -0.1821
   23MOL   F103 7187   1.133   0.699   1.939 -0.1951 -0.4866  0.0055
   23MOL   C104 7188   0.979   0.519   1.924  0.2472  0.2366 -0.1329
   23MOL   C105 7189   0.909   0.431   1.836 -0.4391 -0.4945  0.2517
   23MOL   C106 7190   0.865   0.229   1.595 -0.3773 -0.3938  0.9228
   23MOL   H107 7191   0.829   0.415   1.505  1.6794 -0.8375 -0.0435
   23MOL   H108 7192   0.926   0.597   1.548 -0.7436 -0.8918 -0.0092
   23MOL   H109 7193   1.059   0.748   1.684  1.9504  1.2339  1.4123
   23MOL   H110 7194   1.006   0.499   2.026 -0.9612 -1.6421 -0.1732
   23MOL   H111 7195   0.855   0.347   1.879  0.8774 -1.1221  0.7042
   23MOL   H112 7196   0.967   0.227   1.558 -0.6950 -0.6873  0.0594
   23MOL   H113 7197   0.877   0.201   1.700  1.1508 -0.4653  0.7400
   23MOL   C114 7198   0.790   0.124   1.511  0.4185 -0.0721  0.7915
   23MOL   C115 7199   0.739   0.173   1.371 -0.1315  0.4311  0.4307
   23MOL   C116 7200   0.606   0.168   1.325  0.0442 -0.4683 -0.3223
   23MOL   C117 7201   0.559   0.210   1.194  0.2635  0.1490  0.2872
   23MOL   C118 7202   0.660   0.277   1.112  0.5912  0.3605 -0.0051
   23MOL   F119 7203   0.626   0.327   0.994 -0.1549 -0.1627  0.0576
   23MOL   C120 7204   0.797   0.292   1.160 -0.5151 -0.0863 -0.0836
   23MOL   C121 7205   0.836   0.236   1.286  0.6916 -0.5157 -0.1935
   23MOL   C122 7206   0.859   8.221   1.494 -0.7869  0.3787 -0.5805
   23MOL   H123 7207   0.703   0.102   1.573  0.6740  1.5433  1.7262
   23MOL   H124 7208   0.536   0.131   1.398 -1.4941  0.2251 -1.4277
   23MOL   H125 7209   0.463   0.185   1.151 -0.9182 -1.6243  3.7812
   23MOL   H126 7210   0.874   0.345   1.105 -0.8856  1.2738  0.6828
   23MOL   H127 7211   0.941   0.235   1.311  0.5340 -1.5100  0.4728
   23MOL   H128 7212   0.798   8.163   1.425 -0.8775  0.0895 -0.2655
   23MOL   H129 7213   0.946   0.010   1.434  0.2187 -0.4887  0.5029
   23MOL   C130 7214   0.913   8.140   1.609 -0.1374  0.1840  0.2894
   23MOL   C131 7215   0.802   8.071   1.686  0.0141 -0.0720 -0.0153
   23MOL   C132 7216   0.661   8.079   1.653  0.0536 -0.0842  0.3497
   23MOL   C133 7217   0.563   8.009   1.730  0.6789  0.8787  0.9286
   23MOL   C134 7218   0.603   7.944   1.846 -0.2657  0.6376 -0.4205
   23MOL   F135 7219   0.508   7.909   1.929  0.4591 -0.0464  0.4654
   23MOL   C136 7220   0.737   7.936   1.886 -0.1995  0.0952  0.3441
   23MOL   C137 7221   0.836   8.004   1.807 -0.2459 -0.8666 -0.1983
   23MOL   C138 7222   1.009   8.034   1.551 -0.4872 -0.2662  0.4216
   23MOL   H139 7223   0.975   8.203   1.673  0.4624  0.8280 -0.8982
   23MOL   H140 7224   0.629   8.125   1.560  0.7347 -0.8965 -0.2929
   23MOL   H141 7225   0.463   8.000   1.690 -0.1015  2.1559  2.5467
   23MOL   H142 7226   0.765   7.886   1.978 -0.1371 -2.3775 -0.9903
   23MOL   H143 7227   0.938   8.007   1.842 -0.8560  0.8411  1.4827
   23MOL   H144 7228   0.978   7.935   1.584  0.8848 -1.6010 -2.1531
   23MOL   H145 7229   1.000   8.012   1.444  2.0893 -2.1999  0.5540
   23MOL   C146 7230   1.151   8.047   1.610 -0.1182 -0.2642 -0.0481
   23MOL   C147 7231   1.247   7.935   1.567  0.0400 -0.7686  0.1841
   23MOL   C148 7232   1.254   7.908   1.427  0.1638 -0.3619 -0.4920
   23MOL   C149 7233   1.348   7.814   1.382  0.8154  0.2234  0.7297
   23MOL   C150 7234   1.431   7.749   1.478  0.0890  0.6426  0.1090
   23MOL   F151 7235   1.525   7.660   1.433 -0.3504 -0.5515 -0.2605
   23MOL   C152 7236   1.418   7.776   1.615  0.0087  0.3949  0.6891
   23MOL   C153 7237   1.323   7.867   1.658 -0.0644 -0.1542  0.1415
   23MOL   C154 7238   1.211   8.183   1.581  0.1790 -0.4128  0.1831
   23MOL   H155 7239   1.132   8.055   1.718  2.9652  3.0515  0.3340
   23MOL   H156 7240   1.185   7.949   1.354  0.8033 -1.0593 -1.5130
   23MOL   H157 7241   1.371   7.783   1.281 -2.1541  2.7353 -0.8050
   23MOL   H158 7242   1.491   7.727   1.678  1.5646  1.4999 -0.2155
   23MOL   H159 7243   1.317   7.872   1.765 -2.0409  1.9473 -0.0450
   23MOL   H160 7244   1.195   8.188   1.473  0.0129 -0.7299  0.1936
   23MOL   H161 7245   1.164   0.036   1.627  1.9361  0.5425  0.1875
   23MOL   C162 7246   1.365   8.208   1.599 -0.1114  0.5981 -0.6748
   23MOL   C163 7247   1.418   0.090   1.518 -0.3751 -0.4386 -0.4244
   23MOL   C164 7248   1.513   0.072   1.418 -0.2140 -0.1018  0.0741
   23MOL   C165 7249   1.556   0.191   1.342  0.0627  0.8548  0.5556
   23MOL   C166 7250   1.498   0.309   1.363  0.3546  0.2205 -0.3975
   23MOL   F167 7251   1.541   0.414   1.287 -0.1547 -0.4155  0.0757
   23MOL   C168 7252   1.408   0.331   1.466  0.5855 -1.0271  0.5968
   23MOL   C169 7253   1.367   0.219   1.549  0.1491 -0.6945 -1.1550
   23MOL   C170 7254   1.389   8.221   1.748 -0.3662 -0.3157  0.0263
   23MOL   H171 7255   1.419   8.119   1.567 -0.1034  0.8162 -1.2647
   23MOL   H172 7256   1.556   8.208   1.401 -0.8344 -0.4260  0.4013
   23MOL   H173 7257   1.626   0.183   1.261 -1.0454  1.0864 -0.4391
   23MOL   H174 7258   1.358   0.424   1.484 -1.5856 -1.9081 -0.6995
   23MOL   H175 7259   1.292   0.230   1.626  0.1150 -1.1220 -1.1215
   23MOL   H176 7260   1.355   0.085   1.780  2.6246  0.9038 -0.3939
   23MOL   H177 7261   1.323   8.149   1.799  0.4432 -0.7299  0.4971
   23MOL   C178 7262   1.532   8.197   1.789 -0.3802  0.2996  0.1048
   23MOL   C179 7263   1.549   8.217   1.940 -0.7691  0.3370 -1.0965
   23MOL   C180 7264   1.501   8.122   2.036  0.8135  0.8076 -0.0093
   23MOL   C181 7265   1.510   8.142   2.176  0.3671  0.4856  0.0265
   23MOL   C182 7266   1.560   0.031   2.217  0.0166 -0.2994  0.0537
   23MOL   F183 7267   1.549   0.064   2.349  0.0166 -0.2426  0.0820
   23MOL   C184 7268   1.629   0.118   2.130 -0.2130  0.5424 -0.4556
   23MOL   C185 7269   1.625   0.094   1.986  0.4867 -0.3292 -0.3566
   23MOL   C186 7270   1.582   8.051   1.743  0.0877  0.0156 -0.5253
   23MOL   H187 7271   1.589   0.041   1.738  0.3472 -0.5086 -0.3527
   23MOL   H188 7272   1.453   8.035   1.993  0.0614  1.9031 -1.4593
   23MOL   H189 7273   1.463   8.069   2.241 -1.9272 -1.2497 -3.3979
   23MOL   H190 7274   1.665   0.216   2.159  0.1787  1.0359 -2.5183
   23MOL   H191 7275   1.667   0.173   1.925  1.2355  1.9531  2.9655
   23MOL   H192 7276   1.553   7.968   1.807 -2.5284 -0.6529 -2.5130
   23MOL   H193 7277   1.561   8.016   1.643  0.1263 -1.4455 -0.0359
   23MOL   C194 7278   1.741   8.057   1.723  0.7161 -0.2205 -0.1926
   23MOL   C195 7279   1.800   7.926   1.757 -0.9929 -0.4918  0.7733
   23MOL   C196 7280   1.790   7.816   1.670 -0.3569 -0.5215  0.0199
   23MOL   C197 7281   1.851   7.690   1.699 -0.1443  0.2875  0.0993
   23MOL   C198 7282   1.925   7.680   1.818 -0.2976 -0.2610 -0.3745
   23MOL   F199 7283   1.993   7.566   1.844 -0.2329  0.1075 -0.1578
   23MOL   C200 7284   1.931   7.787   1.911 -0.4485 -0.2307  0.4525
   23MOL   C201 7285   1.872   7.911   1.879 -0.5814 -0.3539 -0.5982
   23MOL   C202 7286   1.776   8.114   1.584  0.1837  0.0316 -0.4685
   23MOL   H203 7287   1.781   8.128   1.795 -1.5825  0.6889  0.2402
   23MOL   H204 7288   1.741   7.832   1.575  0.4819  0.2413 -0.2931
   23MOL   H205 7289   1.842   7.606   1.631  1.9776 -0.3221  0.5425
   23MOL   H206 7290   1.989   7.784   2.001  0.1997  0.4592  0.0657
   23MOL   H207 7291   1.881   7.995   1.946 -1.7140  0.1046 -0.9997
   23MOL   H208 7292   1.744   8.038   1.513 -2.3250  0.5472  0.0789
   23MOL   H209 7293   1.708   8.196   1.561 -0.4983 -0.2235  0.6030
   23MOL   C210 7294   1.916   8.166   1.557 -0.3272 -0.5385  0.1303
   23MOL   C211 7295   2.013   8.055   1.516 -0.4555 -0.2837 -0.8714
   23MOL   C212 7296   2.115   8.027   1.609 -0.0207  0.3857 -0.2698
   23MOL   C213 7297   2.213   7.919   1.590  0.2155 -0.2594 -0.3572
   23MOL   C214 7298   2.208   7.853   1.466  0.1820  0.0851 -0.0298
   23MOL   F215 7299   2.302   7.761   1.444 -0.2406 -0.3810  0.2676
   23MOL   C216 7300   2.109   7.885   1.371 -0.1586 -0.0017  0.3236
   23MOL   C217 7301   2.009   7.977   1.397  0.8763 -0.1985 -0.3691
   23MOL   C218 7302   1.908   0.036   1.440  0.1825 -0.0718 -0.5113
   23MOL   H219 7303   1.952   8.213   1.648  0.4684 -1.4155  0.2783
   23MOL   H220 7304   2.117   8.084   1.700 -0.3257 -0.3691  0.2178
   23MOL   H221 7305   2.286   7.895   1.666  0.9909  4.5397  0.5492
   23MOL   H222 7306   2.109   7.832   1.277 -2.2636 -1.0078  0.8623
   23MOL   H223 7307   1.932   7.994   1.323  0.8703  1.6847  0.0714
   23MOL   H224 7308   1.848   8.224   1.362 -0.5866  0.9260 -0.5342
   23MOL   H225 7309   1.850   0.119   1.480 -0.9625 -1.0463 -0.1187
   23MOL   C226 7310   2.040   0.081   1.380 -0.0534 -0.3124  0.5256
   23MOL   C227 7311   2.012   0.163   1.257  0.8911 -0.6254 -0.2736
   23MOL   C228 7312   1.934   0.280   1.269  0.5352 -0.0405 -0.6425
   23MOL   C229 7313   1.906   0.356   1.152  0.0746 -0.7681 -0.0308
   23MOL   C230 7314   1.946   0.309   1.027  0.1895 -0.1366 -0.3722
   23MOL   F231 7315   1.904   0.369   0.917  0.1663 -0.4870 -0.6207
   23MOL   C232 7316   2.012   0.186   1.017 -0.1248 -0.3529  0.0561
   23MOL   C233 7317   2.052   0.120   1.127 -0.4039  0.1154 -0.5958
   23MOL   C234 7318   2.137   0.146   1.490  0.3427  0.0241 -0.1547
   23MOL   H235 7319   2.091   8.229   1.338 -3.1908 -1.5035 -0.9751
   23MOL   H236 7320   1.909   0.319   1.367 -1.4239 -1.2777 -0.6105
   23MOL   H237 7321   1.854   0.450   1.164  1.8350  0.4377 -1.6604
   23MOL   H238 7322   2.039   0.145   0.921 -0.5609 -0.9673  0.1914
   23MOL   H239 7323   2.113   0.032   1.121 -0.1334  0.3540 -1.3459
   23MOL   H240 7324   2.119   0.252   1.505  1.4892  0.3290 -0.8829
   23MOL   H241 7325   2.123   0.100   1.588 -0.6578  3.9255  1.5971
   23MOL   C242 7326   2.288   0.159   1.458  0.0204  0.5113 -0.0299
   23MOL   C243 7327   2.373   0.211   1.570  0.0908  0.1275 -0.1773
   23MOL   C244 7328   2.392   0.135   1.683 -0.1304 -0.1397  0.9473
   23MOL   C245 7329   2.465   0.182   1.792  0.5923 -0.0264 -0.4366
   23MOL   C246 7330   2.539   0.298   1.782 -0.1008 -0.0520  0.0761
   23MOL   F247 7331   2.623   0.347   1.881  0.3499  0.6365  0.0453
   23MOL   C248 7332   2.528   0.373   1.663 -0.1264  0.3601 -0.0789
   23MOL   C249 7333   2.446   0.329   1.557 -0.1033 -0.5867  0.6851
   23MOL   C250 7334   2.353   0.036   1.390  0.2249 -0.2125 -0.5151
   23MOL   H251 7335   2.305   0.236   1.384  0.5821 -1.0912 -1.6115
   23MOL   H252 7336   2.333   0.045   1.682 -0.6359  0.1392  3.3065
   23MOL   H253 7337   2.472   0.129   1.886  2.1519  2.8517  1.1272
   23MOL   H254 7338   2.586   0.463   1.649  0.5933 -0.0343  0.3427
   23MOL   H255 7339   2.444   0.388   1.467  1.0672 -4.0608 -1.7431
   23MOL   H256 7340   2.323   8.191   1.457 -1.0450  0.9386  0.3212
   23MOL   H257 7341   2.307   8.232   1.299 -0.1003  0.7236 -0.7557
   23MOL   C258 7342   2.512   0.042   1.368  0.0355  0.4944  0.0384
   23MOL   C259 7343   2.573   8.158   1.444 -0.2669 -0.4820 -0.6769
   23MOL   C260 7344   2.549   8.023   1.409  0.3772  0.2340  0.5431
   23MOL   C261 7345   2.606   7.919   1.474 -0.2713 -0.3375 -0.1372
   23MOL   C262 7346   2.698   7.942   1.582 -0.2674  0.0388  0.5875
   23MOL   F263 7347   2.754   7.835   1.643  0.0579 -0.7809 -0.0882
   23MOL   C264 7348   2.728   8.075   1.615  0.9296  0.3077 -0.5108
   23MOL   C265 7349   2.655   8.182   1.555 -0.8018 -0.0771 -0.0272
   23MOL   C266 7350   2.549   0.025   1.220 -0.4538 -0.6451 -0.0120
   23MOL   H267 7351   2.557   0.134   1.406 -0.7495  0.7690  0.3296
   23MOL   H268 7352   2.474   7.992   1.338  0.1998 -0.9738  1.2289
   23MOL   H269 7353   2.567   7.821   1.451 -0.4365 -0.4167  0.4687
   23MOL   H270 7354   2.794   8.087   1.700  0.2329  0.9572 -0.0518
   23MOL   H271 7355   2.674   0.050   1.585 -0.4239 -0.4732  1.0940
   23MOL   H272 7356   2.658   0.022   1.211 -0.3752  2.4255 -0.8633
   23MOL   H273 7357   2.515   8.162   1.186 -2.3088  0.0710 -0.2726
   23MOL   C274 7358   2.492   0.129   1.122  0.3553 -0.1293 -0.3121
   23MOL   C275 7359   2.510   0.268   1.163 -0.3522  0.2681  0.1800
   23MOL   C276 7360   2.402   0.351   1.147  0.0519 -0.2094 -0.5844
   23MOL   C277 7361   2.406   0.487   1.212 -0.0277 -0.6513 -0.2316
   23MOL   C278 7362   2.527   0.525   1.266 -0.0103 -0.5796 -0.3730
   23MOL   F279 7363   2.542   0.642   1.330  0.4811  0.1274 -0.9602
   23MOL   C280 7364   2.637   0.440   1.262  0.3349  0.2686  1.0877
   23MOL   C281 7365   2.628   0.309   1.221 -0.9614  0.1856  0.4497
   23MOL   C282 7366   2.542   0.120   0.976  0.3067 -0.0032 -0.2647
   23MOL   H283 7367   2.389   0.097   1.113  0.9117 -2.4049  0.9671
   23MOL   H284 7368   2.324   0.313   1.083  0.8932 -2.6718 -0.1893
   23MOL   H285 7369   2.326   0.558   1.198  0.5141  0.0924  0.4575
   23MOL   H286 7370   2.728   0.487   1.297 -0.2412  1.4501  1.0123
   23MOL   H287 7371   2.710   0.239   1.220 -0.1605  1.1100 -0.1150
   23MOL   H288 7372   2.471   0.177   0.916  0.3984  1.1828  0.7308
   23MOL   H289 7373   2.640   0.167   0.966 -0.1120  0.9700  0.1355
   23MOL   C290 7374   2.532   8.213   0.911 -0.0071  0.7063  0.4838
   23MOL   C291 7375   2.394   8.156   0.896 -0.2025 -0.2296 -0.2016
   23MOL   C292 7376   2.356   8.043   0.970 -0.2579 -0.1128 -0.2530
   23MOL   C293 7377   2.218   8.005   0.970  0.5136 -0.3713 -0.4074
   23MOL   C294 7378   2.123   8.067   0.886  0.0355  0.1806  0.1152
   23MOL   F295 7379   2.000   8.013   0.883 -0.0668  0.1652 -0.4792
   23MOL   C296 7380   2.168   8.172   0.800 -0.5376 -0.0039  0.4670
   23MOL   C297 7381   2.299   8.216   0.805 -0.0373  0.7947  0.4607
   23MOL   C298 7382   2.611   8.223   0.774  0.1101  0.0972 -0.2609
   23MOL   H299 7383   2.595   8.148   0.972  0.3173  1.2574  0.7466
   23MOL   H300 7384   2.432   7.996   1.031 -1.9683 -1.3609  0.9793
   23MOL   H301 7385   2.193   7.917   1.027  0.0388 -1.5639 -2.4051
   23MOL   H302 7386   2.095   8.222   0.738  1.2480 -0.2896 -1.9312
   23MOL   H303 7387   2.315   0.072   0.748 -0.3302  1.0962  0.8501
   23MOL   H304 7388   2.540   0.044   0.713 -0.2162 -0.5177 -0.4424
   23MOL   H305 7389   2.702   0.045   0.794 -0.4253  0.3505  1.5565
   23MOL   C306 7390   2.655   8.088   0.713 -0.3255  0.3853 -0.3023
   23MOL   C307 7391   2.543   8.014   0.635  0.9419 -0.5187 -0.4365
   23MOL   C308 7392   2.505   8.058   0.504 -0.5161 -0.5051 -0.2170
   23MOL   C309 7393   2.415   7.993   0.423  1.1476  0.4044  0.0597
   23MOL   C310 7394   2.351   7.879   0.473  0.2581  0.1943 -0.0406
   23MOL   F311 7395   2.262   7.804   0.403 -0.3353 -0.3172  0.1113
   23MOL   C312 7396   2.397   7.824   0.599 -0.5368  1.1522  0.3031
   23MOL   C313 7397   2.482   7.892   0.683  0.4268 -0.0349  0.0371
   23MOL   C314 7398   2.776   8.108   0.617  0.2255  0.5217  0.1392
   23MOL   H315 7399   2.699   8.028   0.793 -0.6997  0.4668 -0.0329
   23MOL   H316 7400   2.558   8.143   0.464 -0.7271 -0.4148 -0.3051
   23MOL   H317 7401   2.381   8.026   0.326  1.1747  0.8615  0.2022
   23MOL   H318 7402   2.367   7.724   0.628 -1.7949  1.0077 -1.3894
   23MOL   H319 7403   2.515   7.839   0.771  1.6421  0.9501  0.2049
   23MOL   H320 7404   2.799   8.015   0.564 -0.1568 -0.1724  1.1735
   23MOL   H321 7405   2.754   8.187   0.545 -0.9208  0.3809  0.3200
   23MOL   H322 7406   2.858   8.152   0.673  0.4756 -3.0111  2.6910
   24MOL     C1 7407   2.576   4.286   5.674  0.4593 -0.1840 -0.2955
   24MOL     C2 7408   2.556   4.424   5.730  0.0689 -0.1090 -0.2305
   24MOL     C3 7409   2.537   4.525   5.642  0.1776  0.4488  0.2608
   24MOL     C4 7410   2.518   4.656   5.686  0.2473  0.4577  0.0343
   24MOL     C5 7411   2.508   4.688   5.823 -0.8948 -0.0447  0.0298
   24MOL     F6 7412   2.478   4.810   5.863 -0.2474 -0.5859  0.0058
   24MOL     C7 7413   2.531   4.581   5.917  0.3659 -0.0550  0.3960
   24MOL     C8 7414   2.555   4.452   5.870  0.1574 -0.6503 -0.4102
   24MOL     C9 7415   2.500   4.257   5.538 -0.0420  0.4104 -0.3890
   24MOL    H10 7416   2.539   4.212   5.744 -0.2015  0.0130 -0.4351
   24MOL    H11 7417   2.534   4.512   5.535 -2.0244  0.2133  0.3318
   24MOL    H12 7418   2.508   4.740   5.618  0.5493  0.3665 -0.1224
   24MOL    H13 7419   2.535   4.613   6.021  1.4641 -2.0471  0.9913
   24MOL    H14 7420   2.567   4.368   5.938 -1.1687 -1.6027 -1.3073
   24MOL    H15 7421   2.395   4.285   5.543 -0.4304 -1.2443  1.2088
   24MOL    H16 7422   2.545   4.316   5.458 -1.3877  1.9586 -0.0332
   24MOL    H17 7423   2.682   4.263   5.672  0.3534 -0.6268 -1.2481
   24MOL    C18 7424   2.509   4.107   5.484 -0.4164 -0.6205 -0.3252
   24MOL    C19 7425   2.480   3.999   5.589 -0.3760 -0.6104  0.1809
   24MOL    C20 7426   2.357   3.991   5.651 -0.4143  0.2765  0.2913
   24MOL    C21 7427   2.341   3.895   5.752 -0.2783  0.0657  0.0203
   24MOL    C22 7428   2.447   3.815   5.793  0.3113 -0.9010  0.3159
   24MOL    F23 7429   2.422   3.717   5.887 -0.1988 -0.7250 -0.3440
   24MOL    C24 7430   2.570   3.820   5.724 -0.3110  0.8735 -0.0243
   24MOL    C25 7431   2.587   3.909   5.623  0.1107  0.1396 -0.1232
   24MOL    C26 7432   2.421   4.097   5.358 -0.2177  0.3707 -0.2558
   24MOL    H27 7433   2.613   4.084   5.463 -0.4231  0.2256 -1.2988
   24MOL    H28 7434   2.280   4.063   5.628 -1.4160 -0.8155  0.1743
   24MOL    H29 7435   2.244   3.889   5.799 -0.2650  0.1484  0.0584
   24MOL    H30 7436   2.650   3.756   5.759  0.7078  1.4214 -1.3532
   24MOL    H31 7437   2.688   3.924   5.587  0.2321 -0.5229 -0.0557
   24MOL    H32 7438   2.378   3.997   5.362  1.1926 -0.2690 -0.9611
   24MOL    H33 7439   2.338   4.168   5.365 -0.0157  0.6358 -0.5593
   24MOL    C34 7440   2.494   4.109   5.221 -1.1162 -0.0118  0.0161
   24MOL    C35 7441   2.607   4.012   5.190 -0.4469 -0.2411  0.2097
   24MOL    C36 7442   2.729   4.071   5.162 -0.1568  0.1711 -0.2057
   24MOL    C37 7443   2.831   3.994   5.107 -0.1235  0.0680 -0.1394
   24MOL    C38 7444   2.821   3.852   5.120  0.3458  0.2766  0.1481
   24MOL    F39 7445   2.922   3.766   5.085 -0.3608  0.3080 -0.3994
   24MOL    C40 7446   2.699   3.795   5.166 -0.0780 -0.0043  0.1941
   24MOL    C41 7447   2.595   3.874   5.199 -0.0113 -0.3841  0.4210
   24MOL    C42 7448   2.396   4.127   5.103  0.3008 -0.7251 -0.5250
   24MOL    H43 7449   2.546   4.204   5.229  0.1900 -0.8350  1.4360
   24MOL    H44 7450   2.748   4.175   5.181  0.1422 -0.1358  1.2303
   24MOL    H45 7451   2.925   4.038   5.081 -0.4305  1.8975  1.6913
   24MOL    H46 7452   2.689   3.687   5.175 -0.4907  0.0044 -0.1003
   24MOL    H47 7453   2.498   3.838   5.230 -0.3189 -1.7792 -2.0342
   24MOL    H48 7454   2.463   4.136   5.018  0.0983 -0.8115 -0.6923
   24MOL    H49 7455   2.335   4.037   5.096 -0.8290  0.0658 -0.9352
   24MOL    C50 7456   2.307   4.252   5.097 -0.0887 -0.7682 -0.2295
   24MOL    C51 7457   2.384   4.380   5.150  0.1370 -0.1194 -0.4626
   24MOL    C52 7458   2.510   4.418   5.098 -0.2870  0.2248 -0.0027
   24MOL    C53 7459   2.591   4.514   5.159 -0.5209  1.1281 -0.1591
   24MOL    C54 7460   2.538   4.582   5.274  0.1939 -0.2376 -0.2059
   24MOL    F55 7461   2.612   4.684   5.333  1.1428  0.2302 -0.2005
   24MOL    C56 7462   2.409   4.553   5.317  0.1671  0.5346 -0.3747
   24MOL    C57 7463   2.330   4.451   5.257  0.2289  0.5481 -0.0124
   24MOL    C58 7464   2.261   4.286   4.954  0.0805  0.3837 -0.5106
   24MOL    H59 7465   2.217   4.238   5.157 -0.2537  0.4910 -0.1532
   24MOL    H60 7466   2.548   4.367   5.010 -2.8912  2.7838 -2.7106
   24MOL    H61 7467   2.688   4.535   5.116 -0.6015 -1.2425 -1.5932
   24MOL    H62 7468   2.375   4.600   5.408 -1.9272  0.5337 -1.1248
   24MOL    H63 7469   2.235   4.418   5.296  1.4392 -2.3458  0.6505
   24MOL    H64 7470   2.245   4.394   4.956  2.0974  0.7053 -0.4418
   24MOL    H65 7471   2.348   4.278   4.889 -0.6384 -0.9431 -1.3193
   24MOL    C66 7472   2.134   4.200   4.913  0.0684  0.5441  0.0416
   24MOL    C67 7473   2.024   4.224   5.016  1.4561 -0.1679 -0.1606
   24MOL    C68 7474   1.956   4.349   5.026  0.1793  0.1623 -0.4857
   24MOL    C69 7475   1.845   4.366   5.109  0.1236 -0.3654  0.6272
   24MOL    C70 7476   1.804   4.258   5.193  0.0798 -0.1255  0.7498
   24MOL    F71 7477   1.691   4.268   5.265  0.2152  0.1117  0.5404
   24MOL    C72 7478   1.873   4.137   5.183  0.4929  0.8635  0.1931
   24MOL    C73 7479   1.975   4.115   5.091 -0.1347  0.9055 -0.9166
   24MOL    C74 7480   2.074   4.235   4.770 -0.3722 -0.0372 -0.1547
   24MOL    H75 7481   2.156   4.093   4.913 -0.3730  0.4408  1.0494
   24MOL    H76 7482   1.995   4.430   4.967 -1.0062  1.0588 -0.0466
   24MOL    H77 7483   1.784   4.455   5.104 -0.4233 -0.8364 -3.4498
   24MOL    H78 7484   1.850   4.050   5.242  2.7197  1.4224  1.9813
   24MOL    H79 7485   2.015   4.014   5.090 -1.5142  0.3217  0.8011
   24MOL    H80 7486   1.968   4.211   4.768 -0.2596 -0.6268  0.8323
   24MOL    H81 7487   2.069   4.344   4.768  0.8684  0.0172 -1.2686
   24MOL    C82 7488   2.147   4.183   4.643 -0.2029 -0.3844  0.6362
   24MOL    C83 7489   2.131   4.029   4.615 -0.0107 -0.0430  0.1901
   24MOL    C84 7490   2.010   3.970   4.617 -0.0248 -0.1626 -0.0052
   24MOL    C85 7491   1.996   3.833   4.605  0.2374 -0.5651  0.4222
   24MOL    C86 7492   2.103   3.750   4.584  0.3147 -0.6130 -0.5118
   24MOL    F87 7493   2.084   3.621   4.560  0.2665 -0.2410  0.2974
   24MOL    C88 7494   2.230   3.812   4.568  0.9507  0.3612  0.1320
   24MOL    C89 7495   2.246   3.956   4.586 -0.9306  0.2152  0.2190
   24MOL    C90 7496   2.081   4.254   4.518 -0.3458  0.4131 -0.5363
   24MOL    H91 7497   2.253   4.205   4.658 -0.5930  2.8652 -0.7668
   24MOL    H92 7498   1.922   4.033   4.622 -1.5071 -2.2541  1.4558
   24MOL    H93 7499   1.898   3.793   4.585  0.5080 -1.9005  1.6821
   24MOL    H94 7500   2.320   3.759   4.542  0.8394  0.0292  0.4195
   24MOL    H95 7501   2.340   4.007   4.571 -0.1208 -1.1055  0.7187
   24MOL    H96 7502   2.068   4.182   4.437  0.5968  0.3602 -0.6514
   24MOL    H97 7503   1.978   4.280   4.542  0.3314  2.1010  0.6151
   24MOL    C98 7504   2.154   4.375   4.461 -0.4640 -0.1146  0.2777
   24MOL    C99 7505   2.163   4.485   4.570 -0.9218  0.0333 -0.3124
   24MOL   C100 7506   2.281   4.491   4.652 -0.0572 -0.6845 -0.1754
   24MOL   C101 7507   2.289   4.592   4.752  0.2684 -0.0737 -0.0105
   24MOL   C102 7508   2.183   4.686   4.767 -0.5968 -0.2035 -0.4238
   24MOL   F103 7509   2.191   4.780   4.864 -0.5972  0.0311  0.4226
   24MOL   C104 7510   2.067   4.679   4.686  1.2106  0.2533 -0.2745
   24MOL   C105 7511   2.061   4.582   4.581  0.0069 -0.4051  0.9575
   24MOL   C106 7512   2.284   4.344   4.378 -0.7657  0.4562 -0.5087
   24MOL   H107 7513   2.094   4.420   4.382  0.9175  0.0311 -0.7063
   24MOL   H108 7514   2.363   4.424   4.633  0.1294 -0.1345 -1.3702
   24MOL   H109 7515   2.369   4.593   4.824 -0.1772 -2.0259  0.5444
   24MOL   H110 7516   1.992   4.754   4.704  1.4901 -0.0532  2.3846
   24MOL   H111 7517   1.980   4.584   4.509 -0.4516 -2.3548  1.3949
   24MOL   H112 7518   2.360   4.295   4.439  1.0566  3.0686 -0.5799
   24MOL   H113 7519   2.259   4.276   4.297  1.3839  0.8174 -1.5081
   24MOL   C114 7520   2.370   4.463   4.320 -0.4283 -0.0909 -0.0111
   24MOL   C115 7521   2.507   4.425   4.255 -0.2836  0.2756 -0.7599
   24MOL   C116 7522   2.608   4.521   4.240 -0.3625 -0.0524 -0.0181
   24MOL   C117 7523   2.744   4.487   4.210 -0.7604 -0.1446 -0.5731
   24MOL   C118 7524   2.762   4.357   4.160 -0.8402 -0.4378 -0.3041
   24MOL   F119 7525   2.884   4.332   4.115  0.2481 -0.1465  0.1875
   24MOL   C120 7526   2.659   4.255   4.160  0.0535  1.2683  0.6313
   24MOL   C121 7527   2.537   4.292   4.216  1.3338 -0.2383  0.0117
   24MOL   C122 7528   2.297   4.561   4.238  0.1559  0.8492  0.1799
   24MOL   H123 7529   2.387   4.530   4.404  0.8917 -1.3998  0.7999
   24MOL   H124 7530   2.592   4.626   4.263 -2.1510 -0.1176 -0.8252
   24MOL   H125 7531   2.825   4.559   4.213 -1.8382  1.0683 -0.1125
   24MOL   H126 7532   2.671   4.154   4.124 -2.2598  1.5141 -0.9624
   24MOL   H127 7533   2.459   4.218   4.221 -1.3173  2.5993  2.8216
   24MOL   H128 7534   2.206   4.592   4.290 -0.6956 -0.0900 -0.7393
   24MOL   H129 7535   2.364   4.647   4.237  0.9548  0.2335  0.1183
   24MOL   C130 7536   2.258   4.531   4.090 -0.0450  0.0531  0.0586
   24MOL   C131 7537   2.143   4.428   4.083  0.4801  0.4863  0.3712
   24MOL   C132 7538   2.155   4.303   4.018  0.0925  0.1936  0.9850
   24MOL   C133 7539   2.046   4.212   4.010 -0.1178  0.1867 -0.0439
   24MOL   C134 7540   1.922   4.258   4.058 -0.4131 -0.6368 -0.1410
   24MOL   F135 7541   1.811   4.176   4.056  0.2718 -0.0095 -0.4452
   24MOL   C136 7542   1.906   4.384   4.117 -0.5069 -0.1067 -0.1534
   24MOL   C137 7543   2.017   4.467   4.139  0.1821  0.2059 -1.0703
   24MOL   C138 7544   2.217   4.663   4.019  0.1306 -0.4383 -0.4169
   24MOL   H139 7545   2.339   4.472   4.047  0.4428  0.5776  0.2698
   24MOL   H140 7546   2.246   4.270   3.970 -0.7475  1.9917 -1.9424
   24MOL   H141 7547   2.050   4.111   3.972  0.5876 -0.4777  1.7611
   24MOL   H142 7548   1.810   4.426   4.142  1.0312  1.3115  3.5655
   24MOL   H143 7549   2.009   4.563   4.188 -2.1213 -0.6494  0.3278
   24MOL   H144 7550   2.148   4.629   3.941 -2.0307 -1.1757  1.7738
   24MOL   H145 7551   2.167   4.728   4.090 -1.1206 -1.9496  0.1019
   24MOL   C146 7552   2.339   4.741   3.959 -0.2582 -0.3080 -0.0213
   24MOL   C147 7553   2.427   4.651   3.868  0.2913  0.5690  0.5344
   24MOL   C148 7554   2.563   4.632   3.891  0.1634  0.2560  0.3533
   24MOL   C149 7555   2.643   4.576   3.792  0.0850 -0.2423  0.0145
   24MOL   C150 7556   2.588   4.525   3.675  0.1418 -0.5432 -0.2593
   24MOL   F151 7557   2.655   4.479   3.565 -0.3908 -0.2940 -0.1000
   24MOL   C152 7558   2.450   4.523   3.661  0.6150 -0.4213 -0.5802
   24MOL   C153 7559   2.366   4.580   3.761  0.0088  0.0692  0.2994
   24MOL   C154 7560   2.301   4.865   3.878 -0.1046 -0.8728 -0.0302
   24MOL   H155 7561   2.404   4.781   4.037  1.5307 -1.8623 -0.6788
   24MOL   H156 7562   2.627   4.680   3.964 -0.2077  1.2750  0.0115
   24MOL   H157 7563   2.749   4.583   3.810 -0.0667  1.0836  0.4167
   24MOL   H158 7564   2.405   4.474   3.576  1.9306 -1.6076 -0.6214
   24MOL   H159 7565   2.261   4.594   3.743 -0.1096 -1.2620 -0.0572
   24MOL   H160 7566   2.390   4.902   3.827 -2.2928  1.2634 -2.4367
   24MOL   H161 7567   2.245   4.820   3.796 -0.2288  1.4539 -1.2685
   24MOL   C162 7568   2.223   4.980   3.948 -0.0851 -0.6628  0.3160
   24MOL   C163 7569   2.287   5.044   4.077 -0.2840 -0.8771  0.0619
   24MOL   C164 7570   2.203   5.080   4.186 -0.4467 -0.4529 -0.1717
   24MOL   C165 7571   2.262   5.135   4.299 -1.0049 -0.6365  0.5337
   24MOL   C166 7572   2.403   5.168   4.308  0.8336  0.3877  0.1622
   24MOL   F167 7573   2.450   5.243   4.410  0.4397  0.1371  0.4510
   24MOL   C168 7574   2.484   5.117   4.200 -0.2351  0.2906  0.0298
   24MOL   C169 7575   2.428   5.062   4.087 -0.5254 -0.2730  0.2465
   24MOL   C170 7576   2.198   5.100   3.852 -0.3779 -0.5496  0.5253
   24MOL   H171 7577   2.123   4.944   3.974 -0.2031 -2.9144 -2.8941
   24MOL   H172 7578   2.097   5.064   4.190 -0.4381 -0.1428  2.2988
   24MOL   H173 7579   2.193   5.158   4.379 -0.8798 -1.7870  0.9845
   24MOL   H174 7580   2.590   5.140   4.198  0.0279 -0.8258  0.8265
   24MOL   H175 7581   2.487   5.022   4.006 -0.0143 -0.1864  0.5767
   24MOL   H176 7582   2.165   5.193   3.897  1.1056 -0.7786  2.1132
   24MOL   H177 7583   2.292   5.129   3.804 -1.1013  0.4706 -0.3025
   24MOL   C178 7584   2.102   5.073   3.734  0.4758  0.0657  0.4035
   24MOL   C179 7585   1.959   5.041   3.780 -0.5513 -0.4853  0.2732
   24MOL   C180 7586   1.884   5.132   3.860  0.3143 -0.7172  0.2400
   24MOL   C181 7587   1.758   5.098   3.910  0.0092  0.8760  0.4093
   24MOL   C182 7588   1.703   4.973   3.876 -0.4893  0.3791 -0.1235
   24MOL   F183 7589   1.588   4.940   3.936  0.2951 -0.7506 -0.1603
   24MOL   C184 7590   1.771   4.885   3.797  0.3806 -0.9089  0.2577
   24MOL   C185 7591   1.895   4.922   3.741  0.0815 -0.2913 -0.2679
   24MOL   C186 7592   2.108   5.180   3.619  0.1690  0.1961 -0.5297
   24MOL   H187 7593   2.141   4.985   3.682  0.3858  0.1794  0.1489
   24MOL   H188 7594   1.916   5.234   3.869 -2.5176  0.4110 -1.8912
   24MOL   H189 7595   1.714   5.166   3.982  0.9416  0.8226  1.0346
   24MOL   H190 7596   1.730   4.789   3.769  0.5453 -1.6493  2.3899
   24MOL   H191 7597   1.951   4.863   3.670  3.0162  0.6019  1.1834
   24MOL   H192 7598   2.019   5.194   3.558  1.5974  0.9576 -2.5053
   24MOL   H193 7599   2.104   5.271   3.679 -0.8718 -0.2421  0.0747
   24MOL   C194 7600   2.233   5.185   3.534  0.3110 -0.5476 -0.0926
   24MOL   C195 7601   2.230   5.070   3.449  0.3043  0.4287 -0.2637
   24MOL   C196 7602   2.315   4.959   3.477  0.0758 -0.3383  0.0026
   24MOL   C197 7603   2.303   4.840   3.406 -0.2221 -0.0518  0.1444
   24MOL   C198 7604   2.209   4.826   3.298 -0.4670  0.6424  0.9224
   24MOL   F199 7605   2.189   4.710   3.235 -0.0424  0.0950  0.3331
   24MOL   C200 7606   2.127   4.937   3.275  0.3358  0.4613 -0.1491
   24MOL   C201 7607   2.136   5.055   3.349  0.4499 -0.3892  0.3408
   24MOL   C202 7608   2.271   5.315   3.457  0.2210  0.0546  0.4963
   24MOL   H203 7609   2.319   5.157   3.594  0.3476  1.9206  1.0700
   24MOL   H204 7610   2.389   4.963   3.556  0.6483  0.4664 -0.5625
   24MOL   H205 7611   2.365   4.759   3.441  2.2738  1.1756 -1.2982
   24MOL   H206 7612   2.051   4.924   3.200 -0.4441  0.0709  0.6915
   24MOL   H207 7613   2.055   5.125   3.338  1.0079  0.3745  0.9986
   24MOL   H208 7614   2.354   5.282   3.395 -0.7595 -0.3330 -0.6228
   24MOL   H209 7615   2.191   5.350   3.392 -0.7004  1.9164  2.5505
   24MOL   C210 7616   2.301   5.438   3.547  0.2056 -0.7698  0.4806
   24MOL   C211 7617   2.446   5.437   3.600 -0.7107  0.9349  1.1137
   24MOL   C212 7618   2.561   5.474   3.520  0.6931 -0.2453 -1.1735
   24MOL   C213 7619   2.688   5.472   3.585  0.3569  0.0558 -0.2992
   24MOL   C214 7620   2.709   5.434   3.716  0.0783 -0.2119 -0.1495
   24MOL   F215 7621   2.830   5.439   3.781  0.3886  0.4377 -0.2668
   24MOL   C216 7622   2.601   5.391   3.793 -0.6700 -0.8184 -0.5467
   24MOL   C217 7623   2.470   5.397   3.731 -0.3608  0.0492  0.0102
   24MOL   C218 7624   2.276   5.575   3.474 -0.7461  0.1399  0.1636
   24MOL   H219 7625   2.236   5.437   3.635  1.2036 -0.9198  1.2263
   24MOL   H220 7626   2.556   5.504   3.417  0.9102  0.5759 -0.9416
   24MOL   H221 7627   2.770   5.500   3.520 -0.3881  0.7659 -0.9371
   24MOL   H222 7628   2.615   5.348   3.891  0.9454  1.3813  0.2350
   24MOL   H223 7629   2.397   5.353   3.797 -0.9031  0.8022 -0.0727
   24MOL   H224 7630   2.309   5.663   3.530 -2.4839  1.7178 -1.2308
   24MOL   H225 7631   2.334   5.560   3.383  2.1651  0.8015  1.8532
   24MOL   C226 7632   2.135   5.615   3.432 -0.4592 -0.1158  0.1083
   24MOL   C227 7633   2.039   5.589   3.550  0.0297 -0.1253  0.3272
   24MOL   C228 7634   1.947   5.485   3.539  0.0874 -0.7761  0.0211
   24MOL   C229 7635   1.861   5.455   3.648  0.1824 -0.2968  0.5562
   24MOL   C230 7636   1.861   5.533   3.767 -0.3232  0.6860  0.3581
   24MOL   F231 7637   1.786   5.494   3.875  0.3387  0.3333 -0.4344
   24MOL   C232 7638   1.960   5.628   3.779 -0.2715 -0.4948 -0.2197
   24MOL   C233 7639   2.049   5.657   3.674  0.0253 -0.2048  0.9988
   24MOL   C234 7640   2.125   5.756   3.374 -0.1569  0.2422  0.1782
   24MOL   H235 7641   2.103   5.543   3.356 -1.5043 -0.5274  0.9202
   24MOL   H236 7642   1.944   5.416   3.456 -1.1141 -1.5765  0.7256
   24MOL   H237 7643   1.804   5.363   3.641 -0.2031  0.0506 -1.1536
   24MOL   H238 7644   1.956   5.681   3.873 -1.8905 -1.2833  0.1853
   24MOL   H239 7645   2.114   5.737   3.707  0.0453  0.3862 -0.4645
   24MOL   H240 7646   2.028   5.759   3.323 -1.3151  1.8838  2.4240
   24MOL   H241 7647   2.121   5.835   3.449 -0.6120  0.4264 -0.0380
   24MOL   C242 7648   2.243   5.798   3.282  0.7388  0.2599  0.4143
   24MOL   C243 7649   2.264   5.708   3.166  0.3589 -0.5102  0.4429
   24MOL   C244 7650   2.158   5.682   3.078 -0.5286 -0.1674  0.2703
   24MOL   C245 7651   2.180   5.597   2.964  1.0138 -0.5762  0.1268
   24MOL   C246 7652   2.310   5.544   2.943  0.5386 -0.3150  0.3338
   24MOL   F247 7653   2.338   5.446   2.855 -0.3730  0.1789 -0.1768
   24MOL   C248 7654   2.407   5.565   3.041 -0.2011 -1.2333  0.0553
   24MOL   C249 7655   2.391   5.646   3.152 -0.0132 -0.3707  0.1202
   24MOL   C250 7656   2.220   5.946   3.236 -0.1593  0.0349 -0.4010
   24MOL   H251 7657   2.332   5.802   3.345  0.6590 -1.5927  0.6714
   24MOL   H252 7658   2.060   5.722   3.098 -1.4099 -1.9539 -0.3204
   24MOL   H253 7659   2.101   5.581   2.892 -0.7433  2.4938  1.2715
   24MOL   H254 7660   2.496   5.504   3.029  0.9191  0.6312 -1.2833
   24MOL   H255 7661   2.475   5.663   3.218 -0.0102 -1.8269  0.4943
   24MOL   H256 7662   2.123   5.946   3.188 -0.3807  1.0529  0.0396
   24MOL   H257 7663   2.213   6.020   3.315  0.1951 -0.7344  0.3574
   24MOL   C258 7664   2.327   6.004   3.132 -0.7207 -0.3824  0.1279
   24MOL   C259 7665   2.276   6.135   3.062  0.6830 -0.7497  0.2886
   24MOL   C260 7666   2.270   6.141   2.920 -0.8806 -0.7311  0.0399
   24MOL   C261 7667   2.238   6.259   2.852  0.5634  0.2534 -0.0510
   24MOL   C262 7668   2.196   6.366   2.934 -0.6960 -0.9021  0.2448
   24MOL   F263 7669   2.165   6.481   2.877 -0.0419  0.0956  0.2460
   24MOL   C264 7670   2.191   6.360   3.073  0.0352  0.0070  0.1000
   24MOL   C265 7671   2.237   6.245   3.134  0.0984 -0.7642  0.2670
   24MOL   C266 7672   2.472   6.020   3.187 -0.1074 -0.2075  0.0705
   24MOL   H267 7673   2.321   5.929   3.053  1.1444 -2.3066  1.7294
   24MOL   H268 7674   2.298   6.058   2.857 -1.1724 -0.4206 -0.5031
   24MOL   H269 7675   2.219   6.256   2.745  0.9452  0.2108 -0.1160
   24MOL   H270 7676   2.165   6.451   3.124 -1.0365 -0.4393  0.3597
   24MOL   H271 7677   2.241   6.246   3.242 -1.3855  0.1589  0.3283
   24MOL   H272 7678   2.483   6.104   3.256  0.6558 -0.8398  0.7240
   24MOL   H273 7679   2.493   5.927   3.240 -0.4635 -0.2303  0.1707
   24MOL   C274 7680   2.575   6.044   3.073 -0.0842 -0.4676 -0.1098
   24MOL   C275 7681   2.717   6.056   3.135 -0.6419  0.0246 -0.0585
   24MOL   C276 7682   2.781   5.933   3.184  0.3371  0.0810 -0.2613
   24MOL   C277 7683   2.920   5.942   3.216  0.5111 -0.0102 -0.5913
   24MOL   C278 7684   2.984   6.063   3.209 -0.0543  1.0471 -0.4954
   24MOL   F279 7685   3.115   6.072   3.253 -0.0018 -0.2569  0.2584
   24MOL   C280 7686   2.914   6.177   3.176 -0.5097  0.3609 -0.0508
   24MOL   C281 7687   2.781   6.178   3.139  0.6299  0.4231 -0.0318
   24MOL   C282 7688   2.585   5.937   2.962  0.1321 -0.1441  0.2648
   24MOL   H283 7689   2.547   6.140   3.030 -1.4735 -1.3632 -1.2551
   24MOL   H284 7690   2.723   5.842   3.177  0.7878 -0.1447 -1.1135
   24MOL   H285 7691   2.964   5.846   3.239  2.7541  0.7354 -1.6634
   24MOL   H286 7692   2.977   6.265   3.177  1.0837 -0.7453 -1.7569
   24MOL   H287 7693   2.734   6.263   3.093  1.3827 -0.1018 -1.8564
   24MOL   H288 7694   2.615   5.841   3.004  0.0639 -0.0401  0.5563
   24MOL   H289 7695   2.485   5.919   2.924 -0.0930 -0.8083  1.1424
   24MOL   C290 7696   2.680   5.964   2.840 -0.2330 -0.1695  0.8801
   24MOL   C291 7697   2.710   5.834   2.770  0.1025  0.4078 -0.4565
   24MOL   C292 7698   2.841   5.813   2.718  0.7604 -0.0810  0.5862
   24MOL   C293 7699   2.880   5.692   2.661 -0.0106 -0.4401  0.3408
   24MOL   C294 7700   2.789   5.589   2.641 -1.0156  1.0606 -0.3025
   24MOL   F295 7701   2.836   5.489   2.561 -0.1900  0.5137  0.3301
   24MOL   C296 7702   2.663   5.608   2.685 -0.0694  0.5493  0.1561
   24MOL   C297 7703   2.620   5.725   2.750 -0.3781 -0.0460  0.1796
   24MOL   C298 7704   2.602   6.061   2.745  0.0822 -0.7433  0.3608
   24MOL   H299 7705   2.774   6.010   2.867 -0.2070  1.4784 -1.7878
   24MOL   H300 7706   2.924   5.881   2.728  1.4947 -0.6125 -1.7925
   24MOL   H301 7707   2.983   5.681   2.631  0.2887 -1.7581  1.7703
   24MOL   H302 7708   2.590   5.535   2.656 -0.8938  1.2028  0.5585
   24MOL   H303 7709   2.518   5.728   2.783  0.0482 -0.2726  1.5390
   24MOL   H304 7710   2.508   6.014   2.716 -0.5257  0.6773  0.0230
   24MOL   H305 7711   2.566   6.150   2.795 -0.2482 -0.3357 -0.5976
   24MOL   C306 7712   2.671   6.087   2.614 -0.6015  0.4618 -0.2792
   24MOL   C307 7713   2.578   6.146   2.507 -0.3580  0.5243  0.1823
   24MOL   C308 7714   2.491   6.253   2.532 -0.7971  0.9017 -0.1328
   24MOL   C309 7715   2.411   6.307   2.435 -0.1184 -0.0012  0.1821
   24MOL   C310 7716   2.408   6.248   2.304  0.2698 -0.0831 -0.3073
   24MOL   F311 7717   2.320   6.293   2.216 -0.2151  0.2191  0.5784
   24MOL   C312 7718   2.494   6.141   2.267  0.0062  0.2446  0.0225
   24MOL   C313 7719   2.575   6.093   2.377  0.4615  0.1214 -0.5387
   24MOL   C314 7720   2.796   6.180   2.631 -0.1370  0.1941  1.3079
   24MOL   H315 7721   2.703   5.993   2.570 -0.6553 -0.0014  0.6542
   24MOL   H316 7722   2.492   6.296   2.632 -1.4567 -0.0821  0.3066
   24MOL   H317 7723   2.347   6.390   2.459 -0.3254 -0.0485 -0.2037
   24MOL   H318 7724   2.493   6.103   2.166  1.4293 -0.2802  0.2009
   24MOL   H319 7725   2.652   6.018   2.360 -1.0780 -1.8351  0.8706
   24MOL   H320 7726   2.872   6.137   2.696  2.0490  2.3146  0.2303
   24MOL   H321 7727   2.839   6.189   2.532  1.0887  0.0842  1.8294
   24MOL   H322 7728   2.769   6.277   2.672 -1.6382  1.4044 -2.3411
   25MOL     C1 7729   7.765   2.636   3.156 -0.1913  0.0722 -0.0911
   25MOL     C2 7730   7.843   2.537   3.234 -0.2476 -0.0882  0.1270
   25MOL     C3 7731   7.872   2.411   3.187  0.3086 -0.2699 -0.2217
   25MOL     C4 7732   7.961   2.327   3.260  0.2233  0.1273 -0.6644
   25MOL     C5 7733   8.020   2.374   3.384  0.4194  0.3977 -0.3684
   25MOL     F6 7734   8.098   2.292   3.453 -0.3365  0.0658 -0.0247
   25MOL     C7 7735   7.994   2.502   3.425 -0.1627 -0.6311  0.6491
   25MOL     C8 7736   7.908   2.584   3.347 -0.1549  0.0784 -0.8894
   25MOL     C9 7737   7.618   2.609   3.140 -0.2330 -0.2863 -0.7075
   25MOL    H10 7738   7.806   2.635   3.055 -0.5678 -1.5700 -0.2319
   25MOL    H11 7739   7.838   2.379   3.090  0.4628 -0.6987 -0.1359
   25MOL    H12 7740   7.969   2.223   3.229  1.2389  0.4389 -1.4776
   25MOL    H13 7741   8.040   2.545   3.512 -0.1738 -0.1361  0.4144
   25MOL    H14 7742   7.893   2.681   3.392 -0.0112 -0.0164 -0.6364
   25MOL    H15 7743   7.567   2.692   3.091  1.9011  1.2572 -0.3757
   25MOL    H16 7744   7.621   2.534   3.061  2.4511  2.3560 -3.2049
   25MOL    H17 7745   7.773   2.735   3.201  0.7537 -1.2277  2.7232
   25MOL    C18 7746   7.525   2.557   3.263 -0.1524  0.5153  0.3375
   25MOL    C19 7747   7.521   2.675   3.360 -0.1542  0.2549  0.1840
   25MOL    C20 7748   7.535   2.656   3.498 -0.1347  0.4604  0.6931
   25MOL    C21 7749   7.534   2.765   3.589  0.1872 -0.5603  0.3616
   25MOL    C22 7750   7.513   2.894   3.538 -0.0864  0.0131  0.0507
   25MOL    F23 7751   7.544   3.004   3.614  0.1556  0.0651  0.0152
   25MOL    C24 7752   7.495   2.912   3.404 -0.4449 -0.2173  0.1272
   25MOL    C25 7753   7.489   2.806   3.313 -0.2561 -0.1639 -0.0927
   25MOL    C26 7754   7.379   2.503   3.224 -0.3613  0.5591 -0.2614
   25MOL    H27 7755   7.576   2.469   3.301 -1.0571  0.1298  0.6715
   25MOL    H28 7756   7.558   2.554   3.526 -0.0569 -0.2563 -1.8024
   25MOL    H29 7757   7.559   2.760   3.693  0.5932  1.3988  0.3882
   25MOL    H30 7758   7.492   3.016   3.374  0.7325 -0.9094 -2.5695
   25MOL    H31 7759   7.477   2.835   3.210  0.3219 -0.1669 -0.1654
   25MOL    H32 7760   7.322   2.584   3.179 -0.9758  0.2317 -0.0779
   25MOL    H33 7761   7.381   2.434   3.139 -0.8927 -0.2487  0.3721
   25MOL    C34 7762   7.303   2.444   3.346  0.2648 -0.2532  0.1152
   25MOL    C35 7763   7.150   2.448   3.316  0.4084 -0.2816 -0.6130
   25MOL    C36 7764   7.096   2.380   3.204  0.2564 -0.4825  0.0412
   25MOL    C37 7765   6.964   2.396   3.167  0.1129  0.1613 -0.2783
   25MOL    C38 7766   6.878   2.474   3.258  0.7537 -0.2677 -0.0858
   25MOL    F39 7767   6.746   2.476   3.231 -0.2095 -0.3882  0.2147
   25MOL    C40 7768   6.932   2.543   3.363 -0.3472  0.7493 -0.4380
   25MOL    C41 7769   7.063   2.528   3.396  0.1720 -1.2106 -0.4103
   25MOL    C42 7770   7.356   2.304   3.386 -0.3095 -0.4088 -0.1100
   25MOL    H43 7771   7.322   2.505   3.435  0.6085 -0.7395  0.3754
   25MOL    H44 7772   7.143   2.301   3.146  0.3117 -1.9107  1.9760
   25MOL    H45 7773   6.918   2.336   3.089  0.5271 -1.3946  0.6644
   25MOL    H46 7774   6.872   2.598   3.434  1.6054 -0.0736  1.9004
   25MOL    H47 7775   7.111   2.587   3.473 -2.2800  0.3954 -0.0295
   25MOL    H48 7776   7.316   2.220   3.330  1.8508  0.4564 -3.0348
   25MOL    H49 7777   7.463   2.295   3.367 -0.4029 -3.8912  0.5666
   25MOL    C50 7778   7.344   2.276   3.541  0.1721 -0.1641  0.2699
   25MOL    C51 7779   7.204   2.305   3.599 -0.2417  0.1880 -0.0136
   25MOL    C52 7780   7.088   2.232   3.564  0.1598  1.0061  0.5509
   25MOL    C53 7781   6.961   2.258   3.624  0.1872 -0.2086 -0.3406
   25MOL    C54 7782   6.948   2.364   3.718  0.0679 -0.1572 -0.5734
   25MOL    F55 7783   6.831   2.397   3.762  0.6524 -0.3167  0.1186
   25MOL    C56 7784   7.069   2.424   3.762 -0.0977 -0.2080  0.8398
   25MOL    C57 7785   7.192   2.395   3.707  0.3146 -0.0989 -0.0526
   25MOL    C58 7786   7.381   2.125   3.563 -0.7279 -0.0691 -0.0033
   25MOL    H59 7787   7.418   2.332   3.599  0.9249 -1.3107  0.4305
   25MOL    H60 7788   7.095   2.153   3.491  0.5450  1.1350  0.4492
   25MOL    H61 7789   6.867   2.214   3.593 -0.3879 -0.1048  1.1970
   25MOL    H62 7790   7.051   2.492   3.844  0.0285  0.2141  0.5156
   25MOL    H63 7791   7.282   2.447   3.739  0.8560 -0.4289 -1.0094
   25MOL    H64 7792   7.310   2.052   3.523  1.4704 -2.3624  0.1512
   25MOL    H65 7793   7.479   2.115   3.515 -0.6050 -1.2191  0.4738
   25MOL    C66 7794   7.406   2.085   3.712  0.0240  0.2125  0.3745
   25MOL    C67 7795   7.278   2.060   3.787  0.3227 -0.8568  0.4715
   25MOL    C68 7796   7.263   2.116   3.915  0.3475  0.4372  0.4080
   25MOL    C69 7797   7.149   2.095   3.994 -0.0717 -0.2110 -0.1139
   25MOL    C70 7798   7.051   2.012   3.947 -0.0517 -0.8987  0.4891
   25MOL    F71 7799   6.934   1.984   4.019 -0.1066 -0.3899 -0.0639
   25MOL    C72 7800   7.068   1.944   3.821  0.0927  0.1448 -0.9868
   25MOL    C73 7801   7.181   1.974   3.734 -0.0488  0.2910  0.0350
   25MOL    C74 7802   7.492   1.949   3.728  0.5265  0.6381 -0.0255
   25MOL    H75 7803   7.469   2.164   3.754 -0.9149  0.7536  0.7894
   25MOL    H76 7804   7.333   2.189   3.953  0.2613  0.9367 -0.3731
   25MOL    H77 7805   7.124   2.129   4.094  1.9798 -0.1226  0.3869
   25MOL    H78 7806   6.979   1.891   3.788 -0.3085  1.2856 -1.7826
   25MOL    H79 7807   7.191   1.925   3.638 -1.3730  0.7548 -0.3437
   25MOL    H80 7808   7.482   1.932   3.835 -0.7896  1.7095  0.0358
   25MOL    H81 7809   7.440   1.867   3.680 -1.5625  0.3664  2.5613
   25MOL    C82 7810   7.639   1.934   3.678 -0.6595  1.1103 -0.3213
   25MOL    C83 7811   7.722   2.057   3.726  0.3233  0.2715  0.4758
   25MOL    C84 7812   7.752   2.080   3.867  0.7971  0.1620  0.2420
   25MOL    C85 7813   7.832   2.189   3.898 -0.1894 -1.3128  0.2753
   25MOL    C86 7814   7.879   2.278   3.794  0.4355 -0.4625  0.0191
   25MOL    F87 7815   7.948   2.390   3.826  0.3720 -0.1514  0.4474
   25MOL    C88 7816   7.851   2.250   3.661  0.8194  0.7105 -0.3208
   25MOL    C89 7817   7.768   2.140   3.627  0.6369 -0.0730  0.0497
   25MOL    C90 7818   7.719   1.801   3.732 -0.8646 -0.5776  0.3255
   25MOL    H91 7819   7.645   1.923   3.569  1.8236  1.5158 -0.2450
   25MOL    H92 7820   7.720   2.012   3.944  1.6110  2.9867  3.2006
   25MOL    H93 7821   7.862   2.213   3.999 -3.9367  0.8388  0.9749
   25MOL    H94 7822   7.901   2.315   3.591  0.9832  0.1312 -0.7521
   25MOL    H95 7823   7.755   2.117   3.522  0.6690 -2.4074  0.5254
   25MOL    H96 7824   7.823   1.811   3.700 -0.9701 -2.3700 -0.5930
   25MOL    H97 7825   7.724   1.797   3.841  0.6522  0.3163  0.2984
   25MOL    C98 7826   7.665   1.668   3.688 -0.7217 -0.2198  0.5609
   25MOL    C99 7827   7.728   1.633   3.554 -0.4352 -0.0726  0.3991
   25MOL   C100 7828   7.856   1.583   3.536  0.3442 -0.1943  0.4265
   25MOL   C101 7829   7.904   1.550   3.409 -0.6961  0.0505 -0.0666
   25MOL   C102 7830   7.823   1.571   3.299 -0.1683  0.7138  0.1889
   25MOL   F103 7831   7.869   1.541   3.177  0.0386 -0.1929  0.5488
   25MOL   C104 7832   7.691   1.616   3.312 -0.3230  0.2982 -0.3319
   25MOL   C105 7833   7.640   1.644   3.440  0.0344 -0.5548  0.2818
   25MOL   C106 7834   7.677   1.551   3.791 -0.1050 -0.2039  0.4328
   25MOL   H107 7835   7.558   1.681   3.675 -0.6664  2.2178  2.2963
   25MOL   H108 7836   7.915   1.569   3.625 -0.5029  0.0684  1.0415
   25MOL   H109 7837   8.006   1.518   3.395 -0.6863  0.2174 -0.3984
   25MOL   H110 7838   7.630   1.625   3.223  0.2457  1.3375 -0.6341
   25MOL   H111 7839   7.539   1.682   3.437  0.0739 -0.4428  0.3638
   25MOL   H112 7840   7.772   1.497   3.786 -0.2926 -0.6409  1.5874
   25MOL   H113 7841   7.655   1.582   3.893 -1.8930  0.4760 -0.1539
   25MOL   C114 7842   7.558   1.444   3.765 -0.1200  0.1905  0.6750
   25MOL   C115 7843   7.579   1.299   3.807  0.4089  0.0742 -0.5890
   25MOL   C116 7844   7.533   1.195   3.723 -0.1137  0.5864  0.2683
   25MOL   C117 7845   7.541   1.062   3.763  0.3007 -0.0610  0.2116
   25MOL   C118 7846   7.598   1.032   3.894 -0.3258 -0.0137 -1.0520
   25MOL   F119 7847   7.605   0.903   3.941  0.5812 -0.1960  0.1510
   25MOL   C120 7848   7.642   1.136   3.978  0.1833  0.2824 -0.2488
   25MOL   C121 7849   7.636   1.266   3.934  0.5209  0.0694 -0.1646
   25MOL   C122 7850   7.425   1.503   3.813 -0.1576 -0.3725 -0.2563
   25MOL   H123 7851   7.551   1.440   3.656  2.6849 -1.5381  0.5080
   25MOL   H124 7852   7.507   1.215   3.620 -0.4344 -0.0657  0.2236
   25MOL   H125 7853   7.506   0.983   3.698 -3.0534  0.8969  0.7579
   25MOL   H126 7854   7.647   1.110   4.082  0.3862 -0.0499 -0.3394
   25MOL   H127 7855   7.665   1.348   3.997  2.8296  0.4382 -1.6462
   25MOL   H128 7856   7.414   1.495   3.921  0.3745  1.2689 -0.0689
   25MOL   H129 7857   7.425   1.611   3.800  1.7388 -0.0677  1.8695
   25MOL   C130 7858   7.303   1.440   3.750  0.1382 -0.3377 -0.4516
   25MOL   C131 7859   7.175   1.471   3.826 -0.6296 -0.1807 -0.9202
   25MOL   C132 7860   7.141   1.608   3.861 -0.3831  0.6634 -0.1008
   25MOL   C133 7861   7.036   1.632   3.953 -0.0800 -0.2590 -0.6562
   25MOL   C134 7862   6.949   1.529   3.998  0.7815  0.1321 -0.0170
   25MOL   F135 7863   6.853   1.552   4.086 -0.2908 -0.2245  0.1841
   25MOL   C136 7864   6.974   1.399   3.951 -0.4949  0.3902  0.3284
   25MOL   C137 7865   7.084   1.374   3.867 -0.1870 -0.0070  0.4076
   25MOL   C138 7866   7.300   1.446   3.594 -0.4115  0.1610  0.4823
   25MOL   H139 7867   7.314   1.332   3.756 -1.0604 -0.3787  1.2467
   25MOL   H140 7868   7.192   1.698   3.830  0.9461 -0.1282 -0.3001
   25MOL   H141 7869   7.013   1.730   3.991 -1.7342 -0.2907 -1.5486
   25MOL   H142 7870   6.918   1.312   3.982  0.9481 -0.2574  1.1637
   25MOL   H143 7871   7.109   1.272   3.841  1.5195  0.2051  1.1443
   25MOL   H144 7872   7.279   1.552   3.578  1.0547  0.5222  0.8299
   25MOL   H145 7873   7.395   1.419   3.547  0.2789  2.9347  0.1911
   25MOL   C146 7874   7.190   1.365   3.526  0.5502  0.2576  0.1906
   25MOL   C147 7875   7.174   1.405   3.378  0.3357 -0.0521  0.0428
   25MOL   C148 7876   7.288   1.401   3.295  0.9914  0.3684 -0.0379
   25MOL   C149 7877   7.279   1.439   3.158 -0.4919  0.1361 -0.3852
   25MOL   C150 7878   7.158   1.471   3.102 -0.5408 -0.9983 -0.2688
   25MOL   F151 7879   7.149   1.489   2.972  0.0596  0.0110  0.3688
   25MOL   C152 7880   7.042   1.481   3.191  0.3009  0.2991 -0.4577
   25MOL   C153 7881   7.050   1.447   3.325  0.0269 -0.3356  0.7067
   25MOL   C154 7882   7.206   1.214   3.549 -0.0623  0.6206 -0.1412
   25MOL   H155 7883   7.098   1.398   3.574 -0.1799 -1.8213  0.3008
   25MOL   H156 7884   7.383   1.372   3.336  1.2406  2.6811  1.1298
   25MOL   H157 7885   7.367   1.437   3.095  1.2326  0.1443  1.9678
   25MOL   H158 7886   6.945   1.481   3.143 -1.3221 -0.7550  2.7379
   25MOL   H159 7887   6.961   1.452   3.385 -1.0947  0.5019 -0.9803
   25MOL   H160 7888   7.309   1.185   3.526  0.3499  2.2805 -0.4630
   25MOL   H161 7889   7.192   1.191   3.655  0.4392  1.0871  0.0279
   25MOL   C162 7890   7.112   1.128   3.459  0.0001  0.5915 -0.4220
   25MOL   C163 7891   7.154   0.981   3.474 -0.3636 -0.9648  0.3369
   25MOL   C164 7892   7.209   0.912   3.360  0.5796  0.5564  0.2328
   25MOL   C165 7893   7.236   0.771   3.367  0.1529  0.2447 -0.3001
   25MOL   C166 7894   7.228   0.699   3.483 -0.1463 -0.0302  0.3695
   25MOL   F167 7895   7.260   0.568   3.484  0.3099  0.1305  0.2655
   25MOL   C168 7896   7.180   0.765   3.594  0.2876 -0.2986 -0.6008
   25MOL   C169 7897   7.143   0.901   3.589 -0.4569 -0.1628 -0.3212
   25MOL   C170 7898   6.965   1.137   3.497  0.1858 -0.4267  0.1789
   25MOL   H171 7899   7.124   1.153   3.354  0.2104  0.9509 -0.3123
   25MOL   H172 7900   7.220   0.955   3.262 -2.7780  0.2655 -0.3070
   25MOL   H173 7901   7.272   0.729   3.275 -1.9661  0.9197 -1.4573
   25MOL   H174 7902   7.164   0.714   3.687 -0.2934  2.1404  0.6821
   25MOL   H175 7903   7.101   0.950   3.676 -1.5877  0.5174 -1.2372
   25MOL   H176 7904   6.962   1.107   3.601  1.5321 -0.3831  0.2391
   25MOL   H177 7905   6.935   1.242   3.498  1.2558 -0.1093 -0.2488
   25MOL   C178 7906   6.871   1.063   3.395 -0.0895  0.0874 -0.1573
   25MOL   C179 7907   6.840   0.913   3.430  0.7693 -0.6877 -0.3016
   25MOL   C180 7908   6.876   0.816   3.340  0.6313  0.1282 -0.3939
   25MOL   C181 7909   6.865   0.684   3.380  0.4667 -0.0438  0.1497
   25MOL   C182 7910   6.811   0.646   3.506 -0.2650  0.3445 -0.3142
   25MOL   F183 7911   6.796   0.518   3.549 -0.2043  0.3901  0.2847
   25MOL   C184 7912   6.766   0.749   3.591  1.8941  0.5847  0.0373
   25MOL   C185 7913   6.781   0.880   3.556  0.1813  0.1611  0.4930
   25MOL   C186 7914   6.734   1.141   3.386  0.6586  0.3459  0.2856
   25MOL   H187 7915   6.926   1.062   3.301  0.7728  0.6229  0.3293
   25MOL   H188 7916   6.906   0.838   3.238 -1.2603 -0.2219 -1.0476
   25MOL   H189 7917   6.881   0.608   3.305 -0.4336 -1.1505  1.0618
   25MOL   H190 7918   6.732   0.730   3.692  1.1601  0.8978 -0.1487
   25MOL   H191 7919   6.762   0.956   3.631  2.0140  0.4733  0.6621
   25MOL   H192 7920   6.690   1.150   3.486  1.3219 -0.2037  0.6275
   25MOL   H193 7921   6.747   1.243   3.352  1.5633 -0.5690 -2.2172
   25MOL   C194 7922   6.627   1.075   3.294 -0.2200 -0.1951 -0.0285
   25MOL   C195 7923   6.488   1.141   3.306  0.5692  0.6584  0.2828
   25MOL   C196 7924   6.415   1.137   3.428  0.6280 -0.5154  0.3878
   25MOL   C197 7925   6.288   1.201   3.446 -0.1127  0.5507 -0.1955
   25MOL   C198 7926   6.229   1.263   3.333 -0.3116  0.3484 -0.3931
   25MOL   F199 7927   6.104   1.324   3.345 -0.0194 -0.1015 -0.1273
   25MOL   C200 7928   6.303   1.270   3.210 -0.0796  0.2024  0.6291
   25MOL   C201 7929   6.435   1.224   3.205 -0.0941  0.3246  0.8899
   25MOL   C202 7930   6.681   1.050   3.151 -0.0755  0.5408  0.3857
   25MOL   H203 7931   6.603   0.979   3.340  0.2835  0.1923  1.0375
   25MOL   H204 7932   6.466   1.089   3.509  0.6529 -0.7298  0.2455
   25MOL   H205 7933   6.232   1.187   3.538 -0.0169 -0.5809 -0.3105
   25MOL   H206 7934   6.261   1.330   3.131 -1.5084  0.7555  1.7818
   25MOL   H207 7935   6.490   1.255   3.118 -1.4662  0.8289  0.1885
   25MOL   H208 7936   6.711   1.149   3.118  0.3991 -0.1889 -1.4187
   25MOL   H209 7937   6.774   0.993   3.157 -2.5968 -3.8706 -0.6748
   25MOL   C210 7938   6.599   0.978   3.039  0.2201  0.2809  0.5565
   25MOL   C211 7939   6.683   0.984   2.907  0.5152  0.5996 -0.6242
   25MOL   C212 7940   6.779   0.885   2.870 -0.4457 -0.4589 -0.5706
   25MOL   C213 7941   6.862   0.906   2.764 -0.4427  0.8011 -0.2920
   25MOL   C214 7942   6.858   1.021   2.683 -0.4181 -0.1098 -0.3075
   25MOL   F215 7943   6.949   1.036   2.583  0.1556  0.5011  0.0925
   25MOL   C216 7944   6.752   1.117   2.707  0.4659  0.1053 -0.0661
   25MOL   C217 7945   6.668   1.098   2.817 -0.4754 -0.3792 -0.4191
   25MOL   C218 7946   6.545   0.840   3.078 -0.1401 -0.7208 -0.3115
   25MOL   H219 7947   6.517   1.049   3.024  0.5790  0.4745 -0.5157
   25MOL   H220 7948   6.795   0.799   2.933  0.5008  0.2423  0.1706
   25MOL   H221 7949   6.941   0.837   2.740 -1.1522 -0.0707 -0.1545
   25MOL   H222 7950   6.733   1.202   2.643  1.7451 -0.4558 -1.2035
   25MOL   H223 7951   6.599   1.175   2.848  0.4491  1.0640 -1.8697
   25MOL   H224 7952   6.598   0.758   3.029 -0.1148 -0.6021 -0.4837
   25MOL   H225 7953   6.571   0.814   3.181  3.1632 -1.0351 -1.1667
   25MOL   C226 7954   6.394   0.823   3.064  0.4957  0.2013  0.2676
   25MOL   C227 7955   6.341   0.878   2.929  0.3217 -0.1456  0.1898
   25MOL   C228 7956   6.253   0.993   2.928 -0.4954  0.1040  0.2199
   25MOL   C229 7957   6.197   1.039   2.807  0.4452  0.4915  0.1896
   25MOL   C230 7958   6.227   0.977   2.685  0.6980 -0.6855  0.0706
   25MOL   F231 7959   6.157   1.013   2.571  0.1154 -0.0477 -0.2905
   25MOL   C232 7960   6.331   0.883   2.681 -0.8587 -1.4750 -0.0461
   25MOL   C233 7961   6.385   0.827   2.805  0.6962 -0.2776 -0.9700
   25MOL   C234 7962   6.349   0.676   3.089  0.1719  0.2676 -0.4686
   25MOL   H235 7963   6.342   0.880   3.141  2.7698 -0.1233  2.0842
   25MOL   H236 7964   6.230   1.039   3.023  1.4747  2.9730 -0.6279
   25MOL   H237 7965   6.130   1.123   2.813  0.6380  1.0201 -3.7422
   25MOL   H238 7966   6.338   0.836   2.584 -0.6228  0.6478 -1.0710
   25MOL   H239 7967   6.450   0.740   2.803 -0.5579 -1.2103 -1.6525
   25MOL   H240 7968   6.240   0.676   3.086  0.1716  0.0156 -0.6000
   25MOL   H241 7969   6.389   0.616   3.006 -0.3855  0.0409 -0.5729
   25MOL   C242 7970   6.391   0.597   3.209 -0.3652 -0.2749  0.0126
   25MOL   C243 7971   6.353   0.670   3.337  0.7594 -0.2156 -0.1606
   25MOL   C244 7972   6.217   0.701   3.365 -0.4949 -0.2401 -0.4357
   25MOL   C245 7973   6.178   0.787   3.471 -0.4039  0.1511 -0.5491
   25MOL   C246 7974   6.278   0.845   3.545  0.8275  0.1506 -0.1960
   25MOL   F247 7975   6.257   0.944   3.636 -0.4235 -0.4542 -0.3971
   25MOL   C248 7976   6.408   0.809   3.531  1.1626 -0.0540 -0.4415
   25MOL   C249 7977   6.449   0.714   3.430  0.1253 -0.3424  0.3402
   25MOL   C250 7978   6.334   0.449   3.216 -0.0041 -0.0514 -0.2482
   25MOL   H251 7979   6.499   0.597   3.224 -0.3913 -0.5668  0.2171
   25MOL   H252 7980   6.137   0.659   3.304  0.2850 -0.3257 -1.4110
   25MOL   H253 7981   6.071   0.797   3.482 -0.2489 -1.1106  2.3937
   25MOL   H254 7982   6.477   0.850   3.603  1.3154  0.9575 -1.1519
   25MOL   H255 7983   6.553   0.687   3.415  0.4719  0.2692  1.5194
   25MOL   H256 7984   6.328   0.407   3.317 -0.6281  1.0494  0.1779
   25MOL   H257 7985   6.230   0.454   3.183  0.4918 -0.2351 -1.8852
   25MOL   C258 7986   6.403   0.354   3.118  0.2633 -0.6633  0.1174
   25MOL   C259 7987   6.556   0.371   3.129  0.2884 -0.3387 -0.4686
   25MOL   C260 7988   6.617   0.314   3.237 -0.0331  0.0247 -0.2700
   25MOL   C261 7989   6.759   0.316   3.250  0.3040 -0.9006  0.2531
   25MOL   C262 7990   6.829   0.401   3.160 -0.3394  0.2275 -0.1742
   25MOL   F263 7991   6.962   0.427   3.175  0.2835  0.1577 -0.0356
   25MOL   C264 7992   6.767   0.460   3.045 -0.2878  0.3197 -0.1362
   25MOL   C265 7993   6.632   0.446   3.033  0.6065  0.0777 -0.1978
   25MOL   C266 7994   6.352   0.208   3.140  0.7929  0.1956 -0.3811
   25MOL   H267 7995   6.374   0.385   3.017  1.4220 -3.2922 -1.0906
   25MOL   H268 7996   6.555   0.262   3.309 -0.6325  2.2965  0.9095
   25MOL   H269 7997   6.811   0.278   3.337  1.8433  0.3052 -0.1140
   25MOL   H270 7998   6.826   0.519   2.977 -0.2525  1.5040  0.9173
   25MOL   H271 7999   6.582   0.496   2.952  0.1859 -1.8837 -1.1643
   25MOL   H272 8000   6.403   0.149   3.217  1.9215  0.6417 -0.7801
   25MOL   H273 8001   6.249   0.227   3.170  0.8266  2.1455 -1.4161
   25MOL   C274 8002   6.350   0.120   3.011  0.8418  0.8488  0.1125
   25MOL   C275 8003   6.492   0.100   2.959 -0.2918 -0.0880 -0.2558
   25MOL   C276 8004   6.536   0.139   2.828  0.4794 -0.2387  0.4602
   25MOL   C277 8005   6.661   0.100   2.777 -0.7383  0.1072 -0.1858
   25MOL   C278 8006   6.751   0.032   2.865  0.0155  0.1227 -0.0321
   25MOL   F279 8007   6.877   0.002   2.812 -0.4037 -0.7229 -0.0131
   25MOL   C280 8008   6.715   8.233   2.995  0.3450  0.3501 -0.0254
   25MOL   C281 8009   6.584   0.025   3.038  0.5570 -0.5841 -0.2540
   25MOL   C282 8010   6.284   8.216   3.041 -0.9990  0.2286  0.0571
   25MOL   H283 8011   6.286   0.163   2.934  1.1531  0.8152 -0.1679
   25MOL   H284 8012   6.483   0.188   2.748  1.8633 -1.7672 -1.4185
   25MOL   H285 8013   6.697   0.122   2.678  1.6968 -1.7138  0.2337
   25MOL   H286 8014   6.790   8.179   3.052 -0.0891 -1.1834 -0.8648
   25MOL   H287 8015   6.566   8.211   3.133  1.2802 -0.4162 -0.0311
   25MOL   H288 8016   6.338   8.167   3.122  0.5931  1.9683  0.0866
   25MOL   H289 8017   6.178   8.230   3.063 -1.5969 -3.7619  0.0334
   25MOL   C290 8018   6.285   8.120   2.919 -0.4118  0.3202  0.3374
   25MOL   C291 8019   6.224   7.993   2.969 -0.5416  0.1644  0.5974
   25MOL   C292 8020   6.085   7.958   2.952 -0.0101  0.6324  0.0044
   25MOL   C293 8021   6.033   7.844   3.020  0.1128 -0.5527 -0.2388
   25MOL   C294 8022   6.112   7.766   3.099 -0.4736  0.3182  0.9189
   25MOL   F295 8023   6.064   7.654   3.155 -0.0248 -0.2680 -0.3220
   25MOL   C296 8024   6.248   7.792   3.111 -0.4489 -0.4126  0.1625
   25MOL   C297 8025   6.301   7.902   3.041  0.8425 -0.3372 -0.2501
   25MOL   C298 8026   6.223   8.170   2.788  0.0385  0.4052 -0.5294
   25MOL   H299 8027   6.392   8.103   2.905  0.0131  2.1431  1.1757
   25MOL   H300 8028   6.020   8.006   2.881  0.4860  0.8573 -0.3012
   25MOL   H301 8029   5.930   7.814   3.003 -0.2631  0.4315  0.2587
   25MOL   H302 8030   6.312   7.731   3.174  1.8800 -0.2630 -1.9406
   25MOL   H303 8031   6.401   7.932   3.068 -0.2196  2.5347  0.7326
   25MOL   H304 8032   6.116   8.185   2.785  0.1229  0.8761 -1.1337
   25MOL   H305 8033   6.271   0.030   2.764  0.1232  0.9803  1.7403
   25MOL   C306 8034   6.261   8.072   2.671  0.0327  0.5274 -0.3257
   25MOL   C307 8035   6.178   8.107   2.547 -0.1987 -0.8768  0.4503
   25MOL   C308 8036   6.105   8.002   2.483  0.2483 -0.0085 -0.3729
   25MOL   C309 8037   6.020   8.027   2.373  0.3716  0.1329 -0.0500
   25MOL   C310 8038   6.008   8.153   2.316 -1.1526 -0.4229 -0.1031
   25MOL   F311 8039   5.936   8.180   2.209 -0.0959  0.2525  0.5840
   25MOL   C312 8040   6.075   0.027   2.383 -0.0291  0.2353 -0.1803
   25MOL   C313 8041   6.152   0.002   2.497  0.4729 -0.3151  0.3814
   25MOL   C314 8042   6.405   8.069   2.642  0.1388 -0.1115  0.1621
   25MOL   H315 8043   6.231   7.972   2.702  1.1009  0.4369  0.4463
   25MOL   H316 8044   6.093   7.900   2.515 -0.1440  0.0106 -0.4491
   25MOL   H317 8045   5.959   7.948   2.332  2.2908 -1.1108 -0.5574
   25MOL   H318 8046   6.052   0.129   2.356 -0.7295 -0.0063 -0.5261
   25MOL   H319 8047   6.184   0.076   2.569  0.5661  0.3235 -0.3164
   25MOL   H320 8048   6.433   8.175   2.637 -2.1749  0.4397 -2.3174
   25MOL   H321 8049   6.453   8.005   2.716  0.3140  1.6047  1.5851
   25MOL   H322 8050   6.418   8.013   2.550 -0.1587  1.9271 -1.1461
   26MOL     C1 8051   6.544   8.086   7.249  0.1064 -0.8033  0.1404
   26MOL     C2 8052   6.673   8.155   7.305  0.1358 -0.4550  0.2454
   26MOL     C3 8053   6.752   0.000   7.226 -0.1069  0.1805  0.0741
   26MOL     C4 8054   6.855   0.073   7.283 -0.4835  0.4506 -0.0793
   26MOL     C5 8055   6.883   0.065   7.420  0.1391  0.5718  0.3486
   26MOL     F6 8056   6.987   0.129   7.469  0.4431 -0.1714  0.5312
   26MOL     C7 8057   6.800   8.219   7.502  0.3309  0.2781 -0.0820
   26MOL     C8 8058   6.695   8.144   7.442  0.2243 -0.0102 -0.4961
   26MOL     C9 8059   6.412   8.167   7.267 -0.6840 -0.2219 -0.7127
   26MOL    H10 8060   6.556   7.985   7.290  1.9182 -0.1254  1.3390
   26MOL    H11 8061   6.731   0.006   7.120 -0.2932  0.6167  0.1339
   26MOL    H12 8062   6.916   0.131   7.215 -3.2044 -0.7445 -3.6985
   26MOL    H13 8063   6.825   8.209   7.607  0.9561 -0.9515 -0.3334
   26MOL    H14 8064   6.646   8.070   7.503  0.7301  2.6393  3.3388
   26MOL    H15 8065   6.415   8.221   7.362 -0.1119  0.4927 -1.1330
   26MOL    H16 8066   6.403   0.024   7.209 -1.0240 -0.3533 -0.8690
   26MOL    H17 8067   6.568   8.073   7.143 -0.4760 -1.7189  0.1120
   26MOL    C18 8068   6.280   8.087   7.269 -0.2331  0.1544  0.6629
   26MOL    C19 8069   6.291   7.970   7.367 -0.0624  0.0471  1.1974
   26MOL    C20 8070   6.275   7.837   7.323  0.2403 -0.7527  0.3373
   26MOL    C21 8071   6.285   7.728   7.410  0.2711  0.0098  0.6909
   26MOL    C22 8072   6.314   7.754   7.543  0.3523  0.1778 -0.3669
   26MOL    F23 8073   6.333   7.651   7.628  0.4348 -0.4864 -0.0510
   26MOL    C24 8074   6.344   7.884   7.591 -0.0736 -0.0450 -0.5493
   26MOL    C25 8075   6.328   7.988   7.500 -0.2524 -0.6034  0.1197
   26MOL    C26 8076   6.153   8.179   7.299  0.2806  0.0772 -0.2185
   26MOL    H27 8077   6.277   8.032   7.174 -0.3311 -0.0229  0.7684
   26MOL    H28 8078   6.247   7.806   7.223  2.2375  0.3848 -0.6026
   26MOL    H29 8079   6.271   7.632   7.364  1.0828  1.1832 -2.1253
   26MOL    H30 8080   6.375   7.900   7.693  1.4158  1.6701 -1.2530
   26MOL    H31 8081   6.365   8.087   7.522 -2.1245  0.0648  0.2913
   26MOL    H32 8082   6.081   8.108   7.339  0.6196 -0.1454 -0.0001
   26MOL    H33 8083   6.185   0.004   7.385 -2.6700 -0.0817  1.0422
   26MOL    C34 8084   6.093   0.045   7.188  0.6610  0.2722  0.1566
   26MOL    C35 8085   6.090   8.206   7.053  0.3535  1.1982  0.4051
   26MOL    C36 8086   6.187   0.001   6.957 -1.1925  0.0410  0.1814
   26MOL    C37 8087   6.203   8.162   6.834  0.0371  0.2437  0.6383
   26MOL    C38 8088   6.111   8.062   6.808 -0.2423 -0.3993  0.5595
   26MOL    F39 8089   6.119   7.987   6.697  0.0361  0.2392  0.3412
   26MOL    C40 8090   6.007   8.033   6.899 -0.4594  0.1676 -0.3365
   26MOL    C41 8091   5.994   8.102   7.023 -0.3592 -0.9211  0.2010
   26MOL    C42 8092   5.954   0.091   7.230 -0.2427  0.6366 -0.1195
   26MOL    H43 8093   6.161   0.130   7.190  1.4196 -0.3058 -0.6569
   26MOL    H44 8094   6.261   0.076   6.980  0.6790 -1.7969  0.2521
   26MOL    H45 8095   6.282   8.187   6.766 -0.5035  1.3711  0.4022
   26MOL    H46 8096   5.937   7.953   6.879 -0.6703  0.1852  0.3425
   26MOL    H47 8097   5.918   8.070   7.092 -1.2310 -0.2779 -0.4387
   26MOL    H48 8098   5.890   0.004   7.248  1.4234 -0.3717  1.0753
   26MOL    H49 8099   5.977   0.145   7.321  2.0200 -0.7895  0.1931
   26MOL    C50 8100   5.872   0.171   7.131  0.1868  0.4607  0.5490
   26MOL    C51 8101   5.757   0.234   7.213  0.0007 -0.4416 -0.3040
   26MOL    C52 8102   5.631   0.173   7.219  0.0642  0.3119 -0.1910
   26MOL    C53 8103   5.524   0.231   7.295  0.4814 -0.0145 -0.4146
   26MOL    C54 8104   5.538   0.339   7.384 -0.1827  0.3778 -0.1286
   26MOL    F55 8105   5.435   0.384   7.463 -0.0701  0.0765 -0.9162
   26MOL    C56 8106   5.665   0.401   7.384 -0.3946  0.1801 -0.3399
   26MOL    C57 8107   5.767   0.352   7.295 -0.7141 -0.1472 -0.2453
   26MOL    C58 8108   5.959   0.274   7.044  0.8027 -0.0469  0.1424
   26MOL    H59 8109   5.819   0.096   7.072 -0.5411  0.0368  1.7197
   26MOL    H60 8110   5.598   0.080   7.176 -0.2290  1.6028 -2.8873
   26MOL    H61 8111   5.432   0.175   7.301  2.2915 -2.9570  1.1467
   26MOL    H62 8112   5.684   0.498   7.429 -0.6541 -0.5289  1.3495
   26MOL    H63 8113   5.861   0.405   7.301 -1.6060  1.4619  0.1137
   26MOL    H64 8114   6.012   0.339   7.115  2.8138 -1.1445 -0.3185
   26MOL    H65 8115   6.035   0.232   6.979  0.9936  2.0924 -1.0799
   26MOL    C66 8116   5.864   0.369   6.965  0.9633 -0.5746 -0.5246
   26MOL    C67 8117   5.948   0.493   6.911  0.6013  0.0089 -0.1938
   26MOL    C68 8118   5.981   0.597   7.005  0.0137 -0.3428 -0.0646
   26MOL    C69 8119   6.044   0.714   6.963  0.0144 -0.0392 -0.2043
   26MOL    C70 8120   6.072   0.740   6.833 -0.1942 -0.4170 -0.5526
   26MOL    F71 8121   6.132   0.854   6.802  0.3513  0.2038  0.0263
   26MOL    C72 8122   6.041   0.638   6.741  0.1603  0.1812 -0.2609
   26MOL    C73 8123   5.985   0.511   6.773  0.4090 -0.4411 -0.4236
   26MOL    C74 8124   5.787   0.301   6.852  0.0448  0.0633  0.4902
   26MOL    H75 8125   5.784   0.403   7.032  1.3729 -0.3763 -0.1303
   26MOL    H76 8126   5.968   0.578   7.111 -1.7645 -1.3000 -0.4351
   26MOL    H77 8127   6.059   0.790   7.038 -0.6924 -1.2231  1.1615
   26MOL    H78 8128   6.060   0.665   6.638  1.2589 -1.7207 -0.5821
   26MOL    H79 8129   5.959   0.442   6.694 -1.5988 -0.8649  0.5699
   26MOL    H80 8130   5.856   0.285   6.769 -1.1899  0.6328 -0.6584
   26MOL    H81 8131   5.740   0.203   6.867  0.1023  0.1211  1.0380
   26MOL    C82 8132   5.680   0.402   6.792  0.0567  0.3069 -0.2052
   26MOL    C83 8133   5.640   0.367   6.649  0.0931 -0.1527  0.0284
   26MOL    C84 8134   5.589   0.241   6.612 -0.5906 -0.0750 -0.5854
   26MOL    C85 8135   5.576   0.207   6.472  0.4145  0.1464  0.0111
   26MOL    C86 8136   5.596   0.305   6.373  1.0034 -0.1611  0.1325
   26MOL    F87 8137   5.571   0.275   6.244 -0.3911  0.0194  0.1157
   26MOL    C88 8138   5.629   0.434   6.416  0.2989  0.2676 -0.2899
   26MOL    C89 8139   5.648   0.468   6.550  1.0332  0.4254  0.1772
   26MOL    C90 8140   5.559   0.411   6.888 -0.4430  0.3318 -0.3691
   26MOL    H91 8141   5.710   0.506   6.783 -1.7904  0.6964 -2.4104
   26MOL    H92 8142   5.575   0.165   6.686 -1.4162 -0.5917 -1.2687
   26MOL    H93 8143   5.555   0.105   6.445  0.6518  0.3727 -1.0309
   26MOL    H94 8144   5.635   0.515   6.345  0.0701  0.5391 -0.0006
   26MOL    H95 8145   5.690   0.564   6.577  3.8966 -1.5700  3.2508
   26MOL    H96 8146   5.519   0.310   6.898 -1.6577  0.5745 -2.4796
   26MOL    H97 8147   5.583   0.445   6.989 -1.6171 -2.5228  0.9274
   26MOL    C98 8148   5.441   0.504   6.851  0.8157 -0.1173  0.2396
   26MOL    C99 8149   5.318   0.469   6.933  0.4596  0.0929  0.2229
   26MOL   C100 8150   5.323   0.486   7.075 -0.0479 -0.3277 -0.1289
   26MOL   C101 8151   5.207   0.473   7.149 -0.3479 -1.0735 -0.5596
   26MOL   C102 8152   5.079   0.447   7.088 -0.3223  0.1699 -0.2648
   26MOL   F103 8153   4.976   0.434   7.168  0.0586  0.1388  0.4761
   26MOL   C104 8154   5.078   0.422   6.954 -0.8790  0.0506  0.4436
   26MOL   C105 8155   5.194   0.437   6.876  0.1380 -0.0594 -0.3542
   26MOL   C106 8156   5.480   0.659   6.844 -0.2714 -0.3999  0.1209
   26MOL   H107 8157   5.418   0.476   6.749  2.0104  0.3247 -0.1592
   26MOL   H108 8158   5.403   0.529   7.134 -1.2361  0.7334  0.7721
   26MOL   H109 8159   5.205   0.501   7.253  0.5292  0.4257 -0.9252
   26MOL   H110 8160   4.982   0.394   6.913 -1.1743 -1.3476  2.0151
   26MOL   H111 8161   5.183   0.427   6.769 -2.3126 -1.6267  0.0115
   26MOL   H112 8162   5.519   0.682   6.943 -0.8241  0.8955  0.0513
   26MOL   H113 8163   5.553   0.680   6.766  2.4797 -1.3275  2.3638
   26MOL   C114 8164   5.360   0.746   6.808  0.1797 -0.3880  0.3168
   26MOL   C115 8165   5.379   0.887   6.877  0.0209  0.1796 -0.1819
   26MOL   C116 8166   5.322   0.899   7.007  0.8381 -0.2754  0.1990
   26MOL   C117 8167   5.326   1.021   7.068 -0.0627 -0.4352  0.1388
   26MOL   C118 8168   5.400   1.129   7.013 -0.0816  0.2730  1.0889
   26MOL   F119 8169   5.409   1.251   7.072 -0.3706 -0.0507 -0.1388
   26MOL   C120 8170   5.465   1.107   6.886  0.0439 -0.1586 -0.3350
   26MOL   C121 8171   5.459   0.987   6.819  0.1837  0.5257  0.4976
   26MOL   C122 8172   5.324   0.742   6.664  0.2431  1.2000 -0.4478
   26MOL   H123 8173   5.271   0.697   6.848  0.1468 -0.1334  0.5590
   26MOL   H124 8174   5.259   0.817   7.039 -0.4646 -0.2715 -2.1765
   26MOL   H125 8175   5.278   1.030   7.164  1.5584 -0.4740  0.9675
   26MOL   H126 8176   5.523   1.186   6.841  0.7144 -0.8858 -0.7493
   26MOL   H127 8177   5.501   0.965   6.722 -2.1466  0.8874 -0.6208
   26MOL   H128 8178   5.418   0.761   6.610  1.3027 -0.1345  0.9037
   26MOL   H129 8179   5.283   0.647   6.630  0.5188  0.8333  0.2225
   26MOL   C130 8180   5.214   0.843   6.621  0.6488  0.9902  0.3563
   26MOL   C131 8181   5.224   0.870   6.469 -0.3050 -0.0769  0.7843
   26MOL   C132 8182   5.184   0.995   6.419  0.4066  0.4060  0.0911
   26MOL   C133 8183   5.170   1.025   6.282  0.8707  0.0136 -0.6767
   26MOL   C134 8184   5.207   0.924   6.194  0.2008  0.3235  0.0427
   26MOL   F135 8185   5.194   0.951   6.063 -0.0219  0.5368 -0.2872
   26MOL   C136 8186   5.246   0.799   6.237  0.3508 -0.3961  0.4978
   26MOL   C137 8187   5.260   0.774   6.373  0.2143 -0.2376 -0.1566
   26MOL   C138 8188   5.073   0.799   6.663 -0.0197 -0.5380 -0.1927
   26MOL   H139 8189   5.233   0.942   6.662 -0.0669  0.8164  1.1421
   26MOL   H140 8190   5.142   1.069   6.485 -0.1705 -1.2435  1.6306
   26MOL   H141 8191   5.133   1.119   6.243  0.1104 -0.0416 -0.0875
   26MOL   H142 8192   5.263   0.722   6.164 -1.4915 -0.2634 -0.0972
   26MOL   H143 8193   5.292   0.675   6.401 -0.1780  0.6846  3.8818
   26MOL   H144 8194   5.000   0.807   6.582  0.2460 -0.9045 -0.4661
   26MOL   H145 8195   5.070   0.694   6.689 -0.4938 -0.2422  1.0014
   26MOL   C146 8196   5.013   0.886   6.780 -0.7889 -0.0558  0.4107
   26MOL   C147 8197   4.974   1.023   6.726 -0.2255 -0.9389  0.1441
   26MOL   C148 8198   4.850   1.036   6.662  0.4009 -0.7089  0.9084
   26MOL   C149 8199   4.796   1.161   6.638 -0.3703 -0.4104  0.2305
   26MOL   C150 8200   4.876   1.274   6.660 -0.8105 -0.1418 -0.6333
   26MOL   F151 8201   4.833   1.400   6.632 -0.1488  0.3380  0.4328
   26MOL   C152 8202   5.014   1.264   6.710  0.4445 -0.0459  0.9714
   26MOL   C153 8203   5.060   1.132   6.746  0.1055  0.1220  0.2704
   26MOL   C154 8204   4.907   0.808   6.852 -0.8053 -0.6283 -0.1848
   26MOL   H155 8205   5.096   0.908   6.847  0.8359  0.3657 -1.6880
   26MOL   H156 8206   4.784   0.952   6.644  0.6501 -1.0339  1.4972
   26MOL   H157 8207   4.700   1.164   6.589 -0.1386  3.9171 -0.1738
   26MOL   H158 8208   5.070   1.356   6.707 -0.9658  0.7869 -1.8548
   26MOL   H159 8209   5.162   1.121   6.782  0.4067 -1.3211 -1.0118
   26MOL   H160 8210   4.844   0.756   6.779  0.4965  1.0564 -2.5875
   26MOL   H161 8211   4.952   0.721   6.899  1.0504 -0.6880 -1.9881
   26MOL   C162 8212   4.824   0.883   6.963 -0.7015 -0.1377 -0.1062
   26MOL   C163 8213   4.694   0.814   6.991 -0.1066  0.2102  0.5068
   26MOL   C164 8214   4.683   0.716   7.092 -0.2785  0.1577  0.6011
   26MOL   C165 8215   4.555   0.658   7.115  0.0238 -0.4288 -0.1554
   26MOL   C166 8216   4.439   0.697   7.048 -1.0588 -0.3459 -0.1231
   26MOL   F167 8217   4.325   0.641   7.077  0.3852 -0.2062  0.5996
   26MOL   C168 8218   4.451   0.797   6.946 -0.0719  0.6283 -0.1997
   26MOL   C169 8219   4.574   0.856   6.918  0.1479 -0.4804  0.3177
   26MOL   C170 8220   4.905   0.912   7.095 -0.5199  0.3777  0.0263
   26MOL   H171 8221   4.794   0.980   6.923  1.2138  0.1427 -0.8978
   26MOL   H172 8222   4.758   0.667   7.153 -1.7349 -0.6042  1.8352
   26MOL   H173 8223   4.541   0.582   7.191  1.2358 -1.2226 -0.7132
   26MOL   H174 8224   4.359   0.829   6.899 -0.9204 -1.6216 -0.1660
   26MOL   H175 8225   4.585   0.932   6.841 -1.1174  0.9275  1.5068
   26MOL   H176 8226   4.931   0.811   7.124 -0.0753  0.9742  1.7453
   26MOL   H177 8227   4.992   0.970   7.061  1.0058 -1.6994  0.2827
   26MOL   C178 8228   4.851   0.992   7.217  0.7005 -0.0635  0.5517
   26MOL   C179 8229   4.959   0.996   7.333 -0.3134 -0.2601  0.0555
   26MOL   C180 8230   5.062   1.089   7.324 -0.3244  0.1008 -0.2856
   26MOL   C181 8231   5.164   1.095   7.424  0.6348 -1.1897 -0.5627
   26MOL   C182 8232   5.150   1.022   7.545  0.0443 -0.7555 -0.2199
   26MOL   F183 8233   5.243   1.052   7.644  0.6052 -0.0263 -0.1552
   26MOL   C184 8234   5.046   0.932   7.554  0.1449  0.1250 -0.3271
   26MOL   C185 8235   4.949   0.918   7.454 -0.1766 -0.1512  0.0941
   26MOL   C186 8236   4.806   1.140   7.187  0.2947 -0.3542  0.1158
   26MOL   H187 8237   4.761   0.936   7.245  0.5008 -0.0077  0.0343
   26MOL   H188 8238   5.064   1.137   7.227 -1.4801 -2.9350 -1.8850
   26MOL   H189 8239   5.255   1.152   7.410  0.6115 -0.9113  0.3818
   26MOL   H190 8240   5.036   0.879   7.648 -1.2018 -0.1633 -0.6324
   26MOL   H191 8241   4.870   0.845   7.469  0.8229 -1.5846 -1.4399
   26MOL   H192 8242   4.891   1.194   7.145 -0.9048  0.1556 -1.6992
   26MOL   H193 8243   4.743   1.141   7.098  0.9005  0.6383 -0.3054
   26MOL   C194 8244   4.746   1.226   7.299 -0.3662 -0.1778 -0.6387
   26MOL   C195 8245   4.811   1.365   7.318 -0.7036  0.7276  0.7652
   26MOL   C196 8246   4.874   1.392   7.441 -0.1805  0.3111 -0.4214
   26MOL   C197 8247   4.916   1.522   7.473  0.4329  0.1935 -0.2245
   26MOL   C198 8248   4.910   1.622   7.377 -0.5347  1.1179 -0.7381
   26MOL   F199 8249   4.958   1.748   7.401 -0.6727 -0.1239 -0.0276
   26MOL   C200 8250   4.849   1.596   7.253  0.0826  0.2556 -0.0039
   26MOL   C201 8251   4.803   1.463   7.224  0.2341  0.9782  1.0740
   26MOL   C202 8252   4.596   1.239   7.283  0.1765 -0.3631 -0.5199
   26MOL   H203 8253   4.769   1.174   7.392 -0.0628  0.7052 -0.2158
   26MOL   H204 8254   4.887   1.310   7.509  1.1763  1.7060  1.0510
   26MOL   H205 8255   4.960   1.533   7.570 -1.8140  1.7257  0.6644
   26MOL   H206 8256   4.839   1.672   7.177  2.0749 -0.2588 -0.8178
   26MOL   H207 8257   4.753   1.446   7.130 -0.8564  2.4256  1.3870
   26MOL   H208 8258   4.557   1.287   7.373 -2.1278  1.4305 -2.4190
   26MOL   H209 8259   4.558   1.285   7.192 -1.3972 -0.9869 -0.2070
   26MOL   C210 8260   4.517   1.102   7.299  0.8015 -0.3057  0.1290
   26MOL   C211 8261   4.548   1.014   7.421  0.0657  0.5062 -0.0751
   26MOL   C212 8262   4.540   0.873   7.409  0.4479  0.6638  0.8089
   26MOL   C213 8263   4.579   0.799   7.525 -0.3690  0.3093 -0.0360
   26MOL   C214 8264   4.603   0.855   7.652 -0.1344 -0.1940  0.2049
   26MOL   F215 8265   4.646   0.770   7.748 -0.5212 -0.3904 -0.0778
   26MOL   C216 8266   4.603   0.993   7.664 -0.9201 -0.1474  1.2135
   26MOL   C217 8267   4.582   1.067   7.548 -0.2207 -0.5987 -0.2454
   26MOL   C218 8268   4.367   1.112   7.261 -0.4361  0.3074  0.0192
   26MOL   H219 8269   4.566   1.039   7.225  1.9477  0.0928  0.5260
   26MOL   H220 8270   4.528   0.822   7.314  0.9959  1.7337  0.1578
   26MOL   H221 8271   4.584   0.691   7.526 -1.3574  0.2569 -0.2680
   26MOL   H222 8272   4.618   1.034   7.763  1.3534  0.2797  0.7303
   26MOL   H223 8273   4.575   1.174   7.560 -1.8651 -0.7701  0.5980
   26MOL   H224 8274   4.357   1.154   7.161 -1.8397  0.2042  0.1041
   26MOL   H225 8275   4.310   1.019   7.256  1.0813 -0.6858  0.8213
   26MOL   C226 8276   4.284   1.222   7.333 -0.4773  0.3644 -0.3296
   26MOL   C227 8277   4.155   1.265   7.258  0.1989 -0.3019  0.3155
   26MOL   C228 8278   4.060   1.169   7.216 -0.4702  0.4408 -0.1808
   26MOL   C229 8279   3.944   1.212   7.151 -0.4048 -0.3680 -0.0006
   26MOL   C230 8280   3.930   1.352   7.121  0.0775  0.6781 -0.2204
   26MOL   F231 8281   3.821   1.384   7.045 -0.3815  0.1741  0.1968
   26MOL   C232 8282   4.017   1.448   7.173  1.2206  0.5306 -0.7335
   26MOL   C233 8283   4.134   1.405   7.237 -0.2617  0.0812 -0.4642
   26MOL   C234 8284   4.241   1.167   7.476 -0.1805 -0.1121  0.7376
   26MOL   H235 8285   4.338   1.316   7.339  1.9116 -0.7752 -2.8323
   26MOL   H236 8286   4.072   1.066   7.244  1.5707  0.0575 -2.3293
   26MOL   H237 8287   3.870   1.141   7.118 -0.1553  0.0926 -1.5792
   26MOL   H238 8288   3.995   1.553   7.160 -0.5539  0.0661 -1.6127
   26MOL   H239 8289   4.208   1.475   7.273 -1.3062 -0.2862  2.5392
   26MOL   H240 8290   4.172   1.086   7.449  2.6793 -2.2756 -0.3670
   26MOL   H241 8291   4.326   1.124   7.529  1.2899 -0.1510 -1.6068
   26MOL   C242 8292   4.173   1.262   7.572 -0.3564  0.1622  0.3997
   26MOL   C243 8293   4.108   1.184   7.684  0.1367  0.1258 -0.4011
   26MOL   C244 8294   3.973   1.204   7.708 -1.0219 -0.7518  0.3460
   26MOL   C245 8295   3.914   1.139   7.823 -0.2809 -0.6357 -0.1925
   26MOL   C246 8296   3.993   1.067   7.913 -0.1774  0.1033  0.3883
   26MOL   F247 8297   3.937   1.024   8.018  0.0040 -0.8378 -0.3078
   26MOL   C248 8298   4.129   1.045   7.885 -0.5538 -0.1738 -0.0463
   26MOL   C249 8299   4.192   1.112   7.777  0.4108  0.0349  0.3517
   26MOL   C250 8300   4.274   1.365   7.640 -0.2251  0.4042 -0.0649
   26MOL   H251 8301   4.100   1.322   7.518  0.2381 -0.4523 -1.1424
   26MOL   H252 8302   3.906   1.258   7.643 -2.6933 -1.6286  1.2902
   26MOL   H253 8303   3.807   1.148   7.829 -0.2413  1.1763 -1.5747
   26MOL   H254 8304   4.187   0.983   7.951 -1.1517  0.2557  0.9034
   26MOL   H255 8305   4.296   1.095   7.751  0.4456  0.1195  0.4352
   26MOL   H256 8306   4.358   1.316   7.688 -2.2351 -1.0438  2.0607
   26MOL   H257 8307   4.331   1.421   7.566  1.5920 -0.2299  0.8281
   26MOL   C258 8308   4.217   1.457   7.750 -0.7458  0.0972  0.1767
   26MOL   C259 8309   4.327   1.522   7.835 -0.5514 -0.7139 -1.4331
   26MOL   C260 8310   4.387   1.444   7.942 -0.0529 -0.2981 -1.4683
   26MOL   C261 8311   4.490   1.498   8.023  0.3731 -0.2527  0.1829
   26MOL   C262 8312   4.535   1.630   7.992 -0.7319  0.3411 -0.3519
   26MOL   F263 8313   4.634   1.681   8.074  0.7031 -0.1906  0.0231
   26MOL   C264 8314   4.477   1.708   7.895  0.2604 -0.0033 -1.0285
   26MOL   C265 8315   4.376   1.655   7.813 -0.6167  0.6454 -0.0646
   26MOL   C266 8316   4.113   1.560   7.691 -0.3003 -0.4845 -0.1435
   26MOL   H267 8317   4.165   1.389   7.818 -2.8184  0.0006 -1.4440
   26MOL   H268 8318   4.354   1.345   7.971  0.4569  0.3636  1.4804
   26MOL   H269 8319   4.534   1.446   8.107 -0.5409 -1.5622 -0.1397
   26MOL   H270 8320   4.515   1.808   7.879 -0.8276  0.7994  1.1488
   26MOL   H271 8321   4.330   1.720   7.741 -0.0166 -0.3380 -1.3584
   26MOL   H272 8322   4.157   1.636   7.625 -0.7893 -0.2630 -0.2154
   26MOL   H273 8323   4.043   1.502   7.632  0.6910 -3.1657  1.2551
   26MOL   C274 8324   4.025   1.627   7.789 -0.0486 -0.0467  0.1529
   26MOL   C275 8325   3.964   1.749   7.717  0.3849  0.2101 -0.8538
   26MOL   C276 8326   3.856   1.732   7.622  0.1489  0.3450  0.8119
   26MOL   C277 8327   3.807   1.847   7.553 -0.8933 -0.2241  0.3459
   26MOL   C278 8328   3.855   1.978   7.588 -0.3292 -0.2970 -0.0465
   26MOL   F279 8329   3.807   2.083   7.526  0.0038 -0.4761 -0.0122
   26MOL   C280 8330   3.959   1.992   7.675 -0.3203 -0.4129 -0.4381
   26MOL   C281 8331   4.004   1.875   7.746 -0.3875 -0.2003  0.4310
   26MOL   C282 8332   3.923   1.533   7.861 -0.1745  0.9280  0.1873
   26MOL   H283 8333   4.080   1.669   7.874 -0.0326  1.1155 -0.4184
   26MOL   H284 8334   3.827   1.633   7.589  2.4106  0.0459 -0.3737
   26MOL   H285 8335   3.727   1.848   7.479  1.0062 -1.1171 -1.7852
   26MOL   H286 8336   3.984   2.092   7.705 -1.7498 -0.0580 -0.3680
   26MOL   H287 8337   4.081   1.882   7.821  0.8452  2.6371 -1.0208
   26MOL   H288 8338   3.859   1.490   7.784  0.2602  2.0005 -0.7912
   26MOL   H289 8339   3.967   1.450   7.916 -4.4032 -0.1353  2.1332
   26MOL   C290 8340   3.830   1.602   7.957 -0.1908  0.0196  0.3849
   26MOL   C291 8341   3.751   1.500   8.041  0.4490 -0.3776  0.2035
   26MOL   C292 8342   3.616   1.483   8.006  1.0144 -0.4546 -0.0614
   26MOL   C293 8343   3.532   1.400   8.083 -0.1882  0.4747 -0.1984
   26MOL   C294 8344   3.590   1.337   8.201  0.1369  0.3172 -0.6666
   26MOL   F295 8345   3.514   1.263   0.051  0.4672  0.3663  0.7342
   26MOL   C296 8346   3.728   1.348   8.231 -0.0983  0.5334 -0.7523
   26MOL   C297 8347   3.811   1.433   8.149 -0.3996  0.3625 -0.7715
   26MOL   C298 8348   3.894   1.710   8.047  0.5960 -0.4164 -0.6005
   26MOL   H299 8349   3.756   1.659   7.900  0.0790  0.0820  0.0991
   26MOL   H300 8350   3.572   1.544   7.929  0.1283 -1.0123 -0.0025
   26MOL   H301 8351   3.425   1.394   8.071 -0.3816  0.4113  1.3903
   26MOL   H302 8352   3.767   1.303   0.087 -0.8807  1.4548  0.0523
   26MOL   H303 8353   3.908   1.449   8.192 -0.2708  0.4812 -1.1009
   26MOL   H304 8354   3.980   1.670   8.099  2.1431  3.5039  0.0698
   26MOL   H305 8355   3.924   1.796   7.987 -1.4750  1.1459  0.5382
   26MOL   C306 8356   3.808   1.776   8.157 -0.0497  0.2602  0.7543
   26MOL   C307 8357   3.894   1.873   8.232  0.0299  0.1962  0.1505
   26MOL   C308 8358   3.925   1.851   0.138  0.3506 -0.5178  0.3098
   26MOL   C309 8359   4.005   1.930   0.212 -0.2396  0.2903 -0.0719
   26MOL   C310 8360   4.067   2.042   0.144  0.5641 -0.8685 -0.2988
   26MOL   F311 8361   4.151   2.131   0.211  0.3869  0.3558 -0.2020
   26MOL   C312 8362   4.034   2.070   0.009  0.2613 -0.4367 -0.4311
   26MOL   C313 8363   3.952   1.986   8.166 -0.2945  0.3640  0.4652
   26MOL   C314 8364   3.684   1.853   8.106 -0.7253  0.0633 -0.1154
   26MOL   H315 8365   3.767   1.705   8.230  1.4541  1.2111  2.5754
   26MOL   H316 8366   3.892   1.757   0.181  2.2170 -2.2988 -1.9994
   26MOL   H317 8367   4.044   1.908   0.310 -0.5733 -0.1349 -0.0354
   26MOL   H318 8368   4.089   2.154   8.203  1.2229 -0.8897 -0.0878
   26MOL   H319 8369   3.929   1.994   8.061 -1.3048 -2.0804  0.4633
   26MOL   H320 8370   3.642   1.910   8.189  0.3315 -0.7226  0.9805
   26MOL   H321 8371   3.710   1.913   8.019  0.7844 -0.0529  0.2400
   26MOL   H322 8372   3.607   1.781   8.078 -2.2736  1.0915  1.4356
   27MOL     C1 8373   3.812   7.756   6.591 -0.2573  0.0444  0.0954
   27MOL     C2 8374   3.815   7.679   6.726 -0.0142 -0.2089 -0.2479
   27MOL     C3 8375   3.748   7.552   6.738  0.0212 -0.7701 -0.1318
   27MOL     C4 8376   3.754   7.482   6.857 -0.7958  0.7049 -0.1250
   27MOL     C5 8377   3.838   7.530   6.961 -0.1345  1.2826 -0.3171
   27MOL     F6 8378   3.862   7.444   7.061  0.2886 -0.1047  0.8013
   27MOL     C7 8379   3.910   7.649   6.953  0.1327  0.2580 -0.3686
   27MOL     C8 8380   3.892   7.729   6.838  0.0281 -0.1057  0.3789
   27MOL     C9 8381   3.895   7.683   6.478 -0.4258 -0.1681 -0.3463
   27MOL    H10 8382   3.843   7.857   6.619 -3.0902  0.7752  0.7760
   27MOL    H11 8383   3.684   7.508   6.663 -2.7529 -0.8842  2.2192
   27MOL    H12 8384   3.709   7.384   6.859  1.9496 -0.5875  1.2263
   27MOL    H13 8385   3.984   7.672   7.028  0.1111 -1.0484  0.0671
   27MOL    H14 8386   3.943   7.823   6.819 -0.7548 -0.2176 -2.4339
   27MOL    H15 8387   3.953   7.611   6.536 -0.1356 -0.5374 -1.0844
   27MOL    H16 8388   3.837   7.637   6.398 -0.2940  1.7217 -1.5912
   27MOL    H17 8389   3.706   7.768   6.567 -0.3673 -2.2262 -0.6260
   27MOL    C18 8390   3.997   7.777   6.411 -0.2928 -0.1900 -0.2769
   27MOL    C19 8391   4.099   7.710   6.322 -0.5312  0.0409  0.0711
   27MOL    C20 8392   4.062   7.633   6.210 -0.3825 -0.5885 -0.6543
   27MOL    C21 8393   4.157   7.578   6.119  0.8084 -0.2761 -0.3473
   27MOL    C22 8394   4.295   7.590   6.143 -0.4161 -0.4441 -0.7481
   27MOL    F23 8395   4.380   7.537   6.048 -0.3630 -0.3082  0.2833
   27MOL    C24 8396   4.334   7.649   6.257  0.4366 -0.2127  0.2251
   27MOL    C25 8397   4.237   7.718   6.334 -0.4365 -0.2913 -0.1749
   27MOL    C26 8398   3.929   7.879   6.316  0.1526  0.3780 -0.2595
   27MOL    H27 8399   4.053   7.827   6.490 -1.6192  0.6302  0.1568
   27MOL    H28 8400   3.961   7.604   6.185 -1.0690  0.6744  0.5853
   27MOL    H29 8401   4.126   7.518   6.035  0.9214 -0.5922 -0.1658
   27MOL    H30 8402   4.438   7.648   6.286  0.8958 -0.1341 -1.3855
   27MOL    H31 8403   4.279   7.777   6.414 -0.5862 -0.4299  0.0091
   27MOL    H32 8404   4.005   7.925   6.253 -1.7697  2.9120 -0.8102
   27MOL    H33 8405   3.852   7.836   6.252  0.4560 -1.1307  0.3668
   27MOL    C34 8406   3.865   8.006   6.381 -0.3258  0.4497 -0.2695
   27MOL    C35 8407   3.977   8.088   6.452 -0.1417  0.1875 -1.0686
   27MOL    C36 8408   3.975   8.122   6.593 -0.2566  0.3311 -0.2693
   27MOL    C37 8409   4.068   8.204   6.654 -0.3582 -0.2810  0.1227
   27MOL    C38 8410   4.187   0.000   6.584  0.3134 -0.6065 -0.2995
   27MOL    F39 8411   4.286   0.073   6.650  0.1016  0.0873  0.4183
   27MOL    C40 8412   4.195   8.198   6.446  0.3994  0.1383 -0.1440
   27MOL    C41 8413   4.092   8.127   6.381 -0.7249 -0.4792  0.2066
   27MOL    C42 8414   3.798   8.094   6.274 -0.0855  0.1057  0.0125
   27MOL    H43 8415   3.796   7.972   6.458  0.4125 -2.1423 -0.6837
   27MOL    H44 8416   3.888   8.084   6.644  0.9059 -1.3197  0.5601
   27MOL    H45 8417   4.060   0.005   6.756  0.8493  1.7988 -0.4725
   27MOL    H46 8418   4.289   8.224   6.397  0.3618 -0.4494 -0.5331
   27MOL    H47 8419   4.104   8.103   6.276 -2.2155 -0.3697 -0.0020
   27MOL    H48 8420   3.876   8.149   6.220 -0.4148  0.7599  0.1970
   27MOL    H49 8421   3.734   8.039   6.205 -1.9943  1.6994  0.4714
   27MOL    C50 8422   3.702   8.198   6.342 -0.2512 -0.2376 -0.3365
   27MOL    C51 8423   3.659   0.066   6.240  0.0744  0.2786 -0.7336
   27MOL    C52 8424   3.684   0.205   6.265 -0.3236  0.5523 -0.0126
   27MOL    C53 8425   3.639   0.296   6.170  0.1678  0.0114  0.1515
   27MOL    C54 8426   3.566   0.264   6.054 -0.3194 -0.6067 -0.7113
   27MOL    F55 8427   3.519   0.363   5.974  0.0303 -0.0237  0.0429
   27MOL    C56 8428   3.555   0.126   6.027  0.2807 -0.9467  0.1221
   27MOL    C57 8429   3.607   0.027   6.114 -0.2560 -0.4784  0.2500
   27MOL    C58 8430   3.586   8.127   6.416  0.1532  0.4369  0.1014
   27MOL    H59 8431   3.757   0.026   6.413  0.9409 -1.1578 -0.4183
   27MOL    H60 8432   3.734   0.239   6.355  0.4103  0.7863 -0.5057
   27MOL    H61 8433   3.654   0.398   6.204  4.1671 -0.1399 -0.9239
   27MOL    H62 8434   3.515   0.089   5.934  0.6431  0.6826 -0.7087
   27MOL    H63 8435   3.595   8.161   6.076 -2.0208  0.0120 -0.5487
   27MOL    H64 8436   3.493   8.157   6.367 -0.5078  0.8897  1.5935
   27MOL    H65 8437   3.590   8.018   6.417 -1.1717  0.3988  1.2096
   27MOL    C66 8438   3.555   8.163   6.564  0.1595  0.1144 -0.2740
   27MOL    C67 8439   3.533   0.079   6.576 -0.3255 -0.4981  0.1991
   27MOL    C68 8440   3.415   0.147   6.529 -0.7011  0.1414 -0.5866
   27MOL    C69 8441   3.400   0.286   6.552  0.5544  0.0871  0.3804
   27MOL    C70 8442   3.506   0.355   6.611  0.1782  0.3033 -0.5869
   27MOL    F71 8443   3.497   0.491   6.621 -0.1310  0.5105  0.2404
   27MOL    C72 8444   3.630   0.295   6.633 -0.1606  0.3797 -0.2189
   27MOL    C73 8445   3.637   0.156   6.628  0.4221 -0.6082 -0.4350
   27MOL    C74 8446   3.428   8.079   6.608 -0.2731  0.0835 -0.2755
   27MOL    H75 8447   3.637   8.135   6.631 -0.4878  1.5369  1.1481
   27MOL    H76 8448   3.335   0.087   6.490 -0.1931  0.3596 -2.0137
   27MOL    H77 8449   3.319   0.340   6.505  0.2502 -0.6185  0.0981
   27MOL    H78 8450   3.716   0.354   6.659 -0.9283  1.3182  0.2024
   27MOL    H79 8451   3.730   0.113   6.664  0.8247  0.0601 -0.6760
   27MOL    H80 8452   3.350   8.120   6.543  0.0715 -0.5605 -1.1043
   27MOL    H81 8453   3.433   7.972   6.591 -0.7961 -0.3291  1.9456
   27MOL    C82 8454   3.383   8.095   6.757  0.7309 -0.7430  0.2358
   27MOL    C83 8455   3.231   8.083   6.766 -0.3367  0.5490  0.4195
   27MOL    C84 8456   3.153   8.188   6.817  0.8303 -0.4209  0.2873
   27MOL    C85 8457   3.017   8.168   6.827 -0.3594 -0.6346 -0.1907
   27MOL    C86 8458   2.951   8.048   6.779  0.2179 -0.2059 -0.7130
   27MOL    F87 8459   2.817   8.035   6.790 -0.2385  0.3882  0.1991
   27MOL    C88 8460   3.035   7.942   6.737 -0.0867 -0.1480 -0.2294
   27MOL    C89 8461   3.172   7.964   6.728 -0.2416 -0.3209  0.4112
   27MOL    C90 8462   3.467   7.992   6.838  0.5846 -0.4216 -0.0214
   27MOL    H91 8463   3.407   8.197   6.787 -1.6239  0.0240 -0.3451
   27MOL    H92 8464   3.199   0.047   6.843  2.0100 -0.4305 -1.7546
   27MOL    H93 8465   2.956   0.018   6.855  2.5212  1.9529 -1.4200
   27MOL    H94 8466   2.991   7.847   6.714  0.5610  0.0547 -2.3863
   27MOL    H95 8467   3.236   7.890   6.683  0.8234  0.5153  0.5126
   27MOL    H96 8468   3.439   7.893   6.801  4.3461 -1.6141  0.1409
   27MOL    H97 8469   3.574   8.009   6.828  0.7274 -1.7299 -0.8092
   27MOL    C98 8470   3.425   7.991   6.988 -0.0614  0.5701 -0.1861
   27MOL    C99 8471   3.446   7.851   7.050  0.3853  0.0445 -0.0785
   27MOL   C100 8472   3.335   7.783   7.114 -0.0368  0.7193 -0.2130
   27MOL   C101 8473   3.353   7.668   7.186  0.2399  0.2833 -0.3866
   27MOL   C102 8474   3.483   7.620   7.212 -0.2883  0.3365 -0.4099
   27MOL   F103 8475   3.500   7.505   7.278  0.2542  0.2760 -0.2097
   27MOL   C104 8476   3.593   7.677   7.134 -0.1158  0.1823  0.2457
   27MOL   C105 8477   3.576   7.796   7.063 -0.4884 -0.7467 -0.4585
   27MOL   C106 8478   3.483   8.109   7.064 -0.0685 -0.4168 -0.1207
   27MOL   H107 8479   3.318   8.006   7.001 -0.4912 -3.5365  1.7864
   27MOL   H108 8480   3.236   7.823   7.099 -1.8986 -2.6194  2.2430
   27MOL   H109 8481   3.271   7.618   7.235 -1.0475  1.1252 -1.6741
   27MOL   H110 8482   3.695   7.640   7.133 -0.8407 -2.0354 -3.8649
   27MOL   H111 8483   3.658   7.837   7.006  0.6431 -0.7179  1.1305
   27MOL   H112 8484   3.588   8.125   7.040 -0.2010  0.1871 -0.3120
   27MOL   H113 8485   3.437   8.190   7.008  3.1740  1.3066 -0.3704
   27MOL   C114 8486   3.447   8.113   7.219 -0.0328  0.3867 -0.0916
   27MOL   C115 8487   3.578   8.113   7.299  0.3948 -0.2861 -0.1012
   27MOL   C116 8488   3.660   8.231   7.308  0.1436  0.3601 -0.2652
   27MOL   C117 8489   3.768   8.230   7.390 -0.6791 -0.2175 -0.0767
   27MOL   C118 8490   3.807   8.123   7.465  0.4398 -0.3561  0.2797
   27MOL   F119 8491   3.922   8.120   7.544  0.0419  0.0234  0.5534
   27MOL   C120 8492   3.730   8.005   7.454  0.1641 -0.3994 -0.6424
   27MOL   C121 8493   3.618   8.000   7.366  0.4163 -0.0093  0.1273
   27MOL   C122 8494   3.352   8.233   7.265  0.1910  0.0320 -0.4717
   27MOL   H123 8495   3.394   8.021   7.245  0.3843  0.7887  2.2917
   27MOL   H124 8496   3.624   0.083   7.255 -1.6171  0.9071  1.7495
   27MOL   H125 8497   3.838   0.078   7.398  3.5304 -3.4605 -1.5404
   27MOL   H126 8498   3.752   7.916   7.511  1.0503 -1.4881 -2.6324
   27MOL   H127 8499   3.557   7.911   7.366 -0.4274  0.5684  0.3861
   27MOL   H128 8500   3.350   8.226   7.374  0.7547  0.0068 -0.4590
   27MOL   H129 8501   3.409   0.089   7.241  0.2193  0.8874  2.6376
   27MOL   C130 8502   3.208   0.005   7.217 -0.0493 -0.3769  0.1614
   27MOL   C131 8503   3.126   8.119   7.263 -0.7208 -0.6643 -0.6449
   27MOL   C132 8504   3.064   8.041   7.165 -0.2460  0.6004 -0.8729
   27MOL   C133 8505   2.973   7.939   7.207  0.6888  0.2565 -0.1250
   27MOL   C134 8506   2.948   7.913   7.345  0.6578  0.0190  0.1888
   27MOL   F135 8507   2.840   7.834   7.380  0.0602  0.2642  0.0781
   27MOL   C136 8508   3.021   7.984   7.441 -0.4169 -0.0280  0.3226
   27MOL   C137 8509   3.111   8.086   7.401  0.5521 -0.2129  0.3667
   27MOL   C138 8510   3.132   0.130   7.274 -0.2151  0.3864  0.4013
   27MOL   H139 8511   3.207   0.014   7.109  2.4286 -0.3954  0.1262
   27MOL   H140 8512   3.068   8.059   7.059  1.3335 -2.2318 -1.3560
   27MOL   H141 8513   2.920   7.880   7.133  0.3597 -0.6454  0.8267
   27MOL   H142 8514   3.007   7.968   7.547  0.1957  1.6208  0.6587
   27MOL   H143 8515   3.177   8.132   7.473  0.6722  0.1180  0.0444
   27MOL   H144 8516   3.029   0.119   7.237  1.1272 -1.9126 -2.9715
   27MOL   H145 8517   3.122   0.123   7.382 -0.8023  3.7881  0.6187
   27MOL   C146 8518   3.179   0.271   7.236 -0.0704  0.0876  0.8011
   27MOL   C147 8519   3.145   0.307   7.087 -0.1332 -0.1205 -0.2253
   27MOL   C148 8520   3.244   0.351   6.998 -0.6754  0.0781 -1.0922
   27MOL   C149 8521   3.212   0.368   6.862  0.3261  0.3577  0.5185
   27MOL   C150 8522   3.082   0.344   6.817 -0.9860 -0.0679 -0.2737
   27MOL   F151 8523   3.048   0.370   6.686  0.0683  0.6693 -0.3769
   27MOL   C152 8524   2.978   0.304   6.909 -0.7431  0.3554  0.2541
   27MOL   C153 8525   3.008   0.288   7.045 -0.4876 -0.2656  0.3000
   27MOL   C154 8526   3.110   0.378   7.332  0.4244 -0.0651 -0.2796
   27MOL   H155 8527   3.287   0.279   7.247  0.1636 -0.7798 -0.6109
   27MOL   H156 8528   3.341   0.364   7.044  0.4255 -2.1090 -2.6687
   27MOL   H157 8529   3.280   0.417   6.794  0.9313  0.6552  1.3315
   27MOL   H158 8530   2.876   0.306   6.874 -0.4944 -1.2471 -0.6313
   27MOL   H159 8531   2.925   0.270   7.111  0.3163 -1.4642  0.9958
   27MOL   H160 8532   3.125   0.477   7.289  1.9067 -0.2232 -0.1440
   27MOL   H161 8533   3.002   0.369   7.345  0.4320 -0.9492 -0.7808
   27MOL   C162 8534   3.176   0.383   7.483 -0.3624 -0.2624 -0.1388
   27MOL   C163 8535   3.328   0.356   7.494  0.6517  0.4193  0.1300
   27MOL   C164 8536   3.373   0.231   7.545 -0.3446  0.4703 -0.1874
   27MOL   C165 8537   3.510   0.200   7.543 -0.1925 -0.2927 -1.1949
   27MOL   C166 8538   3.607   0.294   7.496 -0.1603 -0.4373  0.0212
   27MOL   F167 8539   3.736   0.261   7.511 -0.4256  0.1501 -0.5093
   27MOL   C168 8540   3.566   0.418   7.444 -0.3935  0.3002 -0.2166
   27MOL   C169 8541   3.427   0.446   7.442 -0.2241 -0.9777 -0.9702
   27MOL   C170 8542   3.146   0.508   7.559 -0.3983 -0.3468 -0.8618
   27MOL   H171 8543   3.128   0.298   7.531 -1.0775 -0.0637 -0.4818
   27MOL   H172 8544   3.300   0.160   7.581  2.1144 -2.5130 -0.9925
   27MOL   H173 8545   3.538   0.106   7.587 -0.8437  0.6203  1.2528
   27MOL   H174 8546   3.639   0.491   7.410 -2.9476  2.9065 -0.2560
   27MOL   H175 8547   3.409   0.546   7.405  0.7986 -0.2925  0.3416
   27MOL   H176 8548   3.224   0.521   7.634 -0.7019 -0.6714 -0.4863
   27MOL   H177 8549   3.168   0.593   7.495  2.7163  1.5117  2.5216
   27MOL   C178 8550   3.007   0.509   7.627  0.1235 -0.3400 -0.3289
   27MOL   C179 8551   3.003   0.400   7.734  0.8881 -0.4670  0.0535
   27MOL   C180 8552   2.920   0.286   7.725  0.2435  0.1754 -0.1497
   27MOL   C181 8553   2.923   0.179   7.816  0.3242  0.3316  0.0677
   27MOL   C182 8554   3.009   0.186   7.921 -0.0532  0.2481 -0.2280
   27MOL   F183 8555   3.012   0.081   8.007  0.0786 -0.0850 -0.3739
   27MOL   C184 8556   3.090   0.299   7.940 -0.1108 -0.1972 -0.8144
   27MOL   C185 8557   3.092   0.398   7.843 -0.2425  1.2528 -0.4472
   27MOL   C186 8558   2.981   0.655   7.673  0.2515 -0.3906  0.6414
   27MOL   H187 8559   2.941   0.483   7.544 -0.4221 -0.5635  0.1704
   27MOL   H188 8560   2.856   0.271   7.640 -0.6284  0.5444  0.4323
   27MOL   H189 8561   2.867   0.089   7.796 -2.3154  1.7250  0.9173
   27MOL   H190 8562   3.162   0.309   8.021  1.6312  0.5022 -2.4021
   27MOL   H191 8563   3.160   0.481   7.853  1.3999 -0.2618  1.3855
   27MOL   H192 8564   3.062   0.697   7.733 -1.2338  0.8302  1.8638
   27MOL   H193 8565   2.971   0.717   7.584  0.2253  0.0840  0.9703
   27MOL   C194 8566   2.857   0.679   7.769 -0.0453 -0.4690  0.1218
   27MOL   C195 8567   2.845   0.823   7.822 -0.4427 -0.4914 -0.0528
   27MOL   C196 8568   2.787   0.841   7.948 -0.5524 -0.8225  0.2721
   27MOL   C197 8569   2.785   0.972   8.004  0.0811 -0.0794  0.5230
   27MOL   C198 8570   2.837   1.080   7.936 -0.7132 -0.0316  0.1558
   27MOL   F199 8571   2.815   1.201   7.984  0.3070 -0.1686 -0.0553
   27MOL   C200 8572   2.892   1.065   7.807 -0.2599 -0.4596 -0.2501
   27MOL   C201 8573   2.893   0.932   7.745  0.1275 -0.4338 -0.1602
   27MOL   C202 8574   2.720   0.636   7.706  0.0557 -0.3985  0.8034
   27MOL   H203 8575   2.879   0.609   7.849  0.5178 -0.9253 -0.4203
   27MOL   H204 8576   2.745   0.763   8.009 -1.3905  0.4454  1.3502
   27MOL   H205 8577   2.728   0.996   8.092  0.0873 -2.9935  1.3680
   27MOL   H206 8578   2.930   1.150   7.753 -1.0722  1.0105  1.4400
   27MOL   H207 8579   2.937   0.924   7.646 -0.4259  0.6364 -0.5045
   27MOL   H208 8580   2.730   0.530   7.679 -1.6395 -0.2480 -0.5123
   27MOL   H209 8581   2.647   0.644   7.786  0.0904  0.8746  0.7097
   27MOL   C210 8582   2.658   0.721   7.593 -0.8012 -0.6091  0.4369
   27MOL   C211 8583   2.726   0.700   7.458  0.2302  0.0235 -0.2491
   27MOL   C212 8584   2.721   0.577   7.391 -0.7816  0.3834 -0.3234
   27MOL   C213 8585   2.776   0.572   7.261 -0.5441  0.3401 -0.0643
   27MOL   C214 8586   2.837   0.680   7.200 -0.8134  0.1394  0.9514
   27MOL   F215 8587   2.893   0.667   7.078  0.4650 -0.6462  0.2215
   27MOL   C216 8588   2.846   0.799   7.267 -0.1496 -0.2182 -0.2580
   27MOL   C217 8589   2.796   0.806   7.398 -0.3376 -0.4038  0.4888
   27MOL   C218 8590   2.510   0.703   7.580  0.5379  0.1875 -0.3441
   27MOL   H219 8591   2.668   0.826   7.620  0.7175 -0.4740 -0.5732
   27MOL   H220 8592   2.673   0.489   7.431  0.0066  0.4756  0.8280
   27MOL   H221 8593   2.790   0.482   7.204  0.9891  0.9506 -0.6800
   27MOL   H222 8594   2.893   0.883   7.219 -0.6989 -0.0350 -0.4730
   27MOL   H223 8595   2.811   0.897   7.454  0.4391  0.4220 -1.0298
   27MOL   H224 8596   2.481   0.664   7.483 -0.1013  1.0580 -0.5158
   27MOL   H225 8597   2.481   0.628   7.654  0.8009 -0.2591 -0.6948
   27MOL   C226 8598   2.426   0.834   7.599  0.1469 -0.2897  0.0841
   27MOL   C227 8599   2.425   0.875   7.746 -0.5261  0.4121  0.6249
   27MOL   C228 8600   2.360   0.784   7.836 -0.2076 -0.5812 -0.4569
   27MOL   C229 8601   2.357   0.813   7.973  0.6954  0.2841 -0.2685
   27MOL   C230 8602   2.423   0.929   8.024 -0.8071  0.5236 -0.3475
   27MOL   F231 8603   2.451   0.935   8.159 -0.2584  0.4306 -0.0580
   27MOL   C232 8604   2.465   1.025   7.932 -0.3910  0.4787  0.2026
   27MOL   C233 8605   2.474   1.002   7.792 -0.6290  0.5696  0.2565
   27MOL   C234 8606   2.457   0.949   7.500  0.0261  0.2567 -0.9405
   27MOL   H235 8607   2.322   0.810   7.576  0.7541 -0.2483 -2.8107
   27MOL   H236 8608   2.311   0.695   7.799 -1.4636  1.4269 -3.8270
   27MOL   H237 8609   2.324   0.734   8.039  2.1782  0.8722  1.2010
   27MOL   H238 8610   2.500   1.114   7.983  0.1368 -0.4287  1.4539
   27MOL   H239 8611   2.507   1.076   7.721 -4.0707  1.4993 -0.4974
   27MOL   H240 8612   2.393   1.031   7.534 -1.5546 -1.7352  0.9933
   27MOL   H241 8613   2.559   0.984   7.514  0.4001 -0.9334 -0.6498
   27MOL   C242 8614   2.438   0.908   7.350  0.8589  0.1997  0.2097
   27MOL   C243 8615   2.308   0.848   7.318  0.3126 -0.2867 -0.0004
   27MOL   C244 8616   2.187   0.915   7.343 -0.1136 -0.3839  0.2432
   27MOL   C245 8617   2.065   0.857   7.307 -0.1103 -0.0397  0.7584
   27MOL   C246 8618   2.064   0.733   7.244  0.0207  0.3646  0.3897
   27MOL   F247 8619   1.956   0.685   7.184  0.0517 -0.3790 -0.3290
   27MOL   C248 8620   2.184   0.661   7.236  0.3954  0.1095 -0.2945
   27MOL   C249 8621   2.302   0.719   7.265  0.4049 -0.5206  0.3409
   27MOL   C250 8622   2.469   1.031   7.254  0.6527  0.0702  0.2429
   27MOL   H251 8623   2.509   0.831   7.322  1.7710  0.7749  0.9228
   27MOL   H252 8624   2.190   1.014   7.387 -0.9523 -1.1577  2.0649
   27MOL   H253 8625   1.971   0.903   7.331 -0.7385 -0.2131 -1.2897
   27MOL   H254 8626   2.182   0.560   7.200  0.4790 -0.1033  0.2874
   27MOL   H255 8627   2.385   0.655   7.242  0.0452 -0.9635  0.2741
   27MOL   H256 8628   2.423   1.124   7.289  2.7435  0.6028  1.6418
   27MOL   H257 8629   2.576   1.044   7.239  0.7948 -1.9174 -0.5377
   27MOL   C258 8630   2.422   1.025   7.105  0.5402  0.3904  0.3968
   27MOL   C259 8631   2.423   1.165   7.042 -0.1929  0.4936  0.2330
   27MOL   C260 8632   2.550   1.224   7.015  0.5749 -0.5241 -0.5059
   27MOL   C261 8633   2.557   1.355   6.957 -0.5550  0.1297  0.0497
   27MOL   C262 8634   2.437   1.424   6.926 -0.3033  0.2131 -0.0828
   27MOL   F263 8635   2.436   1.549   6.872 -0.1450 -0.0179  0.4466
   27MOL   C264 8636   2.316   1.365   6.963  0.2254  0.4024 -0.1101
   27MOL   C265 8637   2.305   1.239   7.025  0.8946  0.0181 -0.4533
   27MOL   C266 8638   2.490   0.918   7.031  0.8265 -0.4563  0.1111
   27MOL   H267 8639   2.318   0.993   7.105  0.4276  0.7459  0.7949
   27MOL   H268 8640   2.639   1.164   7.018 -0.0202 -1.3361  1.6663
   27MOL   H269 8641   2.650   1.401   6.927 -1.3139  1.8564  0.2750
   27MOL   H270 8642   2.225   1.416   6.935  1.8696  2.3590 -2.1168
   27MOL   H271 8643   2.212   1.191   7.051  1.8294 -1.0251  1.0686
   27MOL   H272 8644   2.596   0.940   7.030  0.8277 -0.4648  0.0630
   27MOL   H273 8645   2.490   0.825   7.089  1.0190 -0.4562  0.1113
   27MOL   C274 8646   2.454   0.903   6.878  0.4778  0.4225  0.7016
   27MOL   C275 8647   2.580   0.841   6.815  0.0120 -0.3222  0.8995
   27MOL   C276 8648   2.627   0.715   6.849  0.0690 -0.1268 -0.0224
   27MOL   C277 8649   2.744   0.670   6.797 -0.7610 -0.6063 -0.5468
   27MOL   C278 8650   2.811   0.744   6.701 -0.4810  0.0364  0.4669
   27MOL   F279 8651   2.925   0.691   6.652 -0.0441  0.5539 -0.3036
   27MOL   C280 8652   2.779   0.881   6.677 -0.8605  0.5411 -0.8707
   27MOL   C281 8653   2.657   0.929   6.725  0.0299 -0.0001 -0.1457
   27MOL   C282 8654   2.339   0.801   6.850 -0.1077 -0.4888  0.0153
   27MOL   H283 8655   2.427   0.998   6.833 -1.8624  0.3102  1.7991
   27MOL   H284 8656   2.576   0.665   6.930  0.7405  1.3766  1.3678
   27MOL   H285 8657   2.790   0.575   6.821  3.2336  1.0481 -1.3379
   27MOL   H286 8658   2.827   0.951   6.611 -0.0888 -0.4394 -1.3743
   27MOL   H287 8659   2.635   1.034   6.714 -0.7311  0.0711  1.8560
   27MOL   H288 8660   2.361   0.694   6.855  2.8774  0.0657 -0.6925
   27MOL   H289 8661   2.276   0.806   6.939 -0.8736  3.3866 -0.6502
   27MOL   C290 8662   2.244   0.836   6.730  0.5652  0.2266 -0.5942
   27MOL   C291 8663   2.319   0.821   6.595 -0.3473  0.1217 -0.2623
   27MOL   C292 8664   2.279   0.906   6.488  0.1055  0.4316 -0.0854
   27MOL   C293 8665   2.348   0.909   6.370 -0.4483  0.7571  0.2097
   27MOL   C294 8666   2.439   0.808   6.349 -0.2934  0.1105 -0.4505
   27MOL   F295 8667   2.499   0.792   6.228  0.3221 -0.1514 -0.0426
   27MOL   C296 8668   2.473   0.712   6.444 -0.4382 -0.2877 -0.3009
   27MOL   C297 8669   2.405   0.719   6.567 -0.2573 -0.2101  1.0078
   27MOL   C298 8670   2.128   0.738   6.723 -0.2633 -0.1570 -0.0793
   27MOL   H299 8671   2.210   0.937   6.748 -1.9706 -0.7872  0.5866
   27MOL   H300 8672   2.202   0.982   6.499 -1.0326 -0.4440 -1.7174
   27MOL   H301 8673   2.309   0.976   6.294  1.3572  1.6184  0.0261
   27MOL   H302 8674   2.548   0.641   6.414 -0.5096 -0.5391  0.1087
   27MOL   H303 8675   2.423   0.642   6.640  2.0322  1.2339  2.0156
   27MOL   H304 8676   2.073   0.754   6.630 -0.6866  1.0252  0.3686
   27MOL   H305 8677   2.152   0.632   6.734 -2.4665 -0.7919 -0.9683
   27MOL   C306 8678   2.011   0.769   6.816  0.2753  0.5596  0.5898
   27MOL   C307 8679   1.974   0.920   6.825 -0.9361  0.2339  0.1969
   27MOL   C308 8680   1.982   1.001   6.940 -0.0617 -0.3689  0.4447
   27MOL   C309 8681   1.957   1.140   6.931  0.3203 -0.0982 -0.0668
   27MOL   C310 8682   1.921   1.198   6.806 -0.0746 -0.3407 -0.5957
   27MOL   F311 8683   1.909   1.330   6.786  0.2570 -0.5248 -0.1548
   27MOL   C312 8684   1.918   1.116   6.690 -0.2782 -0.3601  0.3011
   27MOL   C313 8685   1.942   0.980   6.703 -0.8274 -0.1568 -0.9710
   27MOL   C314 8686   1.890   0.674   6.790  0.0870 -0.2998  0.1904
   27MOL   H315 8687   2.039   0.746   6.919  1.6884  0.3124  0.1631
   27MOL   H316 8688   2.020   0.961   7.033 -2.0985 -2.3127  0.4541
   27MOL   H317 8689   1.986   1.194   7.020  0.0424  0.9932 -0.6298
   27MOL   H318 8690   1.893   1.152   6.591 -2.2359 -1.0768  0.5004
   27MOL   H319 8691   1.950   0.928   6.609 -1.3525 -0.8303 -0.6482
   27MOL   H320 8692   1.926   0.571   6.794  2.6814  0.5735  0.3876
   27MOL   H321 8693   1.815   0.696   6.865  0.4037  1.2130  0.0649
   27MOL   H322 8694   1.853   0.697   6.690 -1.9914 -0.2866  0.9486
   28MOL     C1 8695   2.407   0.025   6.812 -0.3289  0.2476 -0.6998
   28MOL     C2 8696   2.482   0.030   6.941 -0.4203 -0.4605  0.1236
   28MOL     C3 8697   2.421   0.063   7.056 -0.4665 -0.9774 -0.4882
   28MOL     C4 8698   2.500   0.089   7.174 -0.3598 -0.1172 -0.3721
   28MOL     C5 8699   2.634   0.052   7.174 -0.6175  0.3989  0.0717
   28MOL     F6 8700   2.704   0.082   7.286  0.3975  0.1276  0.3886
   28MOL     C7 8701   2.701   0.023   7.057 -0.5431  0.6982 -0.2829
   28MOL     C8 8702   2.624   0.017   6.937 -0.3060  0.5127 -0.6023
   28MOL     C9 8703   2.346   8.118   6.781  0.1428  0.0373  0.2537
   28MOL    H10 8704   2.470   0.065   6.732 -0.2009 -0.0175 -0.7330
   28MOL    H11 8705   2.314   0.075   7.062 -0.1897  0.4095  2.0106
   28MOL    H12 8706   2.443   0.122   7.260 -1.3116 -2.4915 -0.0579
   28MOL    H13 8707   2.809   0.021   7.056 -0.4941  0.5528  2.2147
   28MOL    H14 8708   2.673   8.227   6.844 -0.4407 -0.9548 -0.2896
   28MOL    H15 8709   2.421   8.040   6.795  2.3292  1.7164 -1.6613
   28MOL    H16 8710   2.279   8.087   6.861  1.5524 -0.4883  1.2350
   28MOL    H17 8711   2.325   0.096   6.822  0.4503  1.2522 -1.3517
   28MOL    C18 8712   2.281   8.092   6.642  0.3697 -0.0058 -0.1464
   28MOL    C19 8713   2.279   7.942   6.601 -0.0748 -0.2942  0.7097
   28MOL    C20 8714   2.376   7.901   6.505 -1.0533  0.2783  0.0307
   28MOL    C21 8715   2.376   7.765   6.471  0.3463 -0.5795 -0.1445
   28MOL    C22 8716   2.273   7.675   6.512 -0.0033  0.4226  0.1698
   28MOL    F23 8717   2.265   7.563   6.438 -0.2873 -0.3601  0.0412
   28MOL    C24 8718   2.179   7.720   6.607 -0.4837  0.0230 -0.3867
   28MOL    C25 8719   2.176   7.854   6.647 -0.2224 -1.0228 -0.0589
   28MOL    C26 8720   2.147   8.162   6.624  0.0139  0.1200  0.2562
   28MOL    H27 8721   2.353   8.128   6.569  2.4713 -0.3824  1.7117
   28MOL    H28 8722   2.457   7.964   6.470  0.1310 -1.7626 -0.9802
   28MOL    H29 8723   2.444   7.726   6.397  0.9928 -0.8053  0.5747
   28MOL    H30 8724   2.107   7.654   6.653 -2.0305  0.7680 -1.6786
   28MOL    H31 8725   2.108   7.895   6.720  0.9432  0.2463  0.3402
   28MOL    H32 8726   2.080   8.113   6.695  0.1709 -0.2123  0.1728
   28MOL    H33 8727   2.169   0.026   6.664  0.2611 -1.1606  3.4389
   28MOL    C34 8728   2.093   8.166   6.479  0.0301 -0.3725 -0.2036
   28MOL    C35 8729   1.948   8.141   6.486  0.5371 -0.1877 -0.6725
   28MOL    C36 8730   1.899   8.039   6.409  0.5310 -0.0906  0.1183
   28MOL    C37 8731   1.758   8.021   6.395  0.1728 -0.5704 -0.1447
   28MOL    C38 8732   1.665   8.101   6.458  0.1575  0.2784 -0.5241
   28MOL    F39 8733   1.534   8.071   6.437 -0.0363 -0.0712  0.1849
   28MOL    C40 8734   1.715   8.213   6.532 -0.0775  0.0597  0.6402
   28MOL    C41 8735   1.858   8.231   6.547 -0.0408 -0.5143  0.2946
   28MOL    C42 8736   2.114   0.069   6.413 -0.0158 -0.5606  0.2131
   28MOL    H43 8737   2.143   8.090   6.419  0.0635 -1.0987  0.7111
   28MOL    H44 8738   1.961   7.961   6.366 -0.7785 -0.6573 -0.7647
   28MOL    H45 8739   1.718   7.945   6.329 -0.0800 -0.5728  0.0091
   28MOL    H46 8740   1.649   0.055   6.569 -0.0600  0.7149 -0.6229
   28MOL    H47 8741   1.896   0.084   6.598  0.9685  0.2045 -1.6585
   28MOL    H48 8742   2.047   0.070   6.327  0.5541  0.0684 -0.2262
   28MOL    H49 8743   2.079   0.145   6.483  1.6708 -1.8933  2.5896
   28MOL    C50 8744   2.254   0.112   6.367  0.0464 -0.0587 -0.4923
   28MOL    C51 8745   2.325   0.009   6.277  0.7625 -0.0698  0.2086
   28MOL    C52 8746   2.445   8.184   6.319 -0.3839 -0.1961 -0.1425
   28MOL    C53 8747   2.520   8.104   6.228 -0.4118  0.4874 -0.7688
   28MOL    C54 8748   2.475   8.088   6.095 -0.1566  0.1772 -0.4174
   28MOL    F55 8749   2.533   8.008   6.005 -0.1894  0.5168 -0.3948
   28MOL    C56 8750   2.353   8.140   6.056  0.3819  0.4218  0.1252
   28MOL    C57 8751   2.279   8.221   6.142 -0.1895 -0.0950  0.4702
   28MOL    C58 8752   2.264   0.255   6.309  0.7327 -0.1036  0.4694
   28MOL    H59 8753   2.315   0.106   6.457 -0.1417 -3.0624 -0.4957
   28MOL    H60 8754   2.482   8.191   6.420 -0.4903 -0.4831 -0.0840
   28MOL    H61 8755   2.610   8.050   6.251  0.2983  2.2513  0.7567
   28MOL    H62 8756   2.311   8.122   5.958  0.3806  2.9546 -0.3805
   28MOL    H63 8757   2.185   0.028   6.110  0.0900 -0.1131 -0.3735
   28MOL    H64 8758   2.365   0.271   6.272  1.1250 -2.1591  0.5782
   28MOL    H65 8759   2.216   0.249   6.211  0.5350  0.3937  0.5376
   28MOL    C66 8760   2.213   0.371   6.393 -0.1219 -0.5422  0.2285
   28MOL    C67 8761   2.293   0.379   6.518  0.9318 -0.7024 -1.0080
   28MOL    C68 8762   2.432   0.368   6.519 -0.2632  0.1193 -0.3147
   28MOL    C69 8763   2.504   0.364   6.644 -0.1258  0.3728  0.4226
   28MOL    C70 8764   2.434   0.368   6.760  0.1434 -0.0021 -0.2828
   28MOL    F71 8765   2.501   0.355   6.878  0.2533  0.0098  0.0387
   28MOL    C72 8766   2.291   0.373   6.761 -0.1417  0.0900  0.2079
   28MOL    C73 8767   2.220   0.388   6.640 -0.9362 -0.4462 -0.9648
   28MOL    C74 8768   2.206   0.503   6.309  0.8566 -0.2315  0.4165
   28MOL    H75 8769   2.110   0.357   6.424 -0.8122  0.1947 -1.6710
   28MOL    H76 8770   2.497   0.370   6.433 -1.0122  0.3609 -0.8838
   28MOL    H77 8771   2.610   0.346   6.635 -0.8297 -3.8972  0.0179
   28MOL    H78 8772   2.244   0.361   6.857  1.4025 -2.9506  0.6110
   28MOL    H79 8773   2.112   0.389   6.639 -0.9272  0.6000 -0.6172
   28MOL    H80 8774   2.207   0.578   6.388  0.0858 -1.0359  1.2139
   28MOL    H81 8775   2.302   0.514   6.260  0.8579  0.5555  0.5928
   28MOL    C82 8776   2.080   0.507   6.211 -0.0855 -0.2575  1.0196
   28MOL    C83 8777   1.948   0.475   6.275  0.1512  0.3908  0.2358
   28MOL    C84 8778   1.909   0.544   6.388  0.2992  0.2305 -0.9080
   28MOL    C85 8779   1.785   0.516   6.449 -0.1258  0.1119  0.2269
   28MOL    C86 8780   1.703   0.412   6.402  0.6848  0.3828 -0.7962
   28MOL    F87 8781   1.590   0.378   6.462 -0.4519 -0.0352  0.0520
   28MOL    C88 8782   1.752   0.330   6.300  0.4643  0.4400 -0.3265
   28MOL    C89 8783   1.870   0.364   6.230  0.3410  0.8965  0.2137
   28MOL    C90 8784   2.067   0.644   6.133  0.4311 -1.0848 -0.3208
   28MOL    H91 8785   2.101   0.427   6.141  1.9651  0.6543  0.5448
   28MOL    H92 8786   1.973   0.625   6.420 -1.1276  1.0196  0.0199
   28MOL    H93 8787   1.747   0.571   6.534 -0.5627  1.7980 -1.0223
   28MOL    H94 8788   1.700   0.243   6.262  1.1901 -0.6241  1.0429
   28MOL    H95 8789   1.902   0.305   6.146 -1.2279 -1.4721  1.2170
   28MOL    H96 8790   1.974   0.641   6.076  1.2530  1.8187 -1.9229
   28MOL    H97 8791   2.059   0.737   6.189  1.2189  1.2169 -3.8387
   28MOL    C98 8792   2.172   0.667   6.019 -0.0493  0.2266 -1.0392
   28MOL    C99 8793   2.182   0.537   5.942  0.1159  0.1480 -0.2314
   28MOL   C100 8794   2.293   0.448   5.938 -0.3333 -0.3334  0.6648
   28MOL   C101 8795   2.301   0.336   5.854  0.1565 -0.4324 -0.4922
   28MOL   C102 8796   2.181   0.305   5.777  0.3344 -0.1825 -0.1770
   28MOL   F103 8797   2.189   0.203   5.692 -0.2011  0.1651  0.0390
   28MOL   C104 8798   2.073   0.393   5.771  0.4029 -0.2925  0.9320
   28MOL   C105 8799   2.069   0.506   5.855 -0.8396 -0.4807 -0.2389
   28MOL   C106 8800   2.138   0.792   5.942  0.3708 -0.0330  0.8095
   28MOL   H107 8801   2.266   0.682   6.071 -0.4569 -2.2892  0.4703
   28MOL   H108 8802   2.368   0.477   6.009 -0.2098  2.1069 -0.4271
   28MOL   H109 8803   2.389   0.274   5.867  0.8501  0.6322 -0.0771
   28MOL   H110 8804   1.992   0.377   5.701 -1.6074 -0.0183  3.1525
   28MOL   H111 8805   1.984   0.573   5.857 -0.3523  0.1245  0.6186
   28MOL   H112 8806   2.039   0.777   5.900  0.0498  1.5147  0.9635
   28MOL   H113 8807   2.123   0.874   6.013  0.8780  1.3719 -0.6802
   28MOL   C114 8808   2.236   0.836   5.829  0.3645  0.5412 -0.1643
   28MOL   C115 8809   2.169   0.932   5.731  0.1151 -0.0667 -0.3395
   28MOL   C116 8810   2.080   1.024   5.773 -0.2102  0.1672 -0.0419
   28MOL   C117 8811   2.022   1.107   5.680  0.3247 -0.0044 -0.0545
   28MOL   C118 8812   2.037   1.098   5.539  0.4256  0.7992  0.1128
   28MOL   F119 8813   1.961   1.181   5.456 -0.2512  0.1404  0.5698
   28MOL   C120 8814   2.137   1.011   5.492  0.1347  0.6362  0.2520
   28MOL   C121 8815   2.196   0.925   5.592 -0.3689  0.5368  0.0554
   28MOL   C122 8816   2.370   0.898   5.883  0.1721  0.0408  0.0144
   28MOL   H123 8817   2.257   0.749   5.766 -3.1218  0.6555 -1.5853
   28MOL   H124 8818   2.042   1.045   5.872  0.1584  2.6845 -0.3989
   28MOL   H125 8819   1.956   1.178   5.727 -0.2553 -0.7248  0.2263
   28MOL   H126 8820   2.154   0.995   5.386 -0.1124 -0.2854  0.3496
   28MOL   H127 8821   2.257   0.842   5.560 -2.0271 -0.0722 -1.6684
   28MOL   H128 8822   2.338   0.981   5.946  1.5141  0.6894 -0.1297
   28MOL   H129 8823   2.420   0.828   5.949  1.6926 -0.7567 -1.9451
   28MOL   C130 8824   2.474   0.948   5.785  0.1824  0.2313  0.2469
   28MOL   C131 8825   2.504   1.091   5.805  0.4980 -1.0500 -0.0408
   28MOL   C132 8826   2.474   1.179   5.701 -0.0422 -1.0974 -0.9008
   28MOL   C133 8827   2.502   1.319   5.714  0.1972  0.4031  0.6483
   28MOL   C134 8828   2.555   1.369   5.827  0.5417  0.3442 -0.6016
   28MOL   F135 8829   2.579   1.497   5.846  0.2265  0.1180  0.1464
   28MOL   C136 8830   2.584   1.279   5.933 -0.4114 -0.3654  0.1331
   28MOL   C137 8831   2.557   1.145   5.926  0.3089  0.3331 -0.0672
   28MOL   C138 8832   2.608   0.876   5.793 -0.4764 -0.1540  0.1473
   28MOL   H139 8833   2.443   0.938   5.681 -2.2060  0.2864  0.9424
   28MOL   H140 8834   2.428   1.136   5.613 -2.7986  1.1525 -0.6173
   28MOL   H141 8835   2.480   1.380   5.628 -1.5444 -1.2073 -0.0835
   28MOL   H142 8836   2.620   1.319   6.027 -1.3376  0.6708  0.0532
   28MOL   H143 8837   2.575   1.079   6.011 -0.0293  0.5801  0.1997
   28MOL   H144 8838   2.682   0.932   5.735 -0.4717  0.0870  0.3842
   28MOL   H145 8839   2.650   0.888   5.893 -0.7390  1.8196  0.0451
   28MOL   C146 8840   2.612   0.725   5.751  0.2407  0.3658  0.3823
   28MOL   C147 8841   2.563   0.694   5.604  0.3859 -0.2041 -0.3391
   28MOL   C148 8842   2.457   0.602   5.588 -0.0844 -0.0960  0.2959
   28MOL   C149 8843   2.414   0.562   5.465  0.5426  0.2725  0.1120
   28MOL   C150 8844   2.479   0.616   5.350 -0.2474 -0.4471 -0.3710
   28MOL   F151 8845   2.450   0.579   5.219 -0.2545  0.1864  0.0932
   28MOL   C152 8846   2.583   0.710   5.363 -0.4942  0.9510 -0.3904
   28MOL   C153 8847   2.624   0.748   5.490  0.2256 -0.0762  0.9593
   28MOL   C154 8848   2.759   0.681   5.766 -0.2409 -0.2058 -0.8600
   28MOL   H155 8849   2.544   0.670   5.815 -1.2833  1.7802  0.0007
   28MOL   H156 8850   2.415   0.560   5.678  0.0732 -0.3344  0.2571
   28MOL   H157 8851   2.349   0.476   5.451  1.0202 -0.1522  0.5201
   28MOL   H158 8852   2.637   0.748   5.277  3.4845 -0.0965  1.5464
   28MOL   H159 8853   2.708   0.815   5.504 -0.2411  0.3470  1.7317
   28MOL   H160 8854   2.781   0.591   5.708 -0.5324 -0.9096  0.1121
   28MOL   H161 8855   2.827   0.757   5.727  1.1649 -1.3335 -0.6454
   28MOL   C162 8856   2.808   0.649   5.913  0.6520  0.7207  0.4355
   28MOL   C163 8857   2.750   0.521   5.972  0.3824 -0.1240  0.3293
   28MOL   C164 8858   2.663   0.525   6.080  0.1092  0.0511 -0.1850
   28MOL   C165 8859   2.618   0.406   6.135  0.1584 -0.8667  0.2350
   28MOL   C166 8860   2.658   0.282   6.076 -0.2846  0.1693  0.1920
   28MOL   F167 8861   2.633   0.170   6.144 -0.0126 -0.1942 -0.1106
   28MOL   C168 8862   2.734   0.281   5.958  0.4002  0.1862  0.4350
   28MOL   C169 8863   2.782   0.400   5.910 -0.2819 -0.5936 -0.4813
   28MOL   C170 8864   2.960   0.644   5.925 -0.3703 -0.2840 -0.1943
   28MOL   H171 8865   2.768   0.732   5.972 -0.3808  0.3498  0.2625
   28MOL   H172 8866   2.618   0.616   6.118 -0.2631 -0.0656 -0.3387
   28MOL   H173 8867   2.549   0.402   6.218 -0.3206 -1.3619 -0.1905
   28MOL   H174 8868   2.747   0.194   5.895 -0.4665  0.0276  0.4688
   28MOL   H175 8869   2.851   0.398   5.827  0.6358  0.6549  0.2190
   28MOL   H176 8870   3.000   0.550   5.886 -0.9599 -0.4504 -0.4068
   28MOL   H177 8871   3.003   0.717   5.856 -2.1871  1.8777  0.9069
   28MOL   C178 8872   3.023   0.698   6.056 -1.1332 -0.3434  0.1956
   28MOL   C179 8873   2.974   0.615   6.178  0.2214 -0.7997  0.6055
   28MOL   C180 8874   2.903   0.677   6.290 -1.0801  0.2566  0.1200
   28MOL   C181 8875   2.848   0.594   6.387  0.3558  0.1381 -0.2865
   28MOL   C182 8876   2.865   0.454   6.385 -0.1134  0.0017  0.0607
   28MOL   F183 8877   2.809   0.378   6.480  0.0152  0.5852  0.1220
   28MOL   C184 8878   2.944   0.392   6.282  0.4082  0.3523 -0.4876
   28MOL   C185 8879   2.998   0.476   6.183  0.4542  0.0028 -0.0975
   28MOL   C186 8880   3.181   0.699   6.057  0.4800  0.5520 -0.1140
   28MOL   H187 8881   2.988   0.800   6.064  0.8131  0.6856 -3.2577
   28MOL   H188 8882   2.870   0.780   6.291 -0.1394  0.5743 -0.7537
   28MOL   H189 8883   2.770   0.637   6.449  1.5499  1.2374  0.4861
   28MOL   H190 8884   2.955   0.285   6.278 -2.4099 -0.0283  0.8745
   28MOL   H191 8885   3.041   0.431   6.095 -0.4928 -1.4696  0.1836
   28MOL   H192 8886   3.216   0.595   6.060  2.3647  1.1122 -1.8115
   28MOL   H193 8887   3.219   0.744   5.965 -0.5641  0.2745 -0.6865
   28MOL   C194 8888   3.235   0.782   6.176  0.0344 -0.1539  0.5543
   28MOL   C195 8889   3.382   0.740   6.199  0.1487  0.4553  0.1328
   28MOL   C196 8890   3.423   0.669   6.314  0.2339  0.4101  0.0696
   28MOL   C197 8891   3.559   0.641   6.341  0.2598 -0.0305  0.6872
   28MOL   C198 8892   3.658   0.702   6.258 -0.2078  0.7580 -0.3380
   28MOL   F199 8893   3.791   0.676   6.282  0.2803  0.3405 -0.4253
   28MOL   C200 8894   3.624   0.787   6.159  0.3157 -0.8344  0.7070
   28MOL   C201 8895   3.486   0.799   6.124 -0.3917  0.7046 -0.4691
   28MOL   C202 8896   3.217   0.940   6.159  0.2999  0.4649 -0.3578
   28MOL   H203 8897   3.177   0.758   6.265 -0.9280  0.7236  0.1728
   28MOL   H204 8898   3.343   0.631   6.377  0.0228 -1.7128 -1.4261
   28MOL   H205 8899   3.586   0.567   6.415 -1.0874 -0.1358  1.0909
   28MOL   H206 8900   3.692   0.853   6.109 -2.1244  0.5638 -0.9056
   28MOL   H207 8901   3.462   0.871   6.047 -0.9317 -0.0837 -1.0458
   28MOL   H208 8902   3.256   0.962   6.060  0.7526 -2.6643 -0.9269
   28MOL   H209 8903   3.112   0.971   6.162 -0.3060 -1.5866  1.4952
   28MOL   C210 8904   3.290   1.025   6.266  0.6064 -0.7026 -0.5560
   28MOL   C211 8905   3.326   1.160   6.207  1.6392  0.1703 -0.2844
   28MOL   C212 8906   3.257   1.276   6.259 -0.1410 -0.7223 -0.8743
   28MOL   C213 8907   3.293   1.399   6.217 -0.4087 -0.1117  0.8878
   28MOL   C214 8908   3.385   1.414   6.113  0.0508  0.0875  0.7358
   28MOL   F215 8909   3.403   1.533   6.054  0.3041  0.3287 -0.1115
   28MOL   C216 8910   3.452   1.309   6.057  0.5964  0.6020  0.1111
   28MOL   C217 8911   3.424   1.181   6.109 -0.3960  0.3525 -0.3641
   28MOL   C218 8912   3.216   1.022   6.405 -0.1323 -0.0928 -0.3983
   28MOL   H219 8913   3.390   0.991   6.294  0.2063  0.1048  1.9440
   28MOL   H220 8914   3.185   1.275   6.339 -0.9571 -1.0003 -1.6014
   28MOL   H221 8915   3.245   1.487   6.255  0.5817  0.6068  0.4960
   28MOL   H222 8916   3.512   1.330   5.969  1.1505 -2.2619 -0.2559
   28MOL   H223 8917   3.473   1.093   6.071  1.9055  0.1617  2.7610
   28MOL   H224 8918   3.128   1.086   6.411 -0.2807 -0.3747  0.5532
   28MOL   H225 8919   3.169   0.925   6.421 -0.5724  0.4411  1.7015
   28MOL   C226 8920   3.312   1.042   6.530 -0.8533 -0.2565 -0.9972
   28MOL   C227 8921   3.358   1.184   6.539  0.1352 -0.5487 -0.4742
   28MOL   C228 8922   3.487   1.218   6.502 -0.3062  0.2519 -0.2775
   28MOL   C229 8923   3.545   1.343   6.536 -0.3653  0.5625 -0.2648
   28MOL   C230 8924   3.470   1.442   6.602  0.2203 -0.5058 -0.3037
   28MOL   F231 8925   3.534   1.557   6.628  0.0702 -0.2219  0.1655
   28MOL   C232 8926   3.333   1.414   6.629  0.1463 -0.0392 -0.3681
   28MOL   C233 8927   3.281   1.286   6.597  0.1434 -0.2810 -0.3287
   28MOL   C234 8928   3.226   1.006   6.649 -0.4020  0.2731 -0.5208
   28MOL   H235 8929   3.402   0.983   6.514 -0.6883 -0.9799  2.2395
   28MOL   H236 8930   3.545   1.140   6.454 -0.5105 -1.3437  1.9913
   28MOL   H237 8931   3.649   1.356   6.511 -0.7402 -0.4165 -2.4483
   28MOL   H238 8932   3.270   1.488   6.676  0.7753 -0.0371  0.5023
   28MOL   H239 8933   3.183   1.266   6.638  0.9118 -0.7927  1.3307
   28MOL   H240 8934   3.132   1.060   6.642 -1.0331 -0.9033 -1.3611
   28MOL   H241 8935   3.186   0.905   6.637 -2.4542  0.8877  0.8321
   28MOL   C242 8936   3.286   1.029   6.795  0.1701  0.5091  0.4817
   28MOL   C243 8937   3.182   1.097   6.883  0.3615  0.0611  0.5208
   28MOL   C244 8938   3.199   1.228   6.935  0.7782  0.4488 -0.1134
   28MOL   C245 8939   3.095   1.294   7.007  0.0539 -0.4933 -0.0170
   28MOL   C246 8940   2.976   1.224   7.033  1.6785 -0.0183 -0.1431
   28MOL   F247 8941   2.875   1.282   7.101  0.1207  0.0237  0.0127
   28MOL   C248 8942   2.955   1.094   6.973  0.4728 -0.3335  1.2662
   28MOL   C249 8943   3.061   1.024   6.909  0.2126  0.8168 -0.0462
   28MOL   C250 8944   3.347   0.905   6.870  0.4237 -0.6361  0.2689
   28MOL   H251 8945   3.377   1.088   6.784 -0.5660  1.0338 -3.1860
   28MOL   H252 8946   3.288   1.282   6.908  0.6029  0.3960 -0.8152
   28MOL   H253 8947   3.113   1.393   7.047 -1.3545  0.2863 -1.2352
   28MOL   H254 8948   2.854   1.057   6.984  0.5172 -0.9027 -0.0705
   28MOL   H255 8949   3.049   0.926   6.865  0.9163 -0.1916  1.9350
   28MOL   H256 8950   3.389   0.940   6.964  1.2228  0.8870 -0.6347
   28MOL   H257 8951   3.271   0.830   6.892 -1.5675  0.7638 -1.5371
   28MOL   C258 8952   3.463   0.833   6.794  0.1555 -0.1322 -0.1370
   28MOL   C259 8953   3.590   0.918   6.766  0.2078 -0.4098  0.2189
   28MOL   C260 8954   3.639   1.016   6.854  0.4481 -0.4174 -0.3492
   28MOL   C261 8955   3.748   1.096   6.818  0.1481  0.0226 -0.5608
   28MOL   C262 8956   3.813   1.074   6.690  1.1347 -0.9271 -0.2435
   28MOL   F263 8957   3.921   1.145   6.649 -0.1828 -0.3941  0.2977
   28MOL   C264 8958   3.761   0.974   6.606 -0.3392  0.2754  0.1951
   28MOL   C265 8959   3.651   0.896   6.641  0.4012  0.4360 -1.6640
   28MOL   C266 8960   3.504   0.697   6.867  0.2298 -0.8304  0.1231
   28MOL   H267 8961   3.426   0.808   6.694 -0.5496  0.5907 -0.0578
   28MOL   H268 8962   3.605   1.032   6.956 -1.1838  0.0309 -0.9512
   28MOL   H269 8963   3.788   1.164   6.891  2.9825  2.8611 -4.4872
   28MOL   H270 8964   3.795   0.967   6.504  1.9319 -2.7554  1.1041
   28MOL   H271 8965   3.617   0.832   6.561  0.1575 -0.1375 -1.1084
   28MOL   H272 8966   3.422   0.627   6.872  0.6391 -1.3281 -0.1386
   28MOL   H273 8967   3.569   0.637   6.805 -1.4109 -2.3085 -0.1835
   28MOL   C274 8968   3.559   0.698   7.016 -0.0040 -0.0670  0.1464
   28MOL   C275 8969   3.460   0.753   7.118  0.0501  0.1104 -0.1450
   28MOL   C276 8970   3.322   0.706   7.117  0.0195  0.2683 -0.4788
   28MOL   C277 8971   3.232   0.757   7.209  0.1867  0.2171 -0.0372
   28MOL   C278 8972   3.276   0.840   7.314 -0.2766 -0.4865 -0.6095
   28MOL   F279 8973   3.192   0.903   7.393  0.2486 -0.0456 -0.2194
   28MOL   C280 8974   3.414   0.879   7.322  0.6364  0.1132  0.7648
   28MOL   C281 8975   3.503   0.850   7.217  0.0142 -0.4485  0.8427
   28MOL   C282 8976   3.621   0.570   7.074 -0.9752 -0.2735  0.9931
   28MOL   H283 8977   3.627   0.782   7.033  0.1691 -0.1220 -0.2712
   28MOL   H284 8978   3.282   0.636   7.045  1.4086  0.2113 -1.2276
   28MOL   H285 8979   3.125   0.741   7.209 -0.0410  1.3456  2.8239
   28MOL   H286 8980   3.444   0.959   7.388 -0.7444  0.9733  0.3766
   28MOL   H287 8981   3.606   0.881   7.215 -0.1349 -0.0376 -0.6534
   28MOL   H288 8982   3.647   0.591   7.178 -0.5352 -0.3060  0.8886
   28MOL   H289 8983   3.542   0.495   7.083  0.1326 -1.6922 -0.7562
   28MOL   C290 8984   3.750   0.519   7.011 -0.1586  0.1954  0.2629
   28MOL   C291 8985   3.841   0.626   6.964 -0.1256  0.3006 -0.5896
   28MOL   C292 8986   3.849   0.661   6.827 -0.4475 -0.6120  0.1290
   28MOL   C293 8987   3.939   0.763   6.792  0.4311  0.0056  0.3001
   28MOL   C294 8988   4.005   0.832   6.892  0.4567  0.3452  0.9056
   28MOL   F295 8989   4.083   0.937   6.860 -0.6477  0.0882  0.2470
   28MOL   C296 8990   3.992   0.802   7.030 -0.2568  0.4983  0.4982
   28MOL   C297 8991   3.910   0.697   7.067 -0.4070 -0.2832 -0.0203
   28MOL   C298 8992   3.827   0.418   7.100 -0.1306 -0.3617 -0.8454
   28MOL   H299 8993   3.711   0.476   6.918 -1.7176  1.9747  0.0764
   28MOL   H300 8994   3.799   0.611   6.745  1.4545  0.4878 -1.7261
   28MOL   H301 8995   3.943   0.804   6.693 -2.0418  1.6088  0.8097
   28MOL   H302 8996   4.051   0.857   7.102  1.7462  1.7404 -2.0157
   28MOL   H303 8997   3.888   0.692   7.172 -3.7026 -1.5966 -0.6922
   28MOL   H304 8998   3.881   0.474   7.176 -0.8880 -1.6155  0.6570
   28MOL   H305 8999   3.755   0.354   7.151  0.2607 -1.9264 -2.1890
   28MOL   C306 9000   3.920   0.326   7.026  0.0949  0.0599  0.1835
   28MOL   C307 9001   4.030   0.277   7.117 -0.1972 -1.1563  0.0660
   28MOL   C308 9002   4.013   0.157   7.188  0.6220 -0.3819  0.7213
   28MOL   C309 9003   4.108   0.118   7.278 -0.9083  0.7976 -0.2648
   28MOL   C310 9004   4.229   0.193   7.302 -0.3381 -0.1697 -0.0501
   28MOL   F311 9005   4.315   0.151   7.389 -0.5830 -0.4292  0.3492
   28MOL   C312 9006   4.251   0.307   7.223  0.6790 -1.1895 -0.0407
   28MOL   C313 9007   4.147   0.349   7.135 -0.0800 -0.0641 -0.4253
   28MOL   C314 9008   3.842   0.211   6.949 -0.3956  0.0041  0.0370
   28MOL   H315 9009   3.972   0.391   6.955 -1.2780  3.4932  2.2249
   28MOL   H316 9010   3.933   0.088   7.163 -0.0259  0.7028 -0.2516
   28MOL   H317 9011   4.098   0.017   7.316 -0.8101  0.4889 -1.0418
   28MOL   H318 9012   4.340   0.365   7.240 -0.9800  1.5848 -0.5276
   28MOL   H319 9013   4.161   0.438   7.075 -1.0049 -1.2062 -2.3838
   28MOL   H320 9014   3.762   0.253   6.889 -1.4867  0.4516  1.7582
   28MOL   H321 9015   3.899   0.145   6.884 -0.5019 -0.9301  0.8659
   28MOL   H322 9016   3.797   0.140   7.019  0.0766 -1.3502 -1.0171
   29MOL     C1 9017   1.552   0.521   1.691 -0.0371  0.6063  0.0242
   29MOL     C2 9018   1.574   0.529   1.837  0.2115  0.0145 -0.5578
   29MOL     C3 9019   1.708   0.498   1.871  0.3141 -0.5356  0.2404
   29MOL     C4 9020   1.739   0.489   2.006 -0.1853 -0.0279 -0.1948
   29MOL     C5 9021   1.641   0.526   2.099 -0.5186 -0.1078  0.7939
   29MOL     F6 9022   1.680   0.527   2.229 -0.0633 -0.2090 -0.1351
   29MOL     C7 9023   1.509   0.569   2.069 -0.2515 -0.1195  0.4477
   29MOL     C8 9024   1.479   0.569   1.929  0.5915  0.1422 -0.9690
   29MOL     C9 9025   1.606   0.648   1.610 -0.3625  1.1049 -0.3226
   29MOL    H10 9026   1.443   0.521   1.688 -0.0475  0.7496  0.4367
   29MOL    H11 9027   1.782   0.464   1.800 -0.0313 -0.3381 -0.2123
   29MOL    H12 9028   1.839   0.458   2.033 -0.4507 -0.9498 -0.2596
   29MOL    H13 9029   1.440   0.584   2.151  0.9470 -0.1441  1.4783
   29MOL    H14 9030   1.377   0.583   1.898 -0.5523 -0.7620  2.1260
   29MOL    H15 9031   1.710   0.630   1.584 -0.5729 -0.2878 -0.2405
   29MOL    H16 9032   1.557   0.646   1.513  0.7030 -2.1395 -0.8463
   29MOL    H17 9033   1.588   0.425   1.654  1.7305  1.3232 -0.1422
   29MOL    C18 9034   1.599   0.794   1.673 -0.5260  0.3572  0.2002
   29MOL    C19 9035   1.703   0.886   1.612  0.2522 -0.8651 -0.0179
   29MOL    C20 9036   1.686   0.946   1.484  0.0766 -0.0344 -0.6135
   29MOL    C21 9037   1.783   1.035   1.433 -0.0463  0.7545 -0.5621
   29MOL    C22 9038   1.903   1.063   1.504  0.6572 -0.0180  0.0156
   29MOL    F23 9039   1.992   1.162   1.462  0.1526 -0.0366  0.2749
   29MOL    C24 9040   1.917   1.012   1.633 -0.4825 -0.6199  0.2620
   29MOL    C25 9041   1.826   0.915   1.681  0.6189  0.4683  0.4668
   29MOL    C26 9042   1.460   0.857   1.666 -0.1578 -0.5739 -0.0768
   29MOL    H27 9043   1.622   0.771   1.777 -0.0881  1.8036  0.4232
   29MOL    H28 9044   1.598   0.928   1.424 -0.2128  1.8340 -0.7666
   29MOL    H29 9045   1.759   1.093   1.345  1.1523 -0.0194 -1.4157
   29MOL    H30 9046   2.004   1.030   1.695 -0.1105 -2.0896  0.1998
   29MOL    H31 9047   1.847   0.865   1.774 -1.4540  0.5731  1.0213
   29MOL    H32 9048   1.441   0.890   1.564 -0.7823 -0.8895 -0.0654
   29MOL    H33 9049   1.382   0.782   1.681  0.2527 -1.0095 -0.1009
   29MOL    C34 9050   1.439   0.994   1.738  0.2728  0.4245  0.0356
   29MOL    C35 9051   1.297   1.045   1.700 -0.2268  0.4133 -0.2976
   29MOL    C36 9052   1.180   0.977   1.751 -0.3400 -0.0590 -0.2189
   29MOL    C37 9053   1.052   1.021   1.724  0.5670  0.3385  0.6358
   29MOL    C38 9054   1.031   1.141   1.656 -0.0400  0.2748 -0.0190
   29MOL    F39 9055   0.907   1.186   1.627  0.4590 -0.7501 -0.3170
   29MOL    C40 9056   1.146   1.209   1.600 -0.0951  0.3431  0.6989
   29MOL    C41 9057   1.278   1.156   1.618 -0.0209  0.0249  0.4845
   29MOL    C42 9058   1.446   0.975   1.889 -0.0796  0.2575 -0.2627
   29MOL    H43 9059   1.512   1.067   1.702  0.9089  0.8721  2.1144
   29MOL    H44 9060   1.179   0.896   1.822 -0.3666  1.2713  1.3339
   29MOL    H45 9061   0.967   0.977   1.773 -0.2447 -0.0996 -1.1210
   29MOL    H46 9062   1.123   1.306   1.557 -1.4610  0.4465  1.6167
   29MOL    H47 9063   1.359   1.223   1.592  0.8734 -1.5428 -0.7989
   29MOL    H48 9064   1.372   0.904   1.926 -0.7595  1.9309  1.6560
   29MOL    H49 9065   1.546   0.937   1.909  0.1822  0.6259 -0.8500
   29MOL    C50 9066   1.420   1.108   1.965  0.6702 -0.1545 -0.1856
   29MOL    C51 9067   1.319   1.083   2.076 -0.3472 -0.2327 -0.4083
   29MOL    C52 9068   1.180   1.107   2.045 -0.0922 -0.1383  0.3148
   29MOL    C53 9069   1.078   1.083   2.139  0.3723  0.0362  0.0137
   29MOL    C54 9070   1.113   1.018   2.259 -0.2022  0.0024 -0.2652
   29MOL    F55 9071   1.021   0.977   2.347  0.2237 -0.4974  0.2878
   29MOL    C56 9072   1.253   0.988   2.285 -0.2540 -0.0942  0.2487
   29MOL    C57 9073   1.355   1.016   2.189  0.1520  0.4245  0.2972
   29MOL    C58 9074   1.545   1.188   2.019  0.3715  0.1305 -0.5778
   29MOL    H59 9075   1.371   1.176   1.895 -0.3312 -0.1789  0.4728
   29MOL    H60 9076   1.157   1.153   1.950 -2.5672  0.4018  1.1430
   29MOL    H61 9077   0.975   1.108   2.121  0.6209  0.2684 -1.1072
   29MOL    H62 9078   1.279   0.932   2.373  0.1203 -0.9256 -0.3749
   29MOL    H63 9079   1.454   0.973   2.200  0.1864  0.3560 -0.2704
   29MOL    H64 9080   1.503   1.274   2.071 -0.1236 -1.4056  1.5761
   29MOL    H65 9081   1.588   1.133   2.102 -0.3758  1.1379  0.5013
   29MOL    C66 9082   1.662   1.234   1.921  0.3575  0.3674 -0.2234
   29MOL    C67 9083   1.601   1.307   1.802 -0.4743 -0.1974  0.4011
   29MOL    C68 9084   1.505   1.416   1.824 -0.0611 -0.1979 -0.1686
   29MOL    C69 9085   1.472   1.501   1.719  0.5458  0.4172  0.5678
   29MOL    C70 9086   1.526   1.477   1.593  0.4174  0.1371  0.2299
   29MOL    F71 9087   1.488   1.557   1.489 -0.7861  0.1107 -0.2823
   29MOL    C72 9088   1.617   1.365   1.572  0.0757 -0.9417  0.3013
   29MOL    C73 9089   1.654   1.283   1.678  0.4367 -0.4765 -0.3100
   29MOL    C74 9090   1.770   1.319   1.987  0.6524  0.2272 -0.1411
   29MOL    H75 9091   1.701   1.137   1.890 -0.0205  0.0360  0.3314
   29MOL    H76 9092   1.465   1.437   1.922  1.9482  1.2071  0.3840
   29MOL    H77 9093   1.408   1.587   1.731  1.0862  1.0160 -0.6604
   29MOL    H78 9094   1.664   1.342   1.477  0.8893 -1.3980  0.8149
   29MOL    H79 9095   1.739   1.219   1.660  0.0747 -1.0386 -0.0647
   29MOL    H80 9096   1.854   1.347   1.924 -0.8381  2.7673 -1.0361
   29MOL    H81 9097   1.724   1.413   2.017 -0.3164  0.1283 -1.3075
   29MOL    C82 9098   1.833   1.263   2.126  0.4018  0.2865 -0.0640
   29MOL    C83 9099   1.873   1.116   2.108  0.9268 -0.1902 -0.2584
   29MOL    C84 9100   1.827   1.025   2.210 -0.1500  0.4424 -0.2527
   29MOL    C85 9101   1.862   0.891   2.198 -0.0745  0.9235 -0.8963
   29MOL    C86 9102   1.944   0.842   2.092 -0.5443  0.7712  0.6935
   29MOL    F87 9103   1.966   0.714   2.085 -0.2113  0.0555 -0.4535
   29MOL    C88 9104   1.983   0.937   1.987  0.2016  0.1965  0.3347
   29MOL    C89 9105   1.952   1.071   2.001 -0.3006  0.1155 -0.6022
   29MOL    C90 9106   1.957   1.338   2.173  0.4318  0.2803 -0.1361
   29MOL    H91 9107   1.753   1.271   2.199 -0.0056 -1.6453 -0.2672
   29MOL    H92 9108   1.775   1.058   2.299 -0.3777  2.0897 -0.9812
   29MOL    H93 9109   1.827   0.823   2.274 -0.6903  0.0734 -1.9246
   29MOL    H94 9110   2.036   0.906   1.899 -0.1419 -1.6579  0.7623
   29MOL    H95 9111   1.985   1.142   1.927  1.9579 -0.0880  0.1723
   29MOL    H96 9112   1.996   1.290   2.263  0.8930  0.8599 -0.0279
   29MOL    H97 9113   2.035   1.336   2.097  0.1597  2.3394 -0.4816
   29MOL    C98 9114   1.934   1.481   2.226  0.1694 -0.8668 -0.8151
   29MOL    C99 9115   1.794   1.504   2.281 -0.0848 -0.2834  0.0662
   29MOL   C100 9116   1.743   1.465   2.409 -0.7072  0.3224  0.5327
   29MOL   C101 9117   1.619   1.510   2.453 -0.1345 -0.2928 -0.0925
   29MOL   C102 9118   1.541   1.597   2.375 -0.7160 -0.0033  0.1303
   29MOL   F103 9119   1.422   1.649   2.420  0.1260 -0.4443  0.3880
   29MOL   C104 9120   1.591   1.645   2.250  0.3868 -0.0424  0.2905
   29MOL   C105 9121   1.710   1.587   2.199 -0.1257  0.0463  0.3515
   29MOL   C106 9122   2.033   1.528   2.330 -0.2002 -0.2824  0.1824
   29MOL   H107 9123   1.955   1.558   2.152  2.0990  1.5502  2.1160
   29MOL   H108 9124   1.809   1.402   2.468 -0.9000 -2.0518 -1.6784
   29MOL   H109 9125   1.579   1.482   2.550 -0.4824 -1.2615 -0.5187
   29MOL   H110 9126   1.537   1.717   2.191 -0.7753 -1.5017 -0.4630
   29MOL   H111 9127   1.749   1.627   2.107 -0.4581  2.7040  1.3061
   29MOL   H112 9128   2.001   1.628   2.358 -2.1301 -0.8210 -0.0273
   29MOL   H113 9129   2.031   1.465   2.419 -3.0176  2.4830  2.1837
   29MOL   C114 9130   2.179   1.549   2.274  0.0605 -0.6088 -0.0414
   29MOL   C115 9131   2.187   1.663   2.168 -0.0239  0.9088  0.5978
   29MOL   C116 9132   2.228   1.627   2.038  1.0932  0.2059  0.5656
   29MOL   C117 9133   2.208   1.721   1.929  0.4726  0.3973 -0.4585
   29MOL   C118 9134   2.148   1.844   1.953  0.5823 -0.3520 -0.4970
   29MOL   F119 9135   2.126   1.936   1.859 -0.3356 -0.0423  0.3669
   29MOL   C120 9136   2.127   1.881   2.087 -0.1351 -0.2097 -0.0616
   29MOL   C121 9137   2.152   1.794   2.193  0.4657  0.3253 -0.1289
   29MOL   C122 9138   2.288   1.561   2.386  0.1448 -0.7935  0.6376
   29MOL   H123 9139   2.211   1.461   2.217  1.4688  0.9829 -1.7951
   29MOL   H124 9140   2.267   1.529   2.016 -0.3033 -0.5891  1.5435
   29MOL   H125 9141   2.231   1.677   1.833  0.7211 -0.2274 -0.1148
   29MOL   H126 9142   2.102   1.984   2.108 -0.9374 -0.5691  0.7772
   29MOL   H127 9143   2.142   1.829   2.295 -2.7716  1.1105 -0.6528
   29MOL   H128 9144   2.244   1.646   2.440  0.3384  0.3483 -0.9595
   29MOL   H129 9145   2.295   1.477   2.454  0.8821  0.4425  2.1310
   29MOL   C130 9146   2.433   1.597   2.337 -0.0582  0.1841 -0.6653
   29MOL   C131 9147   2.494   1.691   2.444 -0.2677  0.0158  0.1498
   29MOL   C132 9148   2.548   1.814   2.402 -0.6144 -0.0048  0.9086
   29MOL   C133 9149   2.587   1.905   2.503 -0.1239 -0.9081  0.3836
   29MOL   C134 9150   2.584   1.868   2.635  0.1200 -0.1980 -0.4086
   29MOL   F135 9151   2.614   1.956   2.723  0.1355 -0.4242  0.4510
   29MOL   C136 9152   2.549   1.738   2.681 -0.5906 -0.0020  0.7359
   29MOL   C137 9153   2.507   1.648   2.581  0.6465  0.3076  0.4852
   29MOL   C138 9154   2.512   1.470   2.295 -0.0746  0.0955 -0.2159
   29MOL   H139 9155   2.412   1.659   2.251 -2.6242 -0.7195 -0.7356
   29MOL   H140 9156   2.552   1.845   2.299 -0.2745  0.5078  1.0708
   29MOL   H141 9157   2.625   2.002   2.473 -1.6766 -0.4734 -0.2489
   29MOL   H142 9158   2.542   1.713   2.786  0.5389 -0.0976  0.7945
   29MOL   H143 9159   2.478   1.547   2.606  1.9293 -0.6190 -1.6458
   29MOL   H144 9160   2.552   1.412   2.378  2.2198 -1.4327 -2.3202
   29MOL   H145 9161   2.438   1.407   2.244 -1.6116 -0.4469  2.5860
   29MOL   C146 9162   2.623   1.490   2.188 -0.0240 -0.5316 -0.9118
   29MOL   C147 9163   2.719   1.602   2.214 -0.4733 -0.1818 -0.5394
   29MOL   C148 9164   2.718   1.723   2.144 -0.0394  0.3305  0.2624
   29MOL   C149 9165   2.798   1.834   2.177  0.1843  0.1159  1.1254
   29MOL   C150 9166   2.902   1.813   2.275 -0.5042  0.4442 -0.4821
   29MOL   F151 9167   2.978   1.913   2.314  0.1502  0.2607 -0.0227
   29MOL   C152 9168   2.910   1.691   2.348 -0.4522  0.5148  0.2133
   29MOL   C153 9169   2.819   1.586   2.314 -0.3994 -0.1298 -0.3079
   29MOL   C154 9170   2.695   1.363   2.146 -0.2878 -0.4402  0.0994
   29MOL   H155 9171   2.570   1.526   2.100 -0.4451 -0.7832 -0.7653
   29MOL   H156 9172   2.641   1.732   2.068 -2.1129 -0.7723  2.1903
   29MOL   H157 9173   2.787   1.927   2.123  0.9661  0.9070  2.2902
   29MOL   H158 9174   2.984   1.673   2.425 -2.7742 -1.8395  1.9863
   29MOL   H159 9175   2.827   1.493   2.368  0.4230 -1.0750 -2.0198
   29MOL   H160 9176   2.784   1.384   2.087 -0.4865 -0.6849 -0.2959
   29MOL   H161 9177   2.745   1.314   2.230 -1.1764 -0.6338  0.5253
   29MOL   C162 9178   2.614   1.265   2.055  0.7560 -0.3908 -0.2548
   29MOL   C163 9179   2.533   1.324   1.937  0.6520 -0.2431 -0.3059
   29MOL   C164 9180   2.582   1.425   1.860 -0.0816 -0.0649  0.2925
   29MOL   C165 9181   2.511   1.482   1.754  0.1940  0.3057 -0.0544
   29MOL   C166 9182   2.379   1.437   1.731  0.2016  0.5033 -0.5270
   29MOL   F167 9183   2.306   1.496   1.632 -0.0069 -0.2190 -0.6075
   29MOL   C168 9184   2.328   1.333   1.811 -0.7420 -0.4380 -0.7324
   29MOL   C169 9185   2.404   1.272   1.913 -0.8397  0.3568 -1.0147
   29MOL   C170 9186   2.714   1.149   2.013  0.9570 -0.3958 -0.5356
   29MOL   H171 9187   2.539   1.234   2.127 -0.0593 -3.0461 -2.1725
   29MOL   H172 9188   2.685   1.449   1.882 -0.3972 -0.5713  2.4330
   29MOL   H173 9189   2.560   1.558   1.694 -0.7040  0.2403 -0.8913
   29MOL   H174 9190   2.232   1.292   1.783  0.2120 -1.7249 -2.2401
   29MOL   H175 9191   2.364   1.198   1.981  0.7773  0.7256  0.3771
   29MOL   H176 9192   2.752   1.107   2.106 -0.1668 -0.4502 -0.0904
   29MOL   H177 9193   2.649   1.070   1.977 -0.1498 -0.3182  1.2514
   29MOL   C178 9194   2.834   1.185   1.915  0.1307 -0.0156  0.5264
   29MOL   C179 9195   2.957   1.246   1.976  0.4778 -0.8847  0.4506
   29MOL   C180 9196   3.009   1.368   1.925 -0.1688  0.6192 -0.4762
   29MOL   C181 9197   3.114   1.425   1.998  0.2347  0.2539  0.5464
   29MOL   C182 9198   3.172   1.366   2.112 -0.3090  0.4696  0.4867
   29MOL   F183 9199   3.275   1.428   2.177 -0.1242  0.4825  0.1623
   29MOL   C184 9200   3.122   1.243   2.152  0.1144  0.2515 -0.3736
   29MOL   C185 9201   3.020   1.180   2.085  0.8138  0.4227  0.4824
   29MOL   C186 9202   2.880   1.076   1.816  0.9975  0.1117  0.1954
   29MOL   H187 9203   2.797   1.265   1.851  2.1309  0.8774  0.4333
   29MOL   H188 9204   2.961   1.416   1.841 -2.3544 -0.7406 -0.0726
   29MOL   H189 9205   3.166   1.517   1.971 -0.6278  0.3288 -0.8989
   29MOL   H190 9206   3.167   1.194   2.237 -3.0442 -2.2500 -0.0566
   29MOL   H191 9207   2.989   1.079   2.110 -0.4606  0.3522 -1.3131
   29MOL   H192 9208   2.958   1.113   1.749  2.3794 -0.7975  1.2838
   29MOL   H193 9209   2.930   0.999   1.874 -0.5496 -1.6199 -0.6999
   29MOL   C194 9210   2.764   1.022   1.728  0.7457  0.7919  0.3057
   29MOL   C195 9211   2.689   1.124   1.642 -0.2019  0.9638 -0.7190
   29MOL   C196 9212   2.554   1.113   1.622 -0.8563  0.3677  0.7833
   29MOL   C197 9213   2.483   1.199   1.538 -0.2850 -0.6350  0.1084
   29MOL   C198 9214   2.553   1.307   1.478 -0.2873  0.0553  0.6523
   29MOL   F199 9215   2.491   1.385   1.392  0.0946  0.0313  0.0155
   29MOL   C200 9216   2.689   1.324   1.502 -0.1324  0.8510 -0.4906
   29MOL   C201 9217   2.761   1.228   1.578  0.5436 -0.6136 -0.3781
   29MOL   C202 9218   2.813   0.912   1.627  0.4722  0.0923 -0.4200
   29MOL   H203 9219   2.691   0.971   1.791 -1.2646  0.6854 -2.0385
   29MOL   H204 9220   2.510   1.029   1.674  1.0319 -0.4061  1.1713
   29MOL   H205 9221   2.379   1.178   1.515 -0.5705  0.6666  0.2003
   29MOL   H206 9222   2.735   1.414   1.463 -0.1888  2.6510  3.3480
   29MOL   H207 9223   2.868   1.240   1.588  0.4742 -0.1536 -0.2051
   29MOL   H208 9224   2.737   0.884   1.553  1.4517 -0.4395 -1.2373
   29MOL   H209 9225   2.885   0.953   1.556 -1.2085  3.4424 -0.2876
   29MOL   C210 9226   2.868   0.790   1.694  0.0422 -0.9106  0.2704
   29MOL   C211 9227   2.766   0.728   1.786  0.3575  0.2433 -0.0012
   29MOL   C212 9228   2.634   0.704   1.738  0.2472 -0.2048 -0.5579
   29MOL   C213 9229   2.527   0.658   1.810 -0.0418 -0.0270 -0.4497
   29MOL   C214 9230   2.558   0.623   1.945  0.1532 -0.2381 -0.1320
   29MOL   F215 9231   2.458   0.578   2.030 -0.0702 -0.5349 -0.1617
   29MOL   C216 9232   2.691   0.634   2.001  0.8792 -0.0102 -0.4452
   29MOL   C217 9233   2.799   0.683   1.918  0.1687  0.0391  0.1623
   29MOL   C218 9234   2.929   0.701   1.590  0.3944  0.7147  0.0568
   29MOL   H219 9235   2.954   0.819   1.755  0.1391  0.1442 -0.3522
   29MOL   H220 9236   2.606   0.724   1.636 -0.8083 -1.4030 -0.5101
   29MOL   H221 9237   2.427   0.654   1.771 -0.5196  2.7203  0.3794
   29MOL   H222 9238   2.713   0.612   2.104 -0.4892  1.5166  0.1860
   29MOL   H223 9239   2.901   0.692   1.952  0.3616 -2.8825  0.4646
   29MOL   H224 9240   2.853   0.652   1.528 -0.0901  0.1116  1.1101
   29MOL   H225 9241   2.988   0.762   1.522  1.0665 -1.1175 -1.0629
   29MOL   C226 9242   3.013   0.578   1.643 -0.2342  0.1178  0.0478
   29MOL   C227 9243   2.978   0.445   1.580 -0.0141  0.1386 -0.4530
   29MOL   C228 9244   2.915   0.350   1.657 -0.1308  1.0674  0.9831
   29MOL   C229 9245   2.885   0.223   1.594 -0.4417  0.4136  0.1634
   29MOL   C230 9246   2.920   0.195   1.458 -0.7167 -1.2792 -0.4251
   29MOL   F231 9247   2.889   0.074   1.397  0.0181 -0.2614  0.3210
   29MOL   C232 9248   2.977   0.301   1.383  0.0778 -0.0366 -0.3034
   29MOL   C233 9249   2.999   0.423   1.440 -0.4946  0.0202 -0.1766
   29MOL   C234 9250   3.169   0.584   1.637  0.1004  0.1761 -0.1967
   29MOL   H235 9251   2.998   0.546   1.746 -0.5247  1.6580  0.5011
   29MOL   H236 9252   2.902   0.363   1.763 -1.5913  1.8501  0.7203
   29MOL   H237 9253   2.837   0.144   1.649  0.7375 -1.3875 -1.3393
   29MOL   H238 9254   3.005   0.282   1.280 -0.9338 -0.9892 -0.4047
   29MOL   H239 9255   3.051   0.499   1.384 -0.5163  0.9592  1.0482
   29MOL   H240 9256   3.205   0.492   1.683 -1.9920  0.5231  2.2476
   29MOL   H241 9257   3.201   0.571   1.534  1.4828 -0.5813  0.3075
   29MOL   C242 9258   3.241   0.707   1.696  0.2949  0.0337  0.2712
   29MOL   C243 9259   3.253   0.700   1.846 -0.0187  0.2031 -0.3874
   29MOL   C244 9260   3.218   0.815   1.927  0.1007  0.4571 -0.0584
   29MOL   C245 9261   3.223   0.809   2.070  0.6581  0.4486  0.3017
   29MOL   C246 9262   3.281   0.687   2.126  0.4008 -0.0144  0.5097
   29MOL   F247 9263   3.296   0.679   2.263 -0.1046  0.4490  0.4773
   29MOL   C248 9264   3.309   0.575   2.050  0.3597 -0.0325 -0.5367
   29MOL   C249 9265   3.293   0.582   1.912  0.2833  0.0074  0.1296
   29MOL   C250 9266   3.373   0.750   1.620 -0.0967  0.4323 -0.4164
   29MOL   H251 9267   3.173   0.790   1.683 -0.6925 -1.0464 -1.7343
   29MOL   H252 9268   3.183   0.906   1.880 -1.0827  1.2319  2.2188
   29MOL   H253 9269   3.208   0.895   2.134  1.3777  0.8133 -0.0211
   29MOL   H254 9270   3.344   0.487   2.102 -1.7768 -0.8546 -0.4663
   29MOL   H255 9271   3.317   0.497   1.849 -0.1507 -0.7639  0.9958
   29MOL   H256 9272   3.441   0.807   1.683 -0.4758  0.1782  0.2328
   29MOL   H257 9273   3.418   0.651   1.612  1.2973  1.1243 -1.3940
   29MOL   C258 9274   3.347   0.818   1.482 -0.2737  0.5749 -0.5068
   29MOL   C259 9275   3.302   0.961   1.494  0.6602 -0.8876 -0.0323
   29MOL   C260 9276   3.386   1.066   1.535  0.4198 -0.3384 -0.2379
   29MOL   C261 9277   3.340   1.202   1.539  0.5245  0.3621 -0.0360
   29MOL   C262 9278   3.206   1.222   1.502  0.4004  0.4669 -0.9232
   29MOL   F263 9279   3.162   1.351   1.487  0.3464  0.3675  0.5445
   29MOL   C264 9280   3.119   1.118   1.461 -0.2126  0.0379 -0.6448
   29MOL   C265 9281   3.168   0.988   1.465  0.4986  0.0183  0.4910
   29MOL   C266 9282   3.462   0.797   1.381 -0.2565 -0.1098 -0.4186
   29MOL   H267 9283   3.263   0.761   1.442 -0.4139  1.1102 -0.9776
   29MOL   H268 9284   3.487   1.036   1.561 -0.5903 -2.2074  1.7047
   29MOL   H269 9285   3.415   1.271   1.574  1.8944 -0.8303 -0.5547
   29MOL   H270 9286   3.024   1.142   1.414 -0.2977 -0.2133 -0.6037
   29MOL   H271 9287   3.102   0.907   1.438 -0.5369  0.8730  0.4432
   29MOL   H272 9288   3.555   0.817   1.435 -0.4530 -1.3263  0.4005
   29MOL   H273 9289   3.464   0.694   1.347 -1.1400 -0.2306 -0.1289
   29MOL   C274 9290   3.454   0.887   1.251 -0.2443 -0.4053  0.4200
   29MOL   C275 9291   3.588   0.887   1.179  0.2540 -0.2099 -0.3045
   29MOL   C276 9292   3.646   0.783   1.100  0.1396  0.5910 -0.2470
   29MOL   C277 9293   3.767   0.806   1.030 -0.9356 -0.5771 -0.4664
   29MOL   C278 9294   3.848   0.921   1.057 -0.3178  0.2464  1.4046
   29MOL   F279 9295   3.976   0.933   0.995  0.4864  0.5205  0.5181
   29MOL   C280 9296   3.795   1.023   1.137 -0.4202 -0.2908  0.3072
   29MOL   C281 9297   3.669   1.005   1.200  0.5569  0.5968  0.5707
   29MOL   C282 9298   3.333   0.855   1.162  0.0346  0.0141 -0.0740
   29MOL   H283 9299   3.450   0.988   1.291 -0.2180  0.8062 -2.5036
   29MOL   H284 9300   3.586   0.696   1.080  2.0319 -0.1150 -3.1718
   29MOL   H285 9301   3.814   0.732   0.967  1.6369  0.6359 -0.0416
   29MOL   H286 9302   3.852   1.111   1.163 -0.3567 -0.8219  2.0178
   29MOL   H287 9303   3.643   1.080   1.273 -0.0172  0.9008  0.0570
   29MOL   H288 9304   3.363   0.762   1.114  0.8877 -0.4873  1.4092
   29MOL   H289 9305   3.243   0.826   1.216  0.7413 -2.4148 -0.1126
   29MOL   C290 9306   3.294   0.954   1.057  0.1528 -0.4872 -0.3005
   29MOL   C291 9307   3.234   0.889   0.931  0.0140  0.2495  0.9551
   29MOL   C292 9308   3.323   0.824   0.844  0.1927 -0.4482  0.2081
   29MOL   C293 9309   3.281   0.755   0.726 -0.1250  0.8289  0.1426
   29MOL   C294 9310   3.147   0.766   0.694  0.1159 -0.2023 -0.1617
   29MOL   F295 9311   3.097   0.718   0.578 -0.4929 -0.0272 -0.1226
   29MOL   C296 9312   3.057   0.828   0.778 -0.2293 -0.3973  0.2746
   29MOL   C297 9313   3.097   0.896   0.897  0.4836 -0.1805 -0.4048
   29MOL   C298 9314   3.223   1.073   1.110  0.6142 -0.0784  0.2186
   29MOL   H299 9315   3.390   0.988   1.019  0.5210 -1.5091 -0.3003
   29MOL   H300 9316   3.427   0.816   0.872  0.3137  0.3687  0.0029
   29MOL   H301 9317   3.350   0.699   0.665 -0.5608 -2.9127  2.8905
   29MOL   H302 9318   2.956   0.829   0.741 -0.1606 -0.8030  0.0731
   29MOL   H303 9319   3.026   0.942   0.964 -0.5183 -0.4423 -1.2644
   29MOL   H304 9320   3.123   1.048   1.145  0.1322  1.7352  0.2310
   29MOL   H305 9321   3.276   1.109   1.198  0.3407  1.2097 -0.1239
   29MOL   C306 9322   3.210   1.192   1.010 -0.0946 -0.3002 -0.4703
   29MOL   C307 9323   3.098   1.290   1.049  0.2496 -0.1044 -0.5451
   29MOL   C308 9324   3.102   1.348   1.178  0.8547 -0.3010 -0.6792
   29MOL   C309 9325   2.993   1.435   1.215  0.0200 -0.1206 -0.6681
   29MOL   C310 9326   2.895   1.467   1.121  0.6030  0.9936 -0.3571
   29MOL   F311 9327   2.788   1.536   1.161 -0.0381 -0.3369  0.1429
   29MOL   C312 9328   2.893   1.406   0.997  0.1516 -0.1569  0.3308
   29MOL   C313 9329   2.993   1.317   0.957  0.3384 -1.4311  0.6920
   29MOL   C314 9330   3.342   1.265   0.995 -0.1867 -0.4294 -0.2901
   29MOL   H315 9331   3.190   1.155   0.909 -3.5874 -1.3437  0.5312
   29MOL   H316 9332   3.185   1.336   1.246  0.7982 -1.7712 -0.8666
   29MOL   H317 9333   2.992   1.475   1.316  0.4246 -2.6916  0.3935
   29MOL   H318 9334   2.810   1.419   0.929 -0.7138 -1.5505  1.1197
   29MOL   H319 9335   3.001   1.268   0.861  0.0303 -0.7469  0.3087
   29MOL   H320 9336   3.363   1.329   1.081  2.2050 -0.7457 -0.6144
   29MOL   H321 9337   3.424   1.196   0.977  0.0409 -0.1910 -0.1738
   29MOL   H322 9338   3.341   1.331   0.908 -2.4206  1.2713  0.9750
   30MOL     C1 9339   1.746   4.643   1.565  0.0613  0.5096  0.5828
   30MOL     C2 9340   1.778   4.704   1.430 -0.3257  0.4863  0.1979
   30MOL     C3 9341   1.818   4.841   1.416 -0.0339 -0.3569  0.8085
   30MOL     C4 9342   1.855   4.891   1.290 -0.2994 -0.1897 -0.3938
   30MOL     C5 9343   1.859   4.802   1.180  0.0156  0.5674  0.7480
   30MOL     F6 9344   1.885   4.860   1.062 -0.2307  0.0362  0.8518
   30MOL     C7 9345   1.827   4.664   1.184  0.0639  0.0083  0.1510
   30MOL     C8 9346   1.782   4.620   1.313  0.3910 -0.6762  0.3123
   30MOL     C9 9347   1.874   4.585   1.626  0.3235  0.2583 -0.1530
   30MOL    H10 9348   1.660   4.575   1.565  1.5762 -1.4219  0.2240
   30MOL    H11 9349   1.836   4.911   1.496 -3.8135  1.7523 -0.0589
   30MOL    H12 9350   1.887   4.993   1.282  1.1008 -0.7522 -2.1187
   30MOL    H13 9351   1.827   4.594   1.101 -0.7395  0.0869  0.0735
   30MOL    H14 9352   1.754   4.516   1.327  1.9853 -1.0997  0.5129
   30MOL    H15 9353   1.892   4.483   1.593  1.2303 -0.2483  1.8339
   30MOL    H16 9354   1.954   4.652   1.593  0.3504 -0.5420 -1.7537
   30MOL    H17 9355   1.704   4.716   1.636  2.6254 -0.2711  2.9881
   30MOL    C18 9356   1.889   4.572   1.777  0.1480 -0.8502 -0.3275
   30MOL    C19 9357   1.991   4.470   1.816 -0.7049 -0.5433  0.5084
   30MOL    C20 9358   2.116   4.452   1.754  0.0709 -0.0514 -0.6297
   30MOL    C21 9359   2.213   4.355   1.787  0.7297 -0.1163  0.9894
   30MOL    C22 9360   2.181   4.274   1.895 -0.0302  0.5883 -0.3621
   30MOL    F23 9361   2.271   4.181   1.944 -0.3736  0.2543 -0.4188
   30MOL    C24 9362   2.055   4.277   1.954 -0.8500 -0.3726  0.0227
   30MOL    C25 9363   1.965   4.374   1.915 -0.2091  0.0884 -0.3266
   30MOL    C26 9364   1.919   4.714   1.841  0.6591 -1.0507 -0.4901
   30MOL    H27 9365   1.798   4.523   1.811  0.0558 -2.2033 -2.4165
   30MOL    H28 9366   2.141   4.533   1.686 -0.2940  1.1222  0.6188
   30MOL    H29 9367   2.300   4.343   1.724 -0.5326 -1.3464 -0.5724
   30MOL    H30 9368   2.017   4.206   2.026  0.4844 -0.0065  1.1064
   30MOL    H31 9369   1.869   4.389   1.964 -0.8301  1.4293 -1.8962
   30MOL    H32 9370   2.019   4.712   1.885  0.2634 -0.0168  0.4810
   30MOL    H33 9371   1.911   4.796   1.770  0.3713  1.7327  2.6472
   30MOL    C34 9372   1.830   4.744   1.955  0.5204 -0.9053 -0.0983
   30MOL    C35 9373   1.891   4.859   2.033 -0.2848 -0.6241 -0.0968
   30MOL    C36 9374   1.916   4.834   2.169 -0.0422  0.1323  0.3278
   30MOL    C37 9375   1.986   4.924   2.251  0.5449  0.1770  0.2637
   30MOL    C38 9376   2.027   5.044   2.195 -0.1185 -0.4230 -0.3810
   30MOL    F39 9377   2.074   5.141   2.278 -0.3764 -0.6298 -0.0795
   30MOL    C40 9378   2.013   5.066   2.059 -0.1809  0.3924  0.6714
   30MOL    C41 9379   1.946   4.974   1.978  0.2824  0.0328  1.0293
   30MOL    C42 9380   1.687   4.781   1.912 -0.0864  0.4643  0.6164
   30MOL    H43 9381   1.826   4.657   2.020 -2.0873 -1.4998 -0.9793
   30MOL    H44 9382   1.876   4.743   2.210 -0.6666  1.1847  2.0925
   30MOL    H45 9383   2.005   4.889   2.351  1.2528 -0.1842  0.0102
   30MOL    H46 9384   2.041   5.167   2.031 -1.4019  0.5842  0.0816
   30MOL    H47 9385   1.937   4.979   1.871  0.5909 -3.6699  0.7725
   30MOL    H48 9386   1.686   4.866   1.844  0.8995  0.1478  0.2071
   30MOL    H49 9387   1.642   4.691   1.869  1.3511 -1.4422  2.9846
   30MOL    C50 9388   1.583   4.826   2.024  0.4307  0.8796  0.0266
   30MOL    C51 9389   1.460   4.875   1.946  0.2579 -0.8365 -0.5024
   30MOL    C52 9390   1.386   4.790   1.860  0.2152 -0.2131  0.0871
   30MOL    C53 9391   1.277   4.834   1.783  0.0941 -0.4654  0.4850
   30MOL    C54 9392   1.238   4.971   1.791  0.1912 -0.2061 -0.9425
   30MOL    F55 9393   1.128   5.018   1.718  0.6949 -0.3983 -0.6719
   30MOL    C56 9394   1.306   5.058   1.878  0.4682 -0.1230 -0.5667
   30MOL    C57 9395   1.414   5.007   1.959  0.3526  0.2249  0.5144
   30MOL    C58 9396   1.542   4.721   2.123 -0.0120  0.5053  0.1958
   30MOL    H59 9397   1.634   4.907   2.078  0.4965  0.1081  1.1427
   30MOL    H60 9398   1.413   4.686   1.850  0.4454 -0.2299  0.8307
   30MOL    H61 9399   1.219   4.763   1.726 -1.8942  1.2509  0.2869
   30MOL    H62 9400   1.261   5.156   1.880 -2.3288 -1.3462 -0.8213
   30MOL    H63 9401   1.469   5.078   2.019 -0.2618  0.3819  0.8938
   30MOL    H64 9402   1.504   4.641   2.061  1.3138  0.3941 -0.4898
   30MOL    H65 9403   1.625   4.670   2.172  1.2713  1.1429 -1.3048
   30MOL    C66 9404   1.441   4.755   2.236 -0.1617 -0.0301 -0.2738
   30MOL    C67 9405   1.387   4.622   2.297  0.1122 -0.3796  0.7421
   30MOL    C68 9406   1.477   4.544   2.371  0.1761 -0.3861  0.0133
   30MOL    C69 9407   1.431   4.422   2.421  0.6658  0.1055 -0.6295
   30MOL    C70 9408   1.299   4.376   2.404  0.0898  1.0793 -0.2153
   30MOL    F71 9409   1.261   4.257   2.447  0.4923 -0.4456 -0.1639
   30MOL    C72 9410   1.211   4.456   2.320  0.3989 -0.0313  0.0276
   30MOL    C73 9411   1.254   4.587   2.269 -0.1265  0.0336 -0.4394
   30MOL    C74 9412   1.497   4.855   2.342  0.4850 -0.4762  0.0432
   30MOL    H75 9413   1.362   4.799   2.176  0.1998  0.7617 -0.1753
   30MOL    H76 9414   1.579   4.575   2.391 -0.1154  1.1085 -0.6799
   30MOL    H77 9415   1.504   4.367   2.479  0.9554  0.8346 -0.2861
   30MOL    H78 9416   1.111   4.422   2.300  0.3853 -0.2711  0.4786
   30MOL    H79 9417   1.189   4.646   2.205 -1.3889 -1.0052 -0.1316
   30MOL    H80 9418   1.580   4.817   2.401 -0.5647  0.3031  2.0736
   30MOL    H81 9419   1.532   4.939   2.281 -2.3333  0.0125 -1.0095
   30MOL    C82 9420   1.404   4.921   2.449 -0.4027 -0.7835  0.7304
   30MOL    C83 9421   1.302   4.998   2.370  0.9049  0.1780  0.0150
   30MOL    C84 9422   1.179   4.946   2.337  0.5469 -0.4644  0.5641
   30MOL    C85 9423   1.087   5.019   2.258 -0.0786 -0.0030 -0.4639
   30MOL    C86 9424   1.119   5.144   2.212  0.4323 -0.3251 -0.7106
   30MOL    F87 9425   1.027   5.215   2.144 -0.1361 -0.6994 -0.1197
   30MOL    C88 9426   1.245   5.199   2.239  0.2174  0.1655 -0.4276
   30MOL    C89 9427   1.333   5.123   2.321  0.3311  0.4210 -0.6585
   30MOL    C90 9428   1.353   4.820   2.560 -0.1701 -0.4971 -0.0330
   30MOL    H91 9429   1.463   4.994   2.503  1.3965  0.2279 -2.4550
   30MOL    H92 9430   1.142   4.856   2.383  0.5451 -1.2758 -0.9944
   30MOL    H93 9431   0.986   4.985   2.242 -0.0337 -1.2779  1.7704
   30MOL    H94 9432   1.272   5.299   2.206 -1.4432  1.4047  1.8515
   30MOL    H95 9433   1.429   5.164   2.350  0.4335  0.4480 -1.0391
   30MOL    H96 9434   1.284   4.742   2.529 -2.5758  0.9026  1.6291
   30MOL    H97 9435   1.442   4.765   2.591  1.0162  1.2587 -0.2893
   30MOL    C98 9436   1.271   4.878   2.688  0.2610 -0.0108 -0.6114
   30MOL    C99 9437   1.140   4.958   2.660 -0.4431  0.6029 -0.1097
   30MOL   C100 9438   1.145   5.100   2.664  0.0791  0.1906  0.2154
   30MOL   C101 9439   1.033   5.169   2.626  0.3986  0.8775 -0.5877
   30MOL   C102 9440   0.917   5.097   2.584  0.1299  0.5354 -0.4380
   30MOL   F103 9441   0.814   5.163   2.536  0.4361 -0.3347  0.2484
   30MOL   C104 9442   0.912   4.957   2.589  0.0606  0.2012  0.3557
   30MOL   C105 9443   1.023   4.890   2.634 -0.5070 -0.5427 -0.0841
   30MOL   C106 9444   1.255   4.768   2.797  0.1962  0.0162  0.1815
   30MOL   H107 9445   1.328   4.953   2.742 -0.1627 -1.2483  1.5877
   30MOL   H108 9446   1.239   5.147   2.692 -0.5529  0.9425  1.1287
   30MOL   H109 9447   1.032   5.277   2.627 -1.1849  0.8628  0.5138
   30MOL   H110 9448   0.826   4.902   2.553  1.6058 -1.9689 -0.1407
   30MOL   H111 9449   1.015   4.782   2.632  1.3892 -0.6995 -3.5581
   30MOL   H112 9450   1.180   4.698   2.759 -0.0515 -0.9376  2.3428
   30MOL   H113 9451   1.342   4.704   2.806  0.5436  0.6682  1.5708
   30MOL   C114 9452   1.208   4.820   2.932  0.3228 -0.0861 -0.1449
   30MOL   C115 9453   1.154   4.698   3.018  0.9721 -0.2463  0.3002
   30MOL   C116 9454   1.019   4.666   3.021  0.8217  0.9896 -1.0122
   30MOL   C117 9455   0.979   4.573   3.118 -0.1714  0.3289 -0.0184
   30MOL   C118 9456   1.070   4.486   3.182 -0.1733  0.5352 -0.5007
   30MOL   F119 9457   1.018   4.403   3.278 -0.5049 -0.0783 -0.2040
   30MOL   C120 9458   1.205   4.499   3.151 -0.1188 -0.2346 -0.8040
   30MOL   C121 9459   1.246   4.611   3.078  0.6153 -0.1174  0.7757
   30MOL   C122 9460   1.326   4.890   3.003 -0.4270  0.6442 -0.3755
   30MOL   H123 9461   1.124   4.889   2.926 -0.8101 -1.6497 -3.5166
   30MOL   H124 9462   0.948   4.730   2.972 -0.5206  1.2402  1.1880
   30MOL   H125 9463   0.873   4.561   3.136  0.2526  0.2729  2.6379
   30MOL   H126 9464   1.286   4.439   3.191 -0.3337  1.2074  1.9405
   30MOL   H127 9465   1.350   4.631   3.057 -0.1588  1.1298 -2.0526
   30MOL   H128 9466   1.417   4.830   3.013 -0.1117  1.1713  0.0029
   30MOL   H129 9467   1.371   4.966   2.939  1.5871  0.2851  0.5537
   30MOL   C130 9468   1.307   4.929   3.150 -0.3864  0.6750 -0.8291
   30MOL   C131 9469   1.423   4.881   3.237  0.6298 -0.3902 -0.7438
   30MOL   C132 9470   1.411   4.784   3.331  0.0424 -0.6821 -0.9150
   30MOL   C133 9471   1.519   4.733   3.408 -0.1826 -0.4454  0.3418
   30MOL   C134 9472   1.647   4.783   3.383  0.0645 -0.5685  0.2373
   30MOL   F135 9473   1.752   4.731   3.454  0.1627 -0.7725  0.1428
   30MOL   C136 9474   1.662   4.885   3.285 -0.3490  0.6860  0.2602
   30MOL   C137 9475   1.550   4.934   3.213 -0.5299  0.3999 -0.4096
   30MOL   C138 9476   1.292   5.086   3.158 -0.4075 -0.5833 -0.3119
   30MOL   H139 9477   1.213   4.887   3.187  0.5768  0.7752  1.8012
   30MOL   H140 9478   1.311   4.744   3.339 -1.4029  2.9704  0.5614
   30MOL   H141 9479   1.502   4.654   3.480 -0.0299 -2.0048 -1.2668
   30MOL   H142 9480   1.766   4.911   3.268  0.6200 -2.1027  1.5677
   30MOL   H143 9481   1.569   5.013   3.142 -3.6493 -0.4210 -2.2847
   30MOL   H144 9482   1.270   5.119   3.260 -0.1855 -0.9466 -0.1499
   30MOL   H145 9483   1.390   5.130   3.140  0.0984 -1.9496 -0.9388
   30MOL   C146 9484   1.178   5.155   3.080  0.0024  0.0612 -0.4980
   30MOL   C147 9485   1.041   5.094   3.104 -0.3077 -0.3375  0.4106
   30MOL   C148 9486   1.004   5.051   3.229  0.3230  0.6973 -0.3607
   30MOL   C149 9487   0.876   5.000   3.259  0.3522 -0.8351  0.2833
   30MOL   C150 9488   0.786   4.977   3.153 -0.0886 -0.2028  1.1209
   30MOL   F151 9489   0.666   4.914   3.171  0.2334  0.6049  0.3385
   30MOL   C152 9490   0.824   5.005   3.024 -0.0894  1.5407 -0.3205
   30MOL   C153 9491   0.950   5.074   3.004 -0.1048 -0.2485 -0.1252
   30MOL   C154 9492   1.175   5.309   3.093 -0.2097  1.1894  0.2300
   30MOL   H155 9493   1.209   5.131   2.978  0.6956  1.8166 -0.7183
   30MOL   H156 9494   1.083   5.044   3.303 -2.0531  0.0069  2.2083
   30MOL   H157 9495   0.856   4.967   3.360 -0.6993  1.4140  0.8368
   30MOL   H158 9496   0.757   4.994   2.940 -1.0739  0.4554  0.6022
   30MOL   H159 9497   0.988   5.082   2.903  0.1665 -0.3482 -0.0305
   30MOL   H160 9498   1.086   5.346   3.043 -2.4367 -0.5736  2.7033
   30MOL   H161 9499   1.151   5.331   3.197 -0.3676  0.2660  0.3984
   30MOL   C162 9500   1.308   5.393   3.053  0.7617 -0.1250  0.0812
   30MOL   C163 9501   1.338   5.371   2.906  0.5614  0.2772  0.0533
   30MOL   C164 9502   1.425   5.270   2.862  0.2428 -0.7908 -0.8307
   30MOL   C165 9503   1.469   5.265   2.729 -0.1790  0.2641  0.0082
   30MOL   C166 9504   1.420   5.357   2.633  0.6150 -0.0945  0.4996
   30MOL   F167 9505   1.468   5.361   2.509 -0.3124  0.0190  0.2606
   30MOL   C168 9506   1.315   5.448   2.670 -0.3007 -0.3174  0.7619
   30MOL   C169 9507   1.281   5.452   2.803  0.9738 -1.0377 -0.2536
   30MOL   C170 9508   1.282   5.541   3.089  0.2144  0.0885 -0.3569
   30MOL   H171 9509   1.389   5.364   3.120  1.5055  1.9369  0.0806
   30MOL   H172 9510   1.469   5.197   2.928  1.8042  1.4340  0.6699
   30MOL   H173 9511   1.540   5.192   2.693  0.8374  1.9296 -1.4326
   30MOL   H174 9512   1.261   5.520   2.612 -0.4659  0.2891  1.6625
   30MOL   H175 9513   1.205   5.527   2.819  2.1708  0.1838 -0.1589
   30MOL   H176 9514   1.214   5.580   3.013  0.2475 -0.0403 -0.4517
   30MOL   H177 9515   1.226   5.549   3.182 -2.1636 -3.6486 -1.3514
   30MOL   C178 9516   1.406   5.637   3.091 -0.0609  0.3001 -0.4453
   30MOL   C179 9517   1.381   5.772   3.038 -0.5604  0.3532 -0.5789
   30MOL   C180 9518   1.478   5.829   2.962  0.0668 -0.0203  0.8188
   30MOL   C181 9519   1.465   5.959   2.916 -0.1429  0.7963  0.1141
   30MOL   C182 9520   1.354   6.038   2.954 -0.4579 -0.3708  0.0714
   30MOL   F183 9521   1.357   6.173   2.915  0.4204  0.0063  0.0265
   30MOL   C184 9522   1.255   5.983   3.031 -0.2880 -0.4095  0.3676
   30MOL   C185 9523   1.268   5.851   3.069 -0.2455  0.1617 -0.0663
   30MOL   C186 9524   1.444   5.648   3.240 -0.0232  0.0960  0.6375
   30MOL   H187 9525   1.488   5.585   3.040 -0.1765 -2.0371  1.6654
   30MOL   H188 9526   1.572   5.785   2.933  0.0219 -0.3388  1.1570
   30MOL   H189 9527   1.537   6.001   2.847 -1.5808  0.6371 -1.5196
   30MOL   H190 9528   1.178   6.053   3.059 -0.4918  0.0020 -1.1926
   30MOL   H191 9529   1.196   5.812   3.140 -0.3564 -1.1837 -0.9021
   30MOL   H192 9530   1.506   5.738   3.237 -1.0173  0.8091  1.2643
   30MOL   H193 9531   1.352   5.680   3.290 -1.7286 -0.0285 -2.2842
   30MOL   C194 9532   1.510   5.532   3.320 -0.5633 -0.3681  0.4827
   30MOL   C195 9533   1.630   5.464   3.255  0.2503  0.0286  0.5729
   30MOL   C196 9534   1.738   5.543   3.206  0.3173 -0.4885  0.1235
   30MOL   C197 9535   1.857   5.483   3.167  0.4999 -0.0896  0.5032
   30MOL   C198 9536   1.874   5.342   3.174  0.1769  0.0557 -0.0319
   30MOL   F199 9537   1.993   5.284   3.141 -0.0637 -0.6301 -0.1878
   30MOL   C200 9538   1.771   5.260   3.221 -0.1840  0.3914 -0.3614
   30MOL   C201 9539   1.651   5.322   3.267 -0.3331  0.2224  0.3555
   30MOL   C202 9540   1.554   5.571   3.463  0.6242  0.2346 -0.7108
   30MOL   H203 9541   1.437   5.451   3.317  0.6187 -1.4614  0.7385
   30MOL   H204 9542   1.729   5.650   3.218 -1.1840 -0.4836 -0.9074
   30MOL   H205 9543   1.933   5.550   3.130  0.3203 -1.2873 -2.1565
   30MOL   H206 9544   1.779   5.153   3.222 -0.4047  0.3771  0.1237
   30MOL   H207 9545   1.573   5.256   3.302 -1.1331  1.1315  0.3085
   30MOL   H208 9546   1.629   5.502   3.502 -0.0227 -1.7258 -2.7835
   30MOL   H209 9547   1.590   5.672   3.480 -1.4928  0.6473  1.5728
   30MOL   C210 9548   1.429   5.542   3.554  0.4437  0.5541  0.1409
   30MOL   C211 9549   1.376   5.397   3.551 -0.8612 -0.0434 -0.3671
   30MOL   C212 9550   1.235   5.360   3.536  0.3163  0.2316  0.2653
   30MOL   C213 9551   1.193   5.225   3.526 -0.7084  0.3708  0.1051
   30MOL   C214 9552   1.285   5.121   3.543 -0.4483  0.8065  0.1886
   30MOL   F215 9553   1.239   4.993   3.540 -0.1497  0.0316 -0.0604
   30MOL   C216 9554   1.418   5.155   3.569 -0.1770 -0.2449  0.2184
   30MOL   C217 9555   1.459   5.291   3.574 -0.5816  0.6632 -0.3566
   30MOL   C218 9556   1.459   5.579   3.698 -0.9710 -0.5900 -0.5316
   30MOL   H219 9557   1.347   5.601   3.513 -1.8673 -1.5422  1.5903
   30MOL   H220 9558   1.169   5.440   3.506  0.2156  0.2271  0.4745
   30MOL   H221 9559   1.089   5.196   3.518 -0.9087  0.3006  2.6711
   30MOL   H222 9560   1.505   5.091   3.579  1.2951  1.6686 -0.0492
   30MOL   H223 9561   1.562   5.319   3.594 -0.3955  0.7480 -1.3832
   30MOL   H224 9562   1.542   5.515   3.729 -1.7394 -1.6842 -0.6958
   30MOL   H225 9563   1.495   5.681   3.704 -3.7253  0.3619  0.6608
   30MOL   C226 9564   1.352   5.556   3.806  0.1947  0.4863  0.3861
   30MOL   C227 9565   1.400   5.555   3.949  0.3372  0.3134 -0.8556
   30MOL   C228 9566   1.372   5.445   4.035 -0.2265  0.2346 -0.3072
   30MOL   C229 9567   1.440   5.437   4.161  0.1801 -0.8717 -0.2595
   30MOL   C230 9568   1.516   5.543   4.208 -0.8087  0.1394  0.5010
   30MOL   F231 9569   1.548   5.546   4.338 -1.0676 -0.3872 -0.0799
   30MOL   C232 9570   1.532   5.658   4.128  0.0513 -0.2685  0.2685
   30MOL   C233 9571   1.490   5.659   3.994 -0.2623 -0.3466  0.0626
   30MOL   C234 9572   1.233   5.647   3.780 -0.6859  0.7442 -0.5740
   30MOL   H235 9573   1.315   5.456   3.783  0.4838  0.6598 -0.9186
   30MOL   H236 9574   1.324   5.359   3.989 -1.6503  1.9017 -2.0046
   30MOL   H237 9575   1.433   5.349   4.222 -1.1571  1.8198  3.6464
   30MOL   H238 9576   1.596   5.733   4.173 -0.1484  0.2739 -0.3544
   30MOL   H239 9577   1.528   5.737   3.930  0.4006  0.9062  1.9453
   30MOL   H240 9578   1.270   5.745   3.809  1.6503  0.0265 -0.9999
   30MOL   H241 9579   1.197   5.644   3.677 -1.2459 -0.6305 -0.3521
   30MOL   C242 9580   1.104   5.606   3.855 -0.2518 -0.2165  0.2774
   30MOL   C243 9581   1.022   5.736   3.880  0.4175  0.2265 -0.5064
   30MOL   C244 9582   0.928   5.787   3.785 -0.2119  0.0980  0.0881
   30MOL   C245 9583   0.856   5.903   3.819  0.6067 -0.1045 -0.7697
   30MOL   C246 9584   0.864   5.962   3.940  0.5111  0.0991  0.3350
   30MOL   F247 9585   0.777   6.069   3.955 -0.3026  0.2500 -0.4672
   30MOL   C248 9586   0.951   5.908   4.038  0.5821 -0.2411  0.1345
   30MOL   C249 9587   1.036   5.799   4.000  0.1681 -0.2103 -0.9633
   30MOL   C250 9588   1.016   5.502   3.779  0.3359 -0.2072  0.7391
   30MOL   H251 9589   1.127   5.565   3.953 -1.5421 -0.5708  0.4460
   30MOL   H252 9590   0.910   5.760   3.682 -1.2967  0.0704  0.2707
   30MOL   H253 9591   0.790   5.945   3.744  0.4782  0.3217 -0.4177
   30MOL   H254 9592   0.961   5.948   4.138  1.7921 -0.7531  0.2205
   30MOL   H255 9593   1.110   5.759   4.066 -0.1552 -0.1005 -0.5301
   30MOL   H256 9594   0.997   5.540   3.678  0.3636  1.4841  1.3408
   30MOL   H257 9595   1.080   5.415   3.764  1.5631  0.4799  1.9091
   30MOL   C258 9596   0.882   5.459   3.846 -0.3259 -0.4189  0.3002
   30MOL   C259 9597   0.803   5.362   3.756  0.3590  1.0996  0.0473
   30MOL   C260 9598   0.669   5.383   3.724 -0.1753  0.5048 -0.4592
   30MOL   C261 9599   0.597   5.303   3.640  0.9152  0.3052  0.8772
   30MOL   C262 9600   0.658   5.191   3.584  0.2537  0.3363 -1.4931
   30MOL   F263 9601   0.598   5.102   3.502  0.7673 -0.0822  0.3211
   30MOL   C264 9602   0.795   5.164   3.619  0.2849 -0.8158  0.5928
   30MOL   C265 9603   0.864   5.247   3.707 -0.8620 -0.3220  0.1316
   30MOL   C266 9604   0.905   5.396   3.987 -0.5641  0.0330  0.1823
   30MOL   H267 9605   0.819   5.548   3.850  0.1514 -0.0685  0.0619
   30MOL   H268 9606   0.623   5.469   3.770 -0.4980 -0.2094  0.5712
   30MOL   H269 9607   0.493   5.328   3.624  0.2667 -2.0312  1.3344
   30MOL   H270 9608   0.846   5.069   3.606 -0.6796 -1.3603  0.7092
   30MOL   H271 9609   0.965   5.227   3.740  0.5921 -1.0582 -4.4044
   30MOL   H272 9610   0.854   5.300   3.995 -0.0701 -0.3581 -1.2505
   30MOL   H273 9611   1.013   5.383   3.998  0.0017  2.0548 -2.6143
   30MOL   C274 9612   0.855   5.479   4.108  0.2663 -0.3837 -0.1203
   30MOL   C275 9613   0.710   5.525   4.098  0.3044 -0.2554  0.1125
   30MOL   C276 9614   0.681   5.664   4.077  0.1956 -0.3128 -0.4094
   30MOL   C277 9615   0.554   5.710   4.046  0.1700 -0.0994 -0.4588
   30MOL   C278 9616   0.448   5.616   4.025  0.0039 -0.2884 -0.0612
   30MOL   F279 9617   0.331   5.679   4.002 -0.1286  0.2719  0.4054
   30MOL   C280 9618   0.472   5.481   4.060  1.0193  0.7089 -0.6559
   30MOL   C281 9619   0.603   5.434   4.091  0.4110 -0.5604  0.7405
   30MOL   C282 9620   0.875   5.411   4.247 -1.3101  0.6734 -0.3226
   30MOL   H283 9621   0.914   5.571   4.104 -2.4280  1.4506  0.9602
   30MOL   H284 9622   0.759   5.739   4.082 -0.3184  0.0793  2.1711
   30MOL   H285 9623   0.527   5.813   4.030 -3.4757 -0.5609  2.2502
   30MOL   H286 9624   0.392   5.410   4.053  1.1858  0.4778 -0.2239
   30MOL   H287 9625   0.618   5.327   4.091  0.6379 -0.5394 -0.9234
   30MOL   H288 9626   0.815   5.461   4.324 -0.2498  0.2795  0.7763
   30MOL   H289 9627   0.836   5.309   4.251 -0.3860  0.3367  0.1973
   30MOL   C290 9628   1.018   5.397   4.301  0.1424  0.1028  0.1068
   30MOL   C291 9629   1.051   5.523   4.381 -0.2087  0.4340  0.1643
   30MOL   C292 9630   1.143   5.610   4.328  0.3107 -0.1796 -0.1803
   30MOL   C293 9631   1.169   5.737   4.388 -0.4861 -0.0533 -0.3288
   30MOL   C294 9632   1.106   5.771   4.507 -0.9482 -0.5683 -0.0740
   30MOL   F295 9633   1.130   5.887   4.574 -0.0322  0.3629 -0.2070
   30MOL   C296 9634   1.015   5.682   4.565  0.6269 -0.2829 -0.3225
   30MOL   C297 9635   0.980   5.558   4.499  0.2988 -0.1825  0.6606
   30MOL   C298 9636   1.034   5.271   4.387 -0.3541  0.1908 -0.3507
   30MOL   H299 9637   1.085   5.397   4.215  4.2721  1.7615  3.1395
   30MOL   H300 9638   1.188   5.582   4.234  1.0631  0.4074 -0.0009
   30MOL   H301 9639   1.234   5.798   4.327 -0.3706 -0.2388 -0.3888
   30MOL   H302 9640   0.962   5.699   4.658 -1.2128 -1.5479 -1.1228
   30MOL   H303 9641   0.897   5.500   4.536  0.6072 -1.5598 -0.7422
   30MOL   H304 9642   1.135   5.285   4.425  0.0625  0.7751 -1.6417
   30MOL   H305 9643   0.968   5.273   4.473 -1.0282  2.0247 -0.8868
   30MOL   C306 9644   1.024   5.138   4.319 -0.5741 -0.0376  0.0965
   30MOL   C307 9645   1.105   5.119   4.192 -0.2196  0.6481  0.2249
   30MOL   C308 9646   1.034   5.072   4.081  0.3336  0.1317  0.3832
   30MOL   C309 9647   1.105   5.020   3.974 -0.1211  0.2143 -0.3551
   30MOL   C310 9648   1.246   5.046   3.961 -0.4766 -0.1166  0.3379
   30MOL   F311 9649   1.317   5.002   3.852 -0.1401  0.1674  0.1149
   30MOL   C312 9650   1.313   5.097   4.071  0.2386 -0.2650  0.6050
   30MOL   C313 9651   1.243   5.136   4.185  0.3357 -0.2355 -0.1088
   30MOL   C314 9652   1.043   5.019   4.409  0.3415  0.3113 -0.8552
   30MOL   H315 9653   0.916   5.125   4.310 -0.6258  1.2508 -1.2831
   30MOL   H316 9654   0.927   5.063   4.087  0.2503  0.3932 -0.6018
   30MOL   H317 9655   1.057   4.988   3.882 -0.0286  0.4167 -0.4723
   30MOL   H318 9656   1.420   5.107   4.076  0.1303  0.4487  1.6325
   30MOL   H319 9657   1.307   5.181   4.261  0.3117  1.3289 -0.9990
   30MOL   H320 9658   1.031   5.050   4.513  2.6996  0.2861 -0.5559
   30MOL   H321 9659   0.976   4.938   4.381 -0.8647  0.5418  1.2197
   30MOL   H322 9660   1.144   4.979   4.411 -0.7689 -2.5547  1.0238
   31MOL     C1 9661   0.061   2.384   2.467  0.0741  0.2228 -0.6480
   31MOL     C2 9662   0.190   2.311   2.459 -0.0967  0.0368  0.8638
   31MOL     C3 9663   0.301   2.377   2.514  0.0586  0.4339 -0.0231
   31MOL     C4 9664   0.429   2.315   2.530  0.3549 -0.2363 -0.5943
   31MOL     C5 9665   0.449   2.189   2.473 -0.0152 -0.3921 -0.8217
   31MOL     F6 9666   0.576   2.142   2.476 -1.0173 -0.3190 -0.3287
   31MOL     C7 9667   0.342   2.123   2.413 -0.2200  0.2524  0.0037
   31MOL     C8 9668   0.210   2.184   2.406  0.1341  0.0033 -0.0709
   31MOL     C9 9669   0.041   2.490   2.365  0.4423 -0.2159  0.0531
   31MOL    H10 9670   0.048   2.443   2.558 -2.1612  1.4561 -1.7353
   31MOL    H11 9671   0.282   2.478   2.548 -1.7762 -0.7308  2.5363
   31MOL    H12 9672   0.506   2.382   2.566 -0.5887  1.0502 -0.9069
   31MOL    H13 9673   0.347   2.024   2.371 -1.1764  1.0216 -2.0204
   31MOL    H14 9674   0.132   2.138   2.346  0.7110  0.6624 -1.3407
   31MOL    H15 9675   8.192   2.550   2.402  0.7098  1.7144 -2.2929
   31MOL    H16 9676   0.131   2.550   2.368 -0.5933  1.3528  0.5066
   31MOL    H17 9677   8.218   2.308   2.469 -0.6028  0.9245  2.2213
   31MOL    C18 9678   0.021   2.444   2.226  0.3124  0.7457 -0.0936
   31MOL    C19 9679   8.121   2.372   2.203 -0.1477  0.3234  0.3110
   31MOL    C20 9680   8.119   2.233   2.185  0.4599  0.0036  0.2187
   31MOL    C21 9681   7.998   2.163   2.177 -0.2739  0.1390  0.6937
   31MOL    C22 9682   7.878   2.223   2.185  0.8280 -0.1737  0.0253
   31MOL    F23 9683   7.760   2.149   2.184  0.6518  0.0987  0.4485
   31MOL    C24 9684   7.871   2.366   2.178 -0.3283 -0.4297  0.0924
   31MOL    C25 9685   7.995   2.437   2.197 -0.8240  0.6021 -0.4763
   31MOL    C26 9686   0.034   2.571   2.134  0.4932  0.6099  0.0982
   31MOL    H27 9687   0.094   2.371   2.190 -1.7302 -0.6348 -1.5431
   31MOL    H28 9688   8.213   2.185   2.162  0.2889 -0.9016  1.3555
   31MOL    H29 9689   8.002   2.057   2.156 -1.1161  0.1791  0.3106
   31MOL    H30 9690   7.779   2.422   2.174 -0.2149 -0.0998  1.8934
   31MOL    H31 9691   7.986   2.538   2.234 -0.1457 -0.3864  2.4884
   31MOL    H32 9692   8.183   2.571   2.067  0.3373  1.2824  0.2980
   31MOL    H33 9693   0.022   2.660   2.195  0.7286  0.4168  0.4309
   31MOL    C34 9694   0.165   2.569   2.053 -0.7616  0.0112 -0.1783
   31MOL    C35 9695   0.168   2.439   1.964  0.3535  0.0353  0.5283
   31MOL    C36 9696   0.269   2.342   1.980 -0.1914  0.0608 -0.4372
   31MOL    C37 9697   0.266   2.225   1.899 -0.7096 -0.4717 -0.6343
   31MOL    C38 9698   0.161   2.206   1.809 -0.0261 -0.2432  0.5591
   31MOL    F39 9699   0.157   2.089   1.742  0.5010  0.4795 -0.1054
   31MOL    C40 9700   0.067   2.306   1.782 -0.3948  0.2026 -0.2398
   31MOL    C41 9701   0.071   2.421   1.864 -0.1211 -0.2030 -0.2011
   31MOL    C42 9702   0.188   2.701   1.978 -0.3061 -0.5006  0.3417
   31MOL    H43 9703   0.248   2.549   2.122 -1.0714  0.6223  0.3702
   31MOL    H44 9704   0.360   2.351   2.037 -0.5271  0.3043  0.0534
   31MOL    H45 9705   0.341   2.148   1.911 -0.1893 -0.0106 -0.8538
   31MOL    H46 9706   8.225   2.285   1.708  0.7816 -0.2055 -1.3589
   31MOL    H47 9707   8.225   2.491   1.850 -0.1057 -0.7545 -3.2144
   31MOL    H48 9708   0.272   2.700   1.908 -1.5133 -0.1950 -1.1434
   31MOL    H49 9709   0.104   2.701   1.909 -0.3587  0.2096  0.3927
   31MOL    C50 9710   0.206   2.835   2.053  0.7091  0.4742  0.3871
   31MOL    C51 9711   0.334   2.840   2.133  0.2834 -0.5186  0.2249
   31MOL    C52 9712   0.331   2.862   2.273  0.4056 -0.2161  0.4252
   31MOL    C53 9713   0.445   2.887   2.343 -0.2197  0.1986 -0.3447
   31MOL    C54 9714   0.572   2.881   2.277 -0.2465 -0.3217  0.4971
   31MOL    F55 9715   0.688   2.908   2.341  0.4102 -0.4238 -0.0310
   31MOL    C56 9716   0.577   2.863   2.137 -1.0593  0.7281  0.3556
   31MOL    C57 9717   0.458   2.832   2.072 -1.1233 -0.0280 -0.0370
   31MOL    C58 9718   0.205   2.959   1.971  0.8035 -0.1533  0.7138
   31MOL    H59 9719   0.122   2.833   2.123  0.2861 -1.2240 -0.1631
   31MOL    H60 9720   0.232   2.866   2.317  0.4060  1.8591  0.2985
   31MOL    H61 9721   0.445   2.909   2.449  0.7213 -0.4922 -0.1915
   31MOL    H62 9722   0.667   2.848   2.081 -1.5104 -0.7366  0.0060
   31MOL    H63 9723   0.463   2.813   1.966  0.1807 -2.2724  0.3942
   31MOL    H64 9724   0.235   3.042   2.035  1.8890  0.9120 -1.1314
   31MOL    H65 9725   0.281   2.956   1.894  1.3181 -3.2757  1.2805
   31MOL    C66 9726   0.059   2.996   1.915 -0.6830  0.3158 -0.4149
   31MOL    C67 9727   8.174   2.987   2.014 -0.0904  0.0294 -0.4379
   31MOL    C68 9728   8.063   2.899   1.991  0.0782 -0.0293  0.3452
   31MOL    C69 9729   7.962   2.891   2.088  0.2186 -0.8698  0.2014
   31MOL    C70 9730   7.970   2.974   2.204  0.0579 -0.1840 -0.7569
   31MOL    F71 9731   7.869   2.969   2.302 -0.0638  0.1863  0.5050
   31MOL    C72 9732   8.072   3.067   2.226 -0.2079 -0.1864  0.6534
   31MOL    C73 9733   8.180   3.066   2.132 -0.3242 -0.1516  0.2679
   31MOL    C74 9734   0.069   3.133   1.845  0.8708  0.1915  0.0391
   31MOL    H75 9735   0.050   2.915   1.843 -1.9075 -0.1025  0.1899
   31MOL    H76 9736   8.056   2.846   1.897 -3.6201  1.3365 -0.2239
   31MOL    H77 9737   7.879   2.825   2.070  0.3537 -0.5413 -1.7640
   31MOL    H78 9738   8.078   3.126   2.316 -1.3334  0.8932  0.0245
   31MOL    H79 9739   0.021   3.142   2.146 -0.8695  0.4760 -0.1385
   31MOL    H80 9740   0.067   3.216   1.916 -2.1822  0.3132 -0.1536
   31MOL    H81 9741   0.170   3.135   1.804  1.0350 -1.5920  0.2823
   31MOL    C82 9742   8.201   3.164   1.736  0.4035 -0.5127  0.0275
   31MOL    C83 9743   8.216   3.313   1.702  0.0890  0.3847  0.0611
   31MOL    C84 9744   0.079   3.350   1.608 -0.2297  0.6712  0.5583
   31MOL    C85 9745   0.086   3.479   1.553  0.2983  1.2170  0.1743
   31MOL    C86 9746   8.228   3.578   1.607 -0.0518  0.5081  0.1308
   31MOL    F87 9747   8.219   3.706   1.556 -0.2364 -0.6429 -0.1146
   31MOL    C88 9748   8.142   3.544   1.716 -0.2413  0.2599 -0.6749
   31MOL    C89 9749   8.139   3.412   1.764  0.5084  0.2659 -0.3870
   31MOL    C90 9750   8.202   3.062   1.608  0.3510 -0.1215 -0.3400
   31MOL    H91 9751   8.097   3.158   1.768  0.5147 -0.0643  0.4719
   31MOL    H92 9752   0.140   3.270   1.568  0.0131  0.8800  0.5150
   31MOL    H93 9753   0.157   3.504   1.475  1.5012 -3.2790 -0.2900
   31MOL    H94 9754   8.054   3.604   1.736  0.6636  0.9022  1.5447
   31MOL    H95 9755   8.062   3.383   1.834  0.1272  0.8514 -0.5638
   31MOL    H96 9756   0.067   3.066   1.566  0.3972  0.6517 -0.1618
   31MOL    H97 9757   8.189   2.956   1.627  1.7909 -0.2217  0.1017
   31MOL    C98 9758   8.111   3.106   1.493 -0.4696  0.0124  0.1766
   31MOL    C99 9759   8.152   3.049   1.354  0.2371  0.0156  0.0239
   31MOL   C100 9760   8.173   3.132   1.243 -0.1079 -0.1304 -0.1279
   31MOL   C101 9761   8.200   3.082   1.119 -0.0663  0.2671  0.5605
   31MOL   C102 9762   8.203   2.942   1.096  0.5704 -0.3229  0.0818
   31MOL   F103 9763   8.219   2.900   0.972  0.4101 -0.4181 -0.1671
   31MOL   C104 9764   8.184   2.857   1.203  0.1507 -0.1643  0.1280
   31MOL   C105 9765   8.158   2.906   1.334  0.5421 -0.2512 -0.1495
   31MOL   C106 9766   7.957   3.073   1.517 -0.9015 -0.1180  0.6449
   31MOL   H107 9767   8.122   3.214   1.482 -1.3545 -0.0406 -1.4104
   31MOL   H108 9768   8.157   3.238   1.257 -2.0442 -0.5244  0.9022
   31MOL   H109 9769   8.207   3.152   1.037 -1.0563 -1.8112 -1.3798
   31MOL   H110 9770   8.189   2.750   1.191  1.1071 -0.2319  1.0485
   31MOL   H111 9771   8.141   2.844   1.421  0.2678  0.6992  0.4892
   31MOL   H112 9772   7.941   2.967   1.538 -0.3618 -0.4155 -0.4600
   31MOL   H113 9773   7.928   3.113   1.615 -2.6352 -0.0470  0.1074
   31MOL   C114 9774   7.857   3.129   1.415  0.6668 -0.1179  0.4065
   31MOL   C115 9775   7.725   3.058   1.437 -0.4912 -0.7424 -0.1371
   31MOL   C116 9776   7.646   3.027   1.324 -0.8926 -0.5357  0.1580
   31MOL   C117 9777   7.522   2.967   1.343  0.3155  0.3313 -0.2377
   31MOL   C118 9778   7.479   2.940   1.477  0.4108  0.7682 -0.2849
   31MOL   F119 9779   7.365   2.870   1.489  0.1598  0.0950 -0.3280
   31MOL   C120 9780   7.551   2.982   1.588  0.1389 -0.9268  0.3216
   31MOL   C121 9781   7.676   3.040   1.568  0.0527  0.5796  0.2794
   31MOL   C122 9782   7.856   3.285   1.416  0.5057  0.2209  0.1007
   31MOL   H123 9783   7.883   3.095   1.315 -1.3425  2.4457 -1.0419
   31MOL   H124 9784   7.688   3.041   1.226 -2.4862  0.0341 -0.4599
   31MOL   H125 9785   7.456   2.939   1.261  0.9868  0.8767 -0.9686
   31MOL   H126 9786   7.518   2.962   1.689 -0.7488  0.9237  0.4159
   31MOL   H127 9787   7.731   3.078   1.653  0.6439 -2.3585  1.2503
   31MOL   H128 9788   7.942   3.317   1.474  1.4734 -2.7244  0.4073
   31MOL   H129 9789   7.884   3.328   1.319 -1.1465 -1.0754 -0.9880
   31MOL   C130 9790   7.731   3.365   1.454  0.6624 -0.4844 -0.0788
   31MOL   C131 9791   7.767   3.507   1.491 -0.0153 -0.1151 -0.1208
   31MOL   C132 9792   7.826   3.586   1.398 -0.2234 -0.0680 -0.2415
   31MOL   C133 9793   7.865   3.714   1.431  0.3391 -0.2245  0.1641
   31MOL   C134 9794   7.840   3.774   1.558  0.3291 -0.2101  0.2417
   31MOL   F135 9795   7.868   3.903   1.574 -0.3208  0.1355 -0.5274
   31MOL   C136 9796   7.768   3.696   1.649  0.1050 -0.4488 -0.1465
   31MOL   C137 9797   7.732   3.564   1.618  0.5937  0.2819  0.4413
   31MOL   C138 9798   7.622   3.373   1.339  0.4222  0.2640 -0.3568
   31MOL   H139 9799   7.687   3.319   1.543  0.9744  0.1484  0.4073
   31MOL   H140 9800   7.862   3.555   1.301  2.0970 -0.3506  0.6818
   31MOL   H141 9801   7.922   3.770   1.359 -0.2161 -1.0415 -0.9249
   31MOL   H142 9802   7.750   3.732   1.749 -1.3204 -0.7498 -0.2883
   31MOL   H143 9803   7.681   3.505   1.693 -2.3808  2.0278 -0.1576
   31MOL   H144 9804   7.654   3.417   1.244 -1.8779 -0.7356 -1.6509
   31MOL   H145 9805   7.583   3.273   1.322  1.1072 -0.0588 -0.0609
   31MOL   C146 9806   7.496   3.453   1.377 -0.7654  0.4583  0.2530
   31MOL   C147 9807   7.404   3.442   1.262  0.7330 -0.9593  0.5080
   31MOL   C148 9808   7.322   3.329   1.238  0.7317  0.2708 -0.5527
   31MOL   C149 9809   7.209   3.333   1.156 -0.0113 -0.2506 -0.0144
   31MOL   C150 9810   7.184   3.443   1.079 -0.1527 -0.8398  0.4102
   31MOL   F151 9811   7.078   3.447   0.990 -0.0649 -0.1698 -0.1075
   31MOL   C152 9812   7.278   3.547   1.075  0.1796 -0.3990  0.1643
   31MOL   C153 9813   7.377   3.558   1.178 -0.4477 -0.0602  0.4055
   31MOL   C154 9814   7.422   3.409   1.499 -0.5520 -0.2414 -0.0721
   31MOL   H155 9815   7.532   3.556   1.383  0.1344  0.4098 -3.2921
   31MOL   H156 9816   7.329   3.236   1.292 -0.7564  0.5698  0.1756
   31MOL   H157 9817   7.147   3.248   1.133  0.3489 -0.3312 -0.7246
   31MOL   H158 9818   7.259   3.623   1.001 -0.8378 -0.1534  0.6688
   31MOL   H159 9819   7.438   3.647   1.183 -2.2341  1.2861 -1.3169
   31MOL   H160 9820   7.370   3.314   1.487 -1.3434  0.3627 -1.5682
   31MOL   H161 9821   7.495   3.399   1.580  1.1891 -0.0566 -1.5653
   31MOL   C162 9822   7.320   3.511   1.562  0.1344  0.6013 -0.5925
   31MOL   C163 9823   7.173   3.462   1.536  0.0969  0.2835  0.8455
   31MOL   C164 9824   7.127   3.346   1.603  0.0877  0.0269 -0.2511
   31MOL   C165 9825   6.997   3.294   1.577 -0.5485 -0.0537  0.9454
   31MOL   C166 9826   6.911   3.367   1.494 -0.0964  0.4258 -0.6749
   31MOL   F167 9827   6.784   3.325   1.476  0.5617 -0.1067 -0.3241
   31MOL   C168 9828   6.953   3.487   1.431  0.5676  1.0872  0.4439
   31MOL   C169 9829   7.087   3.527   1.445  0.1627 -0.2721  0.5169
   31MOL   C170 9830   7.336   3.542   1.714 -0.2053 -0.2088  0.5392
   31MOL   H171 9831   7.333   3.607   1.513  1.5863  0.5761 -0.2796
   31MOL   H172 9832   7.197   3.297   1.668  0.1845 -1.2415 -1.2968
   31MOL   H173 9833   6.975   3.198   1.622  0.0176  0.1875  1.7506
   31MOL   H174 9834   6.885   3.539   1.365  0.4976 -0.7707 -1.0073
   31MOL   H175 9835   7.128   3.615   1.398 -1.1777  0.7549  1.2118
   31MOL   H176 9836   7.304   3.457   1.774 -1.3209  0.5955  1.0863
   31MOL   H177 9837   7.437   3.557   1.751 -0.3829 -0.9278  1.3252
   31MOL   C178 9838   7.255   3.665   1.766  0.0713  0.3512  0.1107
   31MOL   C179 9839   7.186   3.647   1.899 -0.7211  0.4527  0.0804
   31MOL   C180 9840   7.042   3.667   1.907 -0.0350 -0.1670  0.1145
   31MOL   C181 9841   6.981   3.659   2.036 -0.1262 -0.6163 -0.3895
   31MOL   C182 9842   7.046   3.599   2.145  0.5068 -0.5691  0.8651
   31MOL   F183 9843   6.974   3.594   2.257 -0.0259 -0.6103  0.1004
   31MOL   C184 9844   7.184   3.570   2.136 -0.5880  0.3771  0.2830
   31MOL   C185 9845   7.256   3.595   2.017  0.4593 -0.3812  0.4978
   31MOL   C186 9846   7.340   3.796   1.788 -0.1801  1.1821  0.3061
   31MOL   H187 9847   7.182   3.687   1.687 -1.6781  1.4896  2.0025
   31MOL   H188 9848   6.993   3.715   1.824  1.5126  0.9874 -0.1610
   31MOL   H189 9849   6.879   3.684   2.060 -0.2146 -2.4848  1.3337
   31MOL   H190 9850   7.235   3.540   2.226 -1.1435  0.8574  0.7546
   31MOL   H191 9851   7.362   3.581   2.001  0.3827 -1.8261  1.1519
   31MOL   H192 9852   7.283   3.877   1.833  1.8114  1.9651  1.4846
   31MOL   H193 9853   7.415   3.760   1.859 -2.3368 -1.2804  1.4190
   31MOL   C194 9854   7.399   3.884   1.668 -0.4445  1.1585 -0.1908
   31MOL   C195 9855   7.301   3.893   1.547  0.7655 -0.3061  0.2642
   31MOL   C196 9856   7.344   3.847   1.416  0.2278 -0.3800 -0.4550
   31MOL   C197 9857   7.255   3.849   1.307  0.2112 -0.5255  0.2072
   31MOL   C198 9858   7.118   3.871   1.328  0.0539  0.4489  0.4029
   31MOL   F199 9859   7.022   3.841   1.236 -0.6271  0.1435  0.6015
   31MOL   C200 9860   7.076   3.912   1.452  0.2893  0.0024  0.0106
   31MOL   C201 9861   7.161   3.928   1.563  0.2537  0.3620  0.4116
   31MOL   C202 9862   7.458   4.018   1.717  0.6076 -0.4869 -0.0655
   31MOL   H203 9863   7.483   3.824   1.632  1.7228  2.0806  3.0693
   31MOL   H204 9864   7.443   3.818   1.384  0.7672  3.1830 -2.3381
   31MOL   H205 9865   7.292   3.819   1.210  0.3596 -0.4961  0.2557
   31MOL   H206 9866   6.970   3.916   1.473  0.7581  2.5962  2.1189
   31MOL   H207 9867   7.115   3.961   1.655 -1.2523 -0.2721 -0.0963
   31MOL   H208 9868   7.484   4.004   1.822  1.9476 -0.1904 -0.3466
   31MOL   H209 9869   7.554   4.023   1.664 -0.9076  0.8146 -2.7784
   31MOL   C210 9870   7.385   4.153   1.699  0.4130 -0.7473  0.1887
   31MOL   C211 9871   7.264   4.179   1.788  0.2259 -0.6711 -0.3303
   31MOL   C212 9872   7.145   4.226   1.727  0.5385 -0.2457 -0.5685
   31MOL   C213 9873   7.038   4.270   1.814  0.1227  0.0505  0.3825
   31MOL   C214 9874   7.046   4.258   1.951  0.7689 -0.6226  0.0268
   31MOL   F215 9875   6.947   4.298   2.029  0.3196 -0.1096 -0.0656
   31MOL   C216 9876   7.163   4.197   2.009 -0.1227 -0.1958  1.1679
   31MOL   C217 9877   7.274   4.157   1.926 -0.3355  0.3686 -0.1767
   31MOL   C218 9878   7.483   4.276   1.706 -0.1223 -0.2617  0.2842
   31MOL   H219 9879   7.345   4.157   1.597  0.6528 -2.0117  0.0316
   31MOL   H220 9880   7.140   4.245   1.620 -0.3478 -1.4325 -0.7498
   31MOL   H221 9881   6.950   4.320   1.774 -2.2406  0.2941  5.5736
   31MOL   H222 9882   7.162   4.206   2.116  0.8786 -2.6162  1.4059
   31MOL   H223 9883   7.373   4.126   1.957 -1.3885 -3.1690 -0.1208
   31MOL   H224 9884   7.415   4.360   1.689 -1.8491 -1.6627  0.0873
   31MOL   H225 9885   7.531   4.293   1.802  0.4848 -2.8406  0.4713
   31MOL   C226 9886   7.605   4.297   1.603  0.2764  0.4604 -0.0403
   31MOL   C227 9887   7.562   4.241   1.474 -0.4692  0.2762 -0.0911
   31MOL   C228 9888   7.622   4.116   1.440  0.2177  0.3805 -0.1623
   31MOL   C229 9889   7.584   4.044   1.326 -0.0717 -0.0417  0.4087
   31MOL   C230 9890   7.479   4.102   1.251  0.0105  0.3952  0.4208
   31MOL   F231 9891   7.440   4.034   1.142 -0.3480  0.0576 -0.2932
   31MOL   C232 9892   7.412   4.221   1.289 -0.0391  0.0977  0.5117
   31MOL   C233 9893   7.457   4.291   1.399 -0.0995  0.3466  0.6610
   31MOL   C234 9894   7.640   4.455   1.588 -0.6779 -0.4869  0.3897
   31MOL   H235 9895   7.694   4.246   1.638 -0.6000 -0.8734  0.2986
   31MOL   H236 9896   7.703   4.072   1.496 -0.2883  1.7830  1.6916
   31MOL   H237 9897   7.639   3.957   1.296  0.6615  1.0798 -1.5961
   31MOL   H238 9898   7.340   4.265   1.221  2.3466  0.3975 -1.8886
   31MOL   H239 9899   7.403   4.382   1.415 -1.2842  0.1999 -2.1610
   31MOL   H240 9900   7.550   4.513   1.566  1.0949  1.7031 -1.2330
   31MOL   H241 9901   7.678   4.492   1.683  0.8527 -0.3459 -0.2780
   31MOL   C242 9902   7.731   4.487   1.473  0.1488 -0.5714 -0.8702
   31MOL   C243 9903   7.761   4.631   1.493 -0.2980  0.5039  0.3733
   31MOL   C244 9904   7.868   4.685   1.573 -0.5669 -0.0301  0.1925
   31MOL   C245 9905   7.887   4.825   1.586  0.2211 -0.5893 -0.3088
   31MOL   C246 9906   7.816   4.913   1.498  0.4264 -0.3506  0.2995
   31MOL   F247 9907   7.838   5.046   1.491  0.3405 -0.1777  0.1413
   31MOL   C248 9908   7.716   4.859   1.417  0.3976 -0.2399  0.0532
   31MOL   C249 9909   7.681   4.722   1.418  0.1004 -1.0415 -0.2804
   31MOL   C250 9910   7.872   4.411   1.456  0.7571 -0.4356  0.0771
   31MOL   H251 9911   7.674   4.479   1.380 -0.0610 -1.0890 -0.7001
   31MOL   H252 9912   7.933   4.628   1.637 -0.7779 -0.0619  0.3776
   31MOL   H253 9913   7.956   4.860   1.661 -1.4532 -0.2699  1.1007
   31MOL   H254 9914   7.656   4.923   1.356 -1.1218  1.5157  3.2626
   31MOL   H255 9915   7.598   4.679   1.364 -1.0225 -2.3579  2.4111
   31MOL   H256 9916   7.927   4.423   1.549  2.3903 -1.5075 -0.7165
   31MOL   H257 9917   7.864   4.303   1.438  0.8788 -0.8575  2.4402
   31MOL   C258 9918   7.958   4.471   1.340 -0.0102 -0.3477 -1.0945
   31MOL   C259 9919   8.102   4.425   1.352  0.0312  0.3421  0.4058
   31MOL   C260 9920   8.188   4.477   1.453 -0.1618 -0.1713  0.6489
   31MOL   C261 9921   0.092   4.440   1.456 -0.3497  0.7996  0.2651
   31MOL   C262 9922   0.148   4.347   1.366 -0.2743  0.2388  0.1635
   31MOL   F263 9923   0.279   4.315   1.362  0.5487  0.0428  0.1342
   31MOL   C264 9924   0.063   4.286   1.275 -0.5399 -0.1318  0.0648
   31MOL   C265 9925   8.161   4.329   1.271 -0.2665 -0.3813  0.4016
   31MOL   C266 9926   7.892   4.449   1.199 -0.2043  0.0345  0.0356
   31MOL   H267 9927   7.961   4.579   1.353 -3.3214 -0.1659 -1.3262
   31MOL   H268 9928   8.162   4.552   1.526 -0.0067  1.3966 -0.8828
   31MOL   H269 9929   0.155   4.488   1.529 -1.8642 -0.6170  2.5816
   31MOL   H270 9930   0.102   4.209   1.211  2.3535  1.0651  0.3177
   31MOL   H271 9931   8.102   4.283   1.193  0.8107  2.7544 -2.3852
   31MOL   H272 9932   7.880   4.343   1.177  1.4764 -0.1361 -0.1261
   31MOL   H273 9933   7.792   4.489   1.210  0.7558  2.9943 -1.4654
   31MOL   C274 9934   7.953   4.520   1.077  0.0665 -0.8114  0.2821
   31MOL   C275 9935   7.889   4.479   0.945 -0.3183 -0.0495  0.1663
   31MOL   C276 9936   7.953   4.386   0.861 -0.6496 -0.3124 -0.3028
   31MOL   C277 9937   7.888   4.335   0.749  0.2382  0.5968 -0.3013
   31MOL   C278 9938   7.770   4.395   0.708  0.2401  0.1754  0.1012
   31MOL   F279 9939   7.708   4.352   0.594  0.4768 -0.3723  0.3770
   31MOL   C280 9940   7.707   4.487   0.788  0.6898  0.7562 -0.4686
   31MOL   C281 9941   7.760   4.526   0.913  0.4171 -0.3191 -0.3455
   31MOL   C282 9942   7.942   4.672   1.097 -0.9084  0.3149  0.8292
   31MOL   H283 9943   8.060   4.504   1.068  0.3393 -0.0373  1.8821
   31MOL   H284 9944   8.049   4.348   0.892  0.0211  1.8393  0.3793
   31MOL   H285 9945   7.943   4.271   0.682  0.4812 -0.6032  1.0107
   31MOL   H286 9946   7.613   4.530   0.755  0.0264 -0.4354 -0.1643
   31MOL   H287 9947   7.710   4.591   0.983  1.9584  1.1955 -0.6021
   31MOL   H288 9948   7.900   4.718   1.008 -0.2428  1.2876  1.0114
   31MOL   H289 9949   7.866   4.694   1.172 -1.1229 -0.0808  0.7252
   31MOL   C290 9950   8.083   4.730   1.128  0.7216 -0.3195  0.1255
   31MOL   C291 9951   8.180   4.726   1.006 -0.0071 -0.7610 -0.1191
   31MOL   C292 9952   8.150   4.782   0.879  0.4024 -0.3508  0.2436
   31MOL   C293 9953   0.004   4.776   0.766 -0.3787 -0.4917  0.4766
   31MOL   C294 9954   0.132   4.727   0.790 -0.1883  1.0877  0.2108
   31MOL   F295 9955   0.233   4.753   0.704 -0.2167  0.1928 -0.2186
   31MOL   C296 9956   0.168   4.660   0.912 -0.6895  0.7683  0.2817
   31MOL   C297 9957   0.073   4.666   1.018  0.0899  0.6582  0.5066
   31MOL   C298 9958   8.065   4.874   1.178 -0.1409  0.4540 -0.7296
   31MOL   H299 9959   8.112   4.665   1.210  1.7358  0.2949  0.2671
   31MOL   H300 9960   8.054   4.831   0.875  0.8887  0.7356  1.4027
   31MOL   H301 9961   8.224   4.828   0.672  2.5926 -0.7345 -0.1495
   31MOL   H302 9962   0.264   4.610   0.914 -2.3545 -2.7238 -1.4186
   31MOL   H303 9963   0.107   4.638   1.117 -0.6159  3.7469  1.6797
   31MOL   H304 9964   8.009   4.941   1.113 -1.7780  0.0487  0.2279
   31MOL   H305 9965   7.990   4.858   1.256  1.9916 -0.6985  1.1584
   31MOL   C306 9966   8.197   4.940   1.223 -0.6921 -0.0488 -0.4442
   31MOL   C307 9967   8.183   5.093   1.212  0.0858 -0.7075  0.1439
   31MOL   C308 9968   8.068   5.160   1.267  0.4512 -0.3588 -0.2120
   31MOL   C309 9969   8.055   5.295   1.265  0.6139 -0.5363 -0.4804
   31MOL   C310 9970   8.155   5.374   1.196  0.1547  0.2394  0.1918
   31MOL   F311 9971   8.133   5.513   1.182  0.3274 -0.1596  0.2153
   31MOL   C312 9972   0.023   5.312   1.128 -0.5482 -0.0528 -0.0583
   31MOL   C313 9973   0.038   5.170   1.134 -0.2883 -0.3011  0.2686
   31MOL   C314 9974   0.001   4.901   1.364  0.2194  0.1123  0.4078
   31MOL   H315 9975   0.041   4.902   1.158 -0.2727 -1.4332  0.8324
   31MOL   H316 9976   7.985   5.101   1.301  1.5008 -1.9833 -0.4251
   31MOL   H317 9977   7.965   5.343   1.299 -0.3496 -2.2228 -0.5584
   31MOL   H318 9978   0.088   5.371   1.065 -0.5808 -1.6148 -1.6061
   31MOL   H319 9979   0.120   5.125   1.080  0.6893  0.7278  0.8686
   31MOL   H320 9980   0.025   4.795   1.372  2.4014  0.6473  1.3834
   31MOL   H321 9981   0.089   4.958   1.393  0.5459 -0.1618 -0.0508
   31MOL   H322 9982   8.150   4.923   1.428 -0.7181 -1.4355 -0.2823
   32MOL     C1 9983   7.421   5.200   6.718 -0.0904  0.3016  0.4466
   32MOL     C2 9984   7.377   5.345   6.719 -0.0987  0.2038  0.2817
   32MOL     C3 9985   7.249   5.394   6.669  0.2864  0.0738 -0.9465
   32MOL     C4 9986   7.218   5.531   6.679 -0.5617  0.1558 -0.4083
   32MOL     C5 9987   7.312   5.622   6.726  0.6244 -0.1576  1.1103
   32MOL     F6 9988   7.278   5.752   6.732 -0.0473  0.1102  0.2789
   32MOL     C7 9989   7.442   5.577   6.766  0.6450  0.0078  0.4941
   32MOL     C8 9990   7.472   5.442   6.761  0.3115 -0.3795  0.4226
   32MOL     C9 9991   7.388   5.124   6.846  0.1131  0.5180  0.1365
   32MOL    H10 9992   7.525   5.197   6.685 -0.1288  1.9748  0.1136
   32MOL    H11 9993   7.175   5.324   6.634  0.1040 -0.8050  1.1110
   32MOL    H12 9994   7.121   5.564   6.646 -0.6549  0.6329  0.3269
   32MOL    H13 9995   7.512   5.646   6.809  0.2742  0.6554  0.0612
   32MOL    H14 9996   7.566   5.403   6.797 -0.3684 -1.5791  0.9312
   32MOL    H15 9997   7.441   5.029   6.855 -0.0886  0.4059  0.1580
   32MOL    H16 9998   7.423   5.187   6.927 -1.1297  2.4196 -0.7790
   32MOL    H17 9999   7.369   5.152   6.635  0.7371 -0.2214  0.2315
   32MOL    C1810000   7.241   5.087   6.867  0.6336  0.1191  0.5143
   32MOL    C1910001   7.181   5.004   6.751 -0.2297  0.1005 -0.0423
   32MOL    C2010002   7.095   5.060   6.658  0.2642 -0.0076 -0.2399
   32MOL    C2110003   7.043   4.982   6.552 -0.1939 -0.1552 -0.4446
   32MOL    C2210004   7.082   4.845   6.534  0.9300 -0.2859  0.0236
   32MOL    F2310005   7.039   4.774   6.429 -0.1248  0.1984 -0.0126
   32MOL    C2410006   7.171   4.789   6.627 -1.1992  0.0697 -0.7759
   32MOL    C2510007   7.228   4.869   6.733  1.0269 -0.6298  0.1434
   32MOL    C2610008   7.221   5.015   7.000  0.0092  0.2312  0.1903
   32MOL    H2710009   7.180   5.177   6.865 -1.5328 -1.2904  0.2571
   32MOL    H2810010   7.058   5.160   6.672  1.3030  0.3098  0.3067
   32MOL    H2910011   6.975   5.030   6.483 -0.0666  1.2847  0.3957
   32MOL    H3010012   7.207   4.687   6.624  3.9336  1.6591  0.8886
   32MOL    H3110013   7.287   4.821   6.810 -1.0203 -2.5052  0.6240
   32MOL    H3210014   7.115   4.990   7.004  0.7692 -2.9550  1.3782
   32MOL    H3310015   7.268   4.917   6.991 -4.4130 -1.9844 -0.1736
   32MOL    C3410016   7.269   5.096   7.125  0.5400 -0.2716  0.1572
   32MOL    C3510017   7.234   5.246   7.126 -0.3821 -0.4452 -0.4869
   32MOL    C3610018   7.099   5.284   7.101  0.5118  0.3442  0.0108
   32MOL    C3710019   7.061   5.421   7.106 -0.5912  0.2991 -0.0221
   32MOL    C3810020   7.158   5.522   7.122  0.0323  0.1539 -1.1965
   32MOL    F3910021   7.129   5.654   7.110  0.2177 -0.0672  0.4990
   32MOL    C4010022   7.290   5.483   7.145  0.3178 -0.4100 -0.1374
   32MOL    C4110023   7.327   5.348   7.151 -1.3020 -0.1144 -0.0849
   32MOL    C4210024   7.227   5.033   7.260 -0.7804 -0.4512  0.5276
   32MOL    H4310025   7.378   5.093   7.126  0.6229  2.1893  0.7439
   32MOL    H4410026   7.023   5.213   7.076  1.3724 -0.8723  0.7821
   32MOL    H4510027   6.964   5.446   7.067 -1.0547  1.0504  1.5796
   32MOL    H4610028   7.364   5.558   7.170  0.5599 -0.4243 -0.8031
   32MOL    H4710029   7.430   5.324   7.175 -0.5212  2.3144 -0.7796
   32MOL    H4810030   7.272   5.096   7.337  1.6972 -0.3910 -0.9239
   32MOL    H4910031   7.119   5.036   7.279 -1.0815 -1.0942 -1.0215
   32MOL    C5010032   7.279   4.886   7.299  0.6130 -0.9689  0.1866
   32MOL    C5110033   7.419   4.856   7.247  0.0889 -0.1818 -0.3343
   32MOL    C5210034   7.426   4.759   7.144 -1.1476  0.5562 -0.6317
   32MOL    C5310035   7.545   4.726   7.082 -0.1692 -0.3784 -0.2496
   32MOL    C5410036   7.663   4.796   7.122  0.1051 -0.9124 -0.1182
   32MOL    F5510037   7.771   4.775   7.048  0.1833  0.3693 -0.5287
   32MOL    C5610038   7.658   4.892   7.227 -0.1387 -0.2577  0.5916
   32MOL    C5710039   7.538   4.919   7.286  0.4713 -0.0966 -0.4820
   32MOL    C5810040   7.257   4.857   7.453 -0.0593  0.4951 -0.7388
   32MOL    H5910041   7.209   4.822   7.247  0.4534  0.5142 -1.4745
   32MOL    H6010042   7.338   4.707   7.108 -0.8247  0.1472 -0.8238
   32MOL    H6110043   7.541   4.654   7.002  0.6084  0.7223 -1.3169
   32MOL    H6210044   7.742   4.947   7.265  0.1352 -0.4856  0.3172
   32MOL    H6310045   7.529   5.001   7.356  0.5377 -1.2108  0.8606
   32MOL    H6410046   7.330   4.922   7.501  0.4408 -0.2958 -0.4299
   32MOL    H6510047   7.151   4.876   7.473 -0.3962 -1.9991 -0.0509
   32MOL    C6610048   7.281   4.706   7.495 -0.0993 -0.0613  0.0797
   32MOL    C6710049   7.428   4.656   7.489  0.3401 -0.0555 -0.0200
   32MOL    C6810050   7.476   4.572   7.386  0.4436 -0.1683  0.2762
   32MOL    C6910051   7.607   4.517   7.389 -0.5097 -0.5675 -0.3797
   32MOL    C7010052   7.690   4.547   7.495 -0.2837 -0.1880 -0.9471
   32MOL    F7110053   7.820   4.506   7.496  0.1249  0.0017  0.1465
   32MOL    C7210054   7.648   4.619   7.603 -0.4648  0.3362  0.6189
   32MOL    C7310055   7.516   4.668   7.600 -0.5154 -0.2664 -0.5047
   32MOL    C7410056   7.219   4.674   7.628 -0.1321  0.3212 -0.3663
   32MOL    H7510057   7.234   4.650   7.415 -1.3607 -0.1000  0.8438
   32MOL    H7610058   7.420   4.531   7.304  1.2232  0.0822 -0.3920
   32MOL    H7710059   7.632   4.464   7.298  1.2395 -1.4339  0.5825
   32MOL    H7810060   7.712   4.631   7.689  0.4113 -0.5400  0.0888
   32MOL    H7910061   7.473   4.724   7.682  1.3707 -0.0897  0.4043
   32MOL    H8010062   7.266   4.712   7.718  0.4814 -1.5139  0.1035
   32MOL    H8110063   7.127   4.733   7.632  0.4959  1.3164 -0.3205
   32MOL    C8210064   7.186   4.524   7.646  0.6731  0.0573 -0.0199
   32MOL    C8310065   7.261   4.477   7.769  0.6200  0.7523  0.4752
   32MOL    C8410066   7.348   4.367   7.753  0.1875 -0.0424 -0.0885
   32MOL    C8510067   7.423   4.318   7.862  0.1964  0.4219 -0.2910
   32MOL    C8610068   7.418   4.383   7.992 -0.4414  0.2740 -0.2429
   32MOL    F8710069   7.494   4.334   8.097  0.1489  0.2071 -0.0445
   32MOL    C8810070   7.338   4.496   8.004  0.3877 -0.9993  0.9205
   32MOL    C8910071   7.252   4.536   7.896 -0.1006 -0.2921 -0.7730
   32MOL    C9010072   7.034   4.500   7.659 -0.4920  0.3232 -0.2873
   32MOL    H9110073   7.219   4.462   7.563 -1.9800 -2.3736  0.6511
   32MOL    H9210074   7.351   4.316   7.658 -0.4809  1.1071 -0.7265
   32MOL    H9310075   7.482   4.228   7.848 -2.0080 -1.1822  0.4685
   32MOL    H9410076   7.337   4.539   8.103  1.2775  0.9702  0.0980
   32MOL    H9510077   7.180   4.615   7.906  0.7460  0.8433 -3.2853
   32MOL    H9610078   7.015   4.394   7.677 -0.6749  0.1015 -1.7730
   32MOL    H9710079   6.998   4.550   7.749 -0.3365 -0.8644  0.4481
   32MOL    C9810080   6.948   4.535   7.526  0.3230  0.3142 -0.0824
   32MOL    C9910081   6.994   4.487   7.391 -0.0610  0.9623  0.0194
   32MOL   C10010082   6.998   4.569   7.279  0.7029  0.1911 -0.2637
   32MOL   C10110083   7.037   4.514   7.149 -0.2994  0.5953 -0.3442
   32MOL   C10210084   7.064   4.375   7.140 -0.4358  0.9007 -0.7038
   32MOL   F10310085   7.076   4.312   7.019  0.5014  0.1710  0.2269
   32MOL   C10410086   7.066   4.296   7.256  0.2357 -0.4808  0.2543
   32MOL   C10510087   7.036   4.355   7.382 -0.2654  0.7396  0.3693
   32MOL   C10610088   6.794   4.512   7.553 -0.7867 -0.3385 -0.5153
   32MOL   H10710089   6.958   4.642   7.509  0.1663  0.3861  0.2664
   32MOL   H10810090   6.971   4.673   7.289 -1.6735 -0.5144  1.1117
   32MOL   H10910091   7.031   4.580   7.064 -1.2431  0.3089 -0.5078
   32MOL   H11010092   7.089   4.192   7.246 -2.1988 -1.1293  1.0376
   32MOL   H11110093   7.040   4.286   7.465  2.4888  1.7894  1.1852
   32MOL   H11210094   6.782   4.404   7.555  1.0339 -0.5613 -0.6923
   32MOL   H11310095   6.772   4.547   7.654  2.2024 -3.0029  1.1421
   32MOL   C11410096   6.692   4.553   7.454  0.5535  0.2896  0.5358
   32MOL   C11510097   6.553   4.494   7.490 -0.4057  0.3727  0.0033
   32MOL   C11610098   6.531   4.357   7.466 -0.2057  0.0410 -0.8833
   32MOL   C11710099   6.410   4.296   7.498  0.0044 -0.1403 -1.3990
   32MOL   C11810100   6.313   4.370   7.565 -0.0322  0.2233 -0.5295
   32MOL   F11910101   6.191   4.312   7.605 -0.3497  0.4810  0.2254
   32MOL   C12010102   6.334   4.505   7.598 -0.4471  0.0972 -0.1299
   32MOL   C12110103   6.455   4.566   7.567 -0.3776 -0.1923  0.9942
   32MOL   C12210104   6.694   4.702   7.429  0.1738 -0.2086  0.5014
   32MOL   H12310105   6.709   4.507   7.357  0.1006  1.8334 -0.2903
   32MOL   H12410106   6.611   4.296   7.427  0.1249 -1.1205  1.5413
   32MOL   H12510107   6.397   4.193   7.467  0.9247 -0.9256  0.7602
   32MOL   H12610108   6.253   4.557   7.646 -0.2726  1.8259 -1.6323
   32MOL   H12710109   6.472   4.671   7.585 -0.8253 -0.0690  0.7254
   32MOL   H12810110   6.655   4.756   7.516  0.5511 -0.0937  0.6009
   32MOL   H12910111   6.792   4.743   7.403  0.6382 -1.1221  0.8104
   32MOL   C13010112   6.601   4.736   7.306 -0.5719 -0.1164  0.6956
   32MOL   C13110113   6.599   4.890   7.292  0.6957  0.2709 -0.4199
   32MOL   C13210114   6.474   4.948   7.299  0.1576  0.4396 -0.2929
   32MOL   C13310115   6.453   5.081   7.261 -0.3647  0.0393  0.0817
   32MOL   C13410116   6.570   5.159   7.229 -0.0852  0.0042 -0.5926
   32MOL   F13510117   6.561   5.282   7.188 -0.2541  0.0445  0.1208
   32MOL   C13610118   6.697   5.100   7.228 -0.1419  0.3461 -0.0319
   32MOL   C13710119   6.713   4.964   7.251 -0.2738 -0.5238 -0.4714
   32MOL   C13810120   6.656   4.674   7.170 -0.4604 -0.6249 -0.7274
   32MOL   H13910121   6.497   4.707   7.320 -0.5122 -2.6893 -3.3826
   32MOL   H14010122   6.388   4.890   7.327 -1.3934  2.2177 -1.3100
   32MOL   H14110123   6.351   5.113   7.249 -0.7060 -1.2806 -0.5371
   32MOL   H14210124   6.789   5.152   7.205  0.8655 -2.1066 -1.7012
   32MOL   H14310125   6.810   4.917   7.248 -0.3220 -0.7156  0.7600
   32MOL   H14410126   6.765   4.684   7.176 -0.4608  0.7205 -2.6545
   32MOL   H14510127   6.636   4.567   7.160  1.2914 -1.1744  1.2303
   32MOL   C14610128   6.628   4.736   7.035 -0.4745  0.9877 -0.1607
   32MOL   C14710129   6.696   4.653   6.918 -0.6189 -0.1068 -0.6839
   32MOL   C14810130   6.639   4.533   6.867 -0.2604 -0.1903 -0.0546
   32MOL   C14910131   6.708   4.457   6.776  1.0360 -0.3410 -0.0239
   32MOL   C15010132   6.817   4.511   6.711 -0.2668  0.8794 -1.0686
   32MOL   F15110133   6.882   4.440   6.617  0.2844  0.0653 -0.5513
   32MOL   C15210134   6.878   4.626   6.754 -0.3863 -0.2432  0.2376
   32MOL   C15310135   6.812   4.701   6.853  0.1875 -0.1134 -0.0448
   32MOL   C15410136   6.479   4.764   7.004 -0.2104 -0.0999  0.1117
   32MOL   H15510137   6.685   4.829   7.034  1.5593 -0.2260 -0.7242
   32MOL   H15610138   6.555   4.502   6.928  0.4420  0.3214  1.1880
   32MOL   H15710139   6.680   4.357   6.747 -0.2667  0.1024 -0.3611
   32MOL   H15810140   6.966   4.659   6.702  0.5817  0.1456  2.1002
   32MOL   H15910141   6.863   4.794   6.876 -0.0478  0.0937 -0.3681
   32MOL   H16010142   6.443   4.688   6.934 -2.1695  1.1251 -0.2532
   32MOL   H16110143   6.412   4.759   7.089 -2.4134  1.5273 -1.4613
   32MOL   C16210144   6.451   4.903   6.942 -0.1303 -0.3375  0.2558
   32MOL   C16310145   6.539   4.929   6.821  0.2084 -0.6693  0.2522
   32MOL   C16410146   6.544   4.834   6.716  0.0718 -0.4079  0.9415
   32MOL   C16510147   6.609   4.856   6.595 -0.2229 -0.8709  0.6266
   32MOL   C16610148   6.691   4.970   6.583  0.7615  0.0426  0.1368
   32MOL   F16710149   6.739   4.997   6.463  0.4253 -0.0122  0.2136
   32MOL   C16810150   6.696   5.063   6.683 -0.3978  0.0777 -0.1983
   32MOL   C16910151   6.623   5.043   6.803 -0.0980 -0.0181  0.3914
   32MOL   C17010152   6.307   4.916   6.904 -0.0000 -0.1993 -0.3253
   32MOL   H17110153   6.476   4.975   7.019 -2.8551 -0.1814  1.0397
   32MOL   H17210154   6.479   4.749   6.711 -0.4898  0.0967 -0.5671
   32MOL   H17310155   6.594   4.779   6.521 -0.4516  2.0432 -2.5175
   32MOL   H17410156   6.760   5.149   6.673  0.2317  0.0325  2.8606
   32MOL   H17510157   6.627   5.117   6.882 -1.0830 -0.5833  0.9763
   32MOL   H17610158   6.292   4.831   6.837 -0.3085 -0.3945 -0.0108
   32MOL   H17710159   6.236   4.902   6.986  0.2911 -0.6982 -0.1551
   32MOL   C17810160   6.274   5.044   6.839 -0.0149 -0.0263 -0.5563
   32MOL   C17910161   6.145   5.023   6.762  0.4714 -0.3964 -0.1314
   32MOL   C18010162   6.024   5.005   6.834  0.3021  0.0475  0.1626
   32MOL   C18110163   5.903   4.979   6.766 -0.1082  0.2839 -0.2359
   32MOL   C18210164   5.905   4.984   6.626 -0.3985 -0.0056  0.0167
   32MOL   F18310165   5.781   4.953   6.565 -0.3456 -0.1315 -0.5965
   32MOL   C18410166   6.021   5.002   6.552  0.2467 -1.0253  0.5464
   32MOL   C18510167   6.143   5.021   6.623 -0.1157 -0.0534 -0.2987
   32MOL   C18610168   6.263   5.155   6.944 -0.2441 -0.3770  0.3875
   32MOL   H18710169   6.344   5.076   6.761 -0.4161  3.7167  0.5088
   32MOL   H18810170   6.027   5.005   6.942 -2.2330 -0.1542  0.2782
   32MOL   H18910171   5.810   4.953   6.815 -1.6944  0.9008 -2.8264
   32MOL   H19010172   6.014   5.011   6.444  1.6241 -1.6758  0.3839
   32MOL   H19110173   6.231   5.028   6.561  0.9181 -0.2698  1.1147
   32MOL   H19210174   6.202   5.127   7.030  2.6251  0.0380  2.6593
   32MOL   H19310175   6.364   5.179   6.979 -0.4562 -0.9247  1.3922
   32MOL   C19410176   6.199   5.287   6.891 -0.4926 -0.1471  0.0568
   32MOL   C19510177   6.141   5.368   7.010  0.4164  0.5579 -0.0050
   32MOL   C19610178   6.227   5.437   7.101 -0.2306  0.0094  0.2128
   32MOL   C19710179   6.172   5.514   7.199  0.1973 -0.3086  0.1657
   32MOL   C19810180   6.033   5.518   7.222 -0.3155  0.5522 -0.2597
   32MOL   F19910181   5.991   5.582   7.340 -0.3012 -0.3975  0.7828
   32MOL   C20010182   5.945   5.455   7.131  0.1758  0.3375 -0.5048
   32MOL   C20110183   6.000   5.376   7.028  0.2098 -0.1789 -0.0610
   32MOL   C20210184   6.293   5.373   6.796  0.1733 -1.1852 -0.0218
   32MOL   H20310185   6.116   5.255   6.828 -0.1441 -1.6694  0.3618
   32MOL   H20410186   6.334   5.439   7.084  0.3692  0.0583  3.6916
   32MOL   H20510187   6.243   5.563   7.264 -0.6517 -0.1187  0.9627
   32MOL   H20610188   5.838   5.460   7.140  0.1536  3.8511 -2.0803
   32MOL   H20710189   5.924   5.326   6.969 -0.4477 -1.0851  1.5235
   32MOL   H20810190   6.370   5.417   6.859 -1.0601 -1.4082  1.7030
   32MOL   H20910191   6.347   5.319   6.718 -1.1354 -1.9235 -0.4317
   32MOL   C21010192   6.202   5.484   6.735  0.4371 -0.9604  1.1478
   32MOL   C21110193   6.274   5.605   6.677 -0.4462 -0.1176 -0.9624
   32MOL   C21210194   6.395   5.587   6.606 -0.1608  0.1417 -0.5698
   32MOL   C21310195   6.471   5.697   6.559  0.7860  0.3464 -0.7950
   32MOL   C21410196   6.422   5.827   6.586 -0.6469 -0.2046 -0.0960
   32MOL   F21510197   6.491   5.939   6.539 -0.2711 -0.2237 -0.2592
   32MOL   C21610198   6.297   5.846   6.651 -0.5623 -0.0921  0.3663
   32MOL   C21710199   6.218   5.737   6.699 -0.4599  0.0195 -0.9320
   32MOL   C21810200   6.115   5.420   6.618  0.4712  0.4161 -0.3968
   32MOL   H21910201   6.132   5.512   6.813 -1.5268 -0.6035 -0.6972
   32MOL   H22010202   6.434   5.487   6.593 -1.2874 -0.4041  0.1435
   32MOL   H22110203   6.555   5.686   6.492  1.3668 -1.1050  0.1438
   32MOL   H22210204   6.263   5.948   6.654 -2.0795 -0.6039  1.4625
   32MOL   H22310205   6.116   5.745   6.735 -0.5669  0.7677 -1.3930
   32MOL   H22410206   6.179   5.408   6.531 -1.9411  1.9198 -2.4212
   32MOL   H22510207   6.095   5.314   6.634 -0.2105  0.8510  1.8112
   32MOL   C22610208   5.988   5.492   6.576  0.4182  0.4275  0.2676
   32MOL   C22710209   5.943   5.450   6.432 -0.1534  0.0396 -0.0336
   32MOL   C22810210   5.895   5.320   6.410 -0.3454 -0.1798  0.7897
   32MOL   C22910211   5.834   5.289   6.288 -0.5231 -0.2636  0.3029
   32MOL   C23010212   5.819   5.392   6.190 -0.9290 -0.8700 -0.5626
   32MOL   F23110213   5.766   5.364   6.069  0.0477 -0.4334 -0.0542
   32MOL   C23210214   5.879   5.519   6.202 -0.4169  1.1828  0.1959
   32MOL   C23310215   5.938   5.550   6.328  0.3022  0.7466  0.6924
   32MOL   C23410216   5.863   5.480   6.673 -0.3481 -0.2514  0.7302
   32MOL   H23510217   6.022   5.596   6.575 -1.2528  0.9935 -1.6963
   32MOL   H23610218   5.905   5.249   6.491  2.9863 -1.9630 -1.1051
   32MOL   H23710219   5.794   5.191   6.265 -1.7750  0.3352 -0.1297
   32MOL   H23810220   5.871   5.586   6.118  1.8881  1.7596  0.4046
   32MOL   H23910221   5.964   5.650   6.357  1.1369  0.3266  1.4211
   32MOL   H24010222   5.841   5.373   6.671  0.0852 -0.3580  1.5780
   32MOL   H24110223   5.888   5.506   6.776 -1.9561  2.3398  0.5332
   32MOL   C24210224   5.736   5.556   6.619  0.1678 -0.8961  0.3507
   32MOL   C24310225   5.610   5.508   6.690  0.4346 -0.0430  0.2158
   32MOL   C24410226   5.496   5.458   6.623 -0.0254 -0.3141 -0.1773
   32MOL   C24510227   5.374   5.455   6.685  0.2212 -0.2693 -0.3573
   32MOL   C24610228   5.369   5.463   6.830  0.1638  0.7009  0.5721
   32MOL   F24710229   5.250   5.445   6.890  0.4006  0.2055  0.4611
   32MOL   C24810230   5.484   5.497   6.902  0.3146 -0.8045  0.6756
   32MOL   C24910231   5.597   5.533   6.827 -0.5645 -0.4861 -1.5076
   32MOL   C25010232   5.756   5.707   6.605  0.1474  0.2947 -0.2896
   32MOL   H25110233   5.714   5.511   6.522 -1.5464  0.1233  0.2453
   32MOL   H25210234   5.491   5.439   6.517  2.9684  1.3412 -0.6908
   32MOL   H25310235   5.291   5.423   6.625  0.4871 -1.8876  0.1038
   32MOL   H25410236   5.479   5.501   7.009  0.0731 -0.3028  0.6454
   32MOL   H25510237   5.688   5.566   6.875 -0.2665 -1.5570 -1.3250
   32MOL   H25610238   5.768   5.755   6.701  1.0371 -0.6650  0.0929
   32MOL   H25710239   5.844   5.727   6.544  0.1955 -0.7235 -0.5605
   32MOL   C25810240   5.637   5.777   6.531 -0.1939 -0.0264 -0.2658
   32MOL   C25910241   5.638   5.932   6.559 -0.7155  0.5781 -0.0853
   32MOL   C26010242   5.598   5.972   6.686 -0.1652  0.0813  0.2516
   32MOL   C26110243   5.601   6.105   6.724 -0.0305  0.1182 -0.0815
   32MOL   C26210244   5.627   6.204   6.631 -0.2392 -0.1375 -0.1420
   32MOL   F26310245   5.627   6.333   6.660  0.3513  0.6540  0.2388
   32MOL   C26410246   5.651   6.169   6.496  0.1899  0.1276 -0.1553
   32MOL   C26510247   5.666   6.034   6.466 -0.3230 -0.5417  0.0086
   32MOL   C26610248   5.616   5.735   6.388  0.1431  0.7609  0.5142
   32MOL   H26710249   5.546   5.746   6.583  0.6957 -2.2350  0.0510
   32MOL   H26810250   5.588   5.900   6.767 -2.8507  0.6346  0.4404
   32MOL   H26910251   5.597   6.148   6.823  0.2007  1.3135 -0.5893
   32MOL   H27010252   5.679   6.240   6.420  0.8319 -0.6339 -0.6353
   32MOL   H27110253   5.689   6.003   6.365  2.3338  0.7632  0.1761
   32MOL   H27210254   5.695   5.789   6.335  0.2110 -0.3935 -0.5859
   32MOL   H27310255   5.650   5.634   6.365 -2.9210  0.4199 -2.8866
   32MOL   C27410256   5.482   5.765   6.325 -0.6924  0.5000  0.4396
   32MOL   C27510257   5.507   5.795   6.178 -0.6391 -0.5285 -0.6364
   32MOL   C27610258   5.540   5.694   6.091  0.6125  0.4973  0.4310
   32MOL   C27710259   5.548   5.724   5.955  0.4410  0.4400  0.1076
   32MOL   C27810260   5.553   5.858   5.909 -0.3706 -0.3400  0.0147
   32MOL   F27910261   5.570   5.884   5.772  0.2363 -0.1415  0.3511
   32MOL   C28010262   5.523   5.960   5.996 -0.0505  0.2039  0.9268
   32MOL   C28110263   5.500   5.928   6.133  0.0949 -0.1624 -0.0071
   32MOL   C28210264   5.368   5.660   6.351  0.2794  0.1126 -0.0313
   32MOL   H28310265   5.443   5.860   6.363  1.6010  2.3457 -1.6013
   32MOL   H28410266   5.537   5.591   6.124 -2.5749 -0.4418 -2.4927
   32MOL   H28510267   5.561   5.642   5.887  2.6172 -1.1513  2.3417
   32MOL   H28610268   5.510   6.064   5.970  0.2741 -0.7371 -3.3456
   32MOL   H28710269   5.473   6.009   6.199 -2.4613 -0.5185 -0.5702
   32MOL   H28810270   5.419   5.572   6.312  1.9511  2.1453 -2.6187
   32MOL   H28910271   5.353   5.635   6.456  2.8954 -0.6105  0.1854
   32MOL   C29010272   5.227   5.677   6.282 -0.6815 -0.2556  0.6693
   32MOL   C29110273   5.167   5.534   6.269  0.5963 -0.2836 -0.7126
   32MOL   C29210274   5.147   5.472   6.146  0.3953 -0.2053  0.0576
   32MOL   C29310275   5.074   5.355   6.123 -0.5361 -0.7140  0.0902
   32MOL   C29410276   5.026   5.288   6.242 -0.1201 -0.5608  0.0848
   32MOL   F29510277   4.966   5.171   6.236 -0.2380 -0.4478  0.1296
   32MOL   C29610278   5.052   5.345   6.367 -0.3175  0.5099  0.5398
   32MOL   C29710279   5.117   5.470   6.383  0.4343  0.1031  0.7139
   32MOL   C29810280   5.140   5.788   6.349 -0.4561 -0.2380  0.4489
   32MOL   H29910281   5.253   5.711   6.182 -0.3574 -0.1365  0.7940
   32MOL   H30010282   5.176   5.537   6.065 -0.3662 -1.2548 -1.0839
   32MOL   H30110283   5.054   5.327   6.020 -0.2349 -0.2439 -0.1010
   32MOL   H30210284   5.008   5.298   6.454 -0.1631 -0.3135  0.1752
   32MOL   H30310285   5.138   5.518   6.477  0.6465  1.3099  0.0680
   32MOL   H30410286   5.157   5.787   6.456 -0.5216  1.4613  0.4957
   32MOL   H30510287   5.191   5.882   6.325  1.4994 -1.7475 -1.6147
   32MOL   C30610288   4.991   5.801   6.323  0.0245 -1.0443 -0.3654
   32MOL   C30710289   4.919   5.875   6.429 -0.4358 -0.1623 -0.0185
   32MOL   C30810290   4.788   5.825   6.465 -0.4050  0.5783 -1.0192
   32MOL   C30910291   4.706   5.896   6.554  0.0689  0.3353  0.5364
   32MOL   C31010292   4.753   6.019   6.605 -0.1285  0.1704  0.0778
   32MOL   F31110293   4.665   6.095   6.678  0.2034  0.1821 -0.5319
   32MOL   C31210294   4.883   6.066   6.569 -0.4431 -0.1400 -0.1228
   32MOL   C31310295   4.966   5.994   6.481 -0.6636  0.1051 -0.0251
   32MOL   C31410296   4.947   5.842   6.182  0.1719 -0.2497  0.3419
   32MOL   H31510297   4.955   5.698   6.333 -1.7650 -0.5040 -1.1482
   32MOL   H31610298   4.761   5.724   6.436  2.5618 -1.2334  2.1992
   32MOL   H31710299   4.609   5.867   6.591  0.8741 -0.2768  2.2499
   32MOL   H31810300   4.924   6.160   6.603  1.9995 -1.0377 -0.4343
   32MOL   H31910301   5.066   6.027   6.455 -0.6760  1.0901  1.1463
   32MOL   H32010302   4.843   5.826   6.158  0.3518 -0.1863 -0.4928
   32MOL   H32110303   4.964   5.950   6.177 -1.4255 -0.0349 -0.7037
   32MOL   H32210304   5.002   5.787   6.106 -1.5430 -1.3564 -0.1245
   33MOL     C110305   1.974   8.085   6.059 -0.7667  0.1735  0.3839
   33MOL     C210306   1.885   8.201   6.022  0.9529 -0.0315 -0.1129
   33MOL     C310307   1.918   0.050   5.910  0.0806 -0.0042  0.1882
   33MOL     C410308   1.840   0.161   5.881 -0.2939  0.1785 -0.0365
   33MOL     C510309   1.718   0.178   5.949 -0.2528 -0.0658  0.6014
   33MOL     F610310   1.635   0.279   5.914  0.1418  0.3148 -0.1644
   33MOL     C710311   1.687   0.099   6.057 -0.1152  0.3800  0.2144
   33MOL     C810312   1.774   8.231   6.102  0.2495  0.9335  0.2364
   33MOL     C910313   1.911   7.945   6.050  0.3890 -0.7713 -0.5711
   33MOL    H1010314   1.997   8.104   6.164  0.9718  1.2795 -0.1942
   33MOL    H1110315   2.012   0.033   5.860  0.7104 -0.8961  1.6642
   33MOL    H1210316   1.868   0.220   5.795  2.9588  0.2199  0.9735
   33MOL    H1310317   1.593   0.120   6.107  0.7014  3.1834  0.6582
   33MOL    H1410318   1.744   8.179   6.191  2.8602  1.9940  1.7948
   33MOL    H1510319   1.970   7.876   6.111  1.8449 -1.0360 -2.2250
   33MOL    H1610320   1.808   7.949   6.085 -0.3609 -1.0695 -2.6690
   33MOL    H1710321   2.061   8.096   5.995  0.0179 -0.3063  1.3548
   33MOL    C1810322   1.904   7.883   5.912  0.1008 -0.2649  0.0238
   33MOL    C1910323   2.040   7.862   5.863  0.4748 -0.3761  0.6476
   33MOL    C2010324   2.072   7.921   5.733 -0.6967  0.1630  0.0014
   33MOL    C2110325   2.201   7.912   5.684 -0.1141  0.0493 -0.2096
   33MOL    C2210326   2.296   7.827   5.739  0.3839  0.1862  0.1572
   33MOL    F2310327   2.415   7.815   5.674 -0.2057 -0.0451  0.0245
   33MOL    C2410328   2.264   7.754   5.855 -0.9881 -0.8858 -0.2453
   33MOL    C2510329   2.135   7.774   5.919 -0.2799  0.2546  0.0292
   33MOL    C2610330   1.819   7.749   5.897 -0.9602  0.6350  0.2128
   33MOL    H2710331   1.847   7.948   5.845  2.5215  0.4667 -1.3987
   33MOL    H2810332   1.998   7.970   5.672 -0.0624  0.7444 -0.3182
   33MOL    H2910333   2.236   7.965   5.596  0.8357  1.7860  1.1935
   33MOL    H3010334   2.332   7.683   5.900 -1.3976 -0.3007  1.3129
   33MOL    H3110335   2.113   7.724   6.012 -1.5248  0.3266 -0.2303
   33MOL    H3210336   1.871   7.700   5.816 -0.4849  2.0443 -0.3562
   33MOL    H3310337   1.841   7.677   5.976 -1.7473 -0.4861 -0.5890
   33MOL    C3410338   1.669   7.767   5.891  0.0176 -0.3604  0.1946
   33MOL    C3510339   1.618   7.859   5.787 -0.5709 -0.0349  0.4344
   33MOL    C3610340   1.650   7.844   5.649  0.1672 -0.0062  0.7338
   33MOL    C3710341   1.616   7.948   5.554  0.2409  0.6458  0.2780
   33MOL    C3810342   1.547   8.062   5.598 -0.2198 -0.1103  0.0042
   33MOL    F3910343   1.500   8.158   5.520 -0.2654 -0.0249  0.4872
   33MOL    C4010344   1.520   8.071   5.734 -0.0589 -0.5742 -0.1836
   33MOL    C4110345   1.555   7.978   5.828 -0.8110  0.3689 -1.1294
   33MOL    C4210346   1.588   7.638   5.900 -0.3068  0.4078 -0.4601
   33MOL    H4310347   1.654   7.825   5.982  1.6746  1.1489 -0.4467
   33MOL    H4410348   1.702   7.757   5.615  0.9812  0.9622 -0.5344
   33MOL    H4510349   1.641   7.944   5.450  3.4966  1.2914  0.9922
   33MOL    H4610350   1.468   8.155   5.777 -1.0590 -0.3922 -1.7319
   33MOL    H4710351   1.538   7.982   5.934  0.0328  1.9980 -1.0515
   33MOL    H4810352   1.489   7.655   5.858  0.3378  0.5791 -1.9329
   33MOL    H4910353   1.632   7.573   5.825 -2.1162 -0.1748 -1.0427
   33MOL    C5010354   1.571   7.563   6.037  0.2407 -0.0808 -0.1735
   33MOL    C5110355   1.465   7.635   6.120  0.7139  0.4487 -0.0472
   33MOL    C5210356   1.484   7.653   6.258  0.0434  0.1857  0.3660
   33MOL    C5310357   1.373   7.691   6.345  0.1640  0.6319  0.2397
   33MOL    C5410358   1.252   7.729   6.288 -0.6174  0.7580  0.5364
   33MOL    F5510359   1.148   7.764   6.369 -0.3551 -0.4855  0.2197
   33MOL    C5610360   1.233   7.717   6.154  0.3519  0.2366  0.2211
   33MOL    C5710361   1.332   7.669   6.064  0.3441  0.6383 -0.0202
   33MOL    C5810362   1.540   7.404   6.050 -0.2680  0.1036  0.3473
   33MOL    H5910363   1.667   7.571   6.087 -0.1274 -1.5135  0.8119
   33MOL    H6010364   1.577   7.633   6.308 -0.2399 -2.5896 -0.1171
   33MOL    H6110365   1.385   7.686   6.452 -0.2203 -2.7442  0.1870
   33MOL    H6210366   1.133   7.744   6.124  0.5521  1.5011  0.6585
   33MOL    H6310367   1.308   7.650   5.961  0.3911 -0.3464  0.1495
   33MOL    H6410368   1.537   7.378   6.155  0.6222  1.7107  0.7831
   33MOL    H6510369   1.439   7.392   6.008  0.3910 -2.3141 -0.5967
   33MOL    C6610370   1.639   7.311   5.970  0.1668  0.0779  0.7228
   33MOL    C6710371   1.786   7.353   5.964 -0.9437  0.1187  0.2790
   33MOL    C6810372   1.850   7.363   5.838  0.1256  0.3915 -0.1502
   33MOL    C6910373   1.984   7.393   5.820 -0.6294  0.1783  0.1503
   33MOL    C7010374   2.062   7.422   5.935 -0.2867 -0.1929 -0.1242
   33MOL    F7110375   2.192   7.472   5.910  0.2388  0.2469 -0.0362
   33MOL    C7210376   2.000   7.420   6.060  0.0253 -0.3079 -0.2868
   33MOL    C7310377   1.865   7.385   6.077  0.0536 -0.2084 -0.1318
   33MOL    C7410378   1.646   7.170   6.030  0.0085  0.3488  0.1335
   33MOL    H7510379   1.602   7.296   5.869  2.4326 -1.1856  0.0396
   33MOL    H7610380   1.798   7.341   5.747  0.0529  0.2471 -0.0741
   33MOL    H7710381   2.034   7.393   5.725  1.1361 -0.2019  1.0595
   33MOL    H7810382   2.051   7.438   6.154  0.7319  0.2226 -0.7707
   33MOL    H7910383   1.817   7.396   6.173  1.6227 -1.7918  0.8654
   33MOL    H8010384   1.706   7.101   5.971 -1.4427  0.8766 -2.0452
   33MOL    H8110385   1.689   7.189   6.128  0.4672  2.2495 -0.4035
   33MOL    C8210386   1.510   7.101   6.044  0.1572 -0.1350 -0.4435
   33MOL    C8310387   1.428   7.100   5.917  0.4674  0.2487  0.6785
   33MOL    C8410388   1.479   7.051   5.794  0.0755  0.0876 -0.0912
   33MOL    C8510389   1.404   7.049   5.677 -0.5716 -0.2498  0.1720
   33MOL    C8610390   1.270   7.101   5.680  0.3093  0.0509 -0.1308
   33MOL    F8710391   1.192   7.098   5.571  0.1303 -0.3915  0.9336
   33MOL    C8810392   1.215   7.150   5.803 -0.5451  0.1062  0.2115
   33MOL    C8910393   1.295   7.148   5.919  0.0440  0.1866  0.0627
   33MOL    C9010394   1.513   6.963   6.112 -0.7047  0.3835 -0.3053
   33MOL    H9110395   1.445   7.159   6.109  0.9315 -0.6269  0.7830
   33MOL    H9210396   1.582   7.019   5.794  0.4055  1.1354 -0.8853
   33MOL    H9310397   1.450   7.013   5.586 -1.2419 -0.7156  0.0108
   33MOL    H9410398   1.114   7.188   5.803 -1.0638 -1.1611 -2.4521
   33MOL    H9510399   1.247   7.190   6.006 -0.3167  0.7322 -0.3996
   33MOL    H9610400   1.411   6.923   6.110 -1.1166  1.4409 -0.8264
   33MOL    H9710401   1.569   6.890   6.054  0.9604  1.1694  0.2715
   33MOL    C9810402   1.554   6.947   6.264 -0.1862  0.5207 -1.1103
   33MOL    C9910403   1.459   7.011   6.364  0.8770  0.2248  0.3340
   33MOL   C10010404   1.335   6.950   6.406 -0.0742  1.0174 -0.6262
   33MOL   C10110405   1.240   7.018   6.481  0.2322 -0.0325  0.3629
   33MOL   C10210406   1.264   7.150   6.517  0.5864 -0.2924 -0.3926
   33MOL   F10310407   1.178   7.217   6.595 -0.3219 -0.1605  0.1080
   33MOL   C10410408   1.375   7.216   6.464  0.1974 -0.2154  0.2012
   33MOL   C10510409   1.476   7.150   6.400  0.0360 -0.4423  0.6495
   33MOL   C10610410   1.597   6.811   6.299  0.1572  0.5239 -0.4587
   33MOL   H10710411   1.644   7.008   6.274 -0.0950  0.1431  0.4363
   33MOL   H10810412   1.313   6.850   6.370  0.6181  0.5040  0.3693
   33MOL   H10910413   1.143   6.979   6.507 -0.4788  0.5333 -1.3184
   33MOL   H11010414   1.376   7.322   6.484  0.4565  0.2408 -2.1384
   33MOL   H11110415   1.567   7.202   6.372  0.0809 -0.5959  0.5077
   33MOL   H11210416   1.516   6.744   6.272  1.0087  0.3706 -2.6632
   33MOL   H11310417   1.677   6.788   6.229  1.1490  3.6071 -0.4144
   33MOL   C11410418   1.648   6.779   6.444 -0.1424  0.1946  0.2591
   33MOL   C11510419   1.661   6.630   6.464  0.1184 -0.0277  0.1124
   33MOL   C11610420   1.544   6.557   6.503 -0.2748 -0.1587 -0.2899
   33MOL   C11710421   1.558   6.416   6.508 -0.5164  0.2819  0.0445
   33MOL   C11810422   1.667   6.349   6.469 -0.4148 -0.2558 -0.0168
   33MOL   F11910423   1.660   6.214   6.486  0.2448  0.0663 -0.2632
   33MOL   C12010424   1.785   6.416   6.431  0.1952 -0.4208 -0.3641
   33MOL   C12110425   1.780   6.555   6.434  0.5377 -0.6947  0.3439
   33MOL   C12210426   1.780   6.854   6.476 -0.2805 -0.0846  0.1243
   33MOL   H12310427   1.575   6.817   6.515  1.6771 -0.0815  2.3209
   33MOL   H12410428   1.459   6.618   6.528 -0.3530 -1.0333  1.7101
   33MOL   H12510429   1.469   6.362   6.536 -1.3291  1.9457  0.7168
   33MOL   H12610430   1.878   6.370   6.402  0.0321 -1.7719  1.1732
   33MOL   H12710431   1.868   6.603   6.393  0.3771 -0.6369  0.0667
   33MOL   H12810432   1.866   6.829   6.414 -0.2650 -0.8908  0.4733
   33MOL   H12910433   1.757   6.959   6.455  0.1862  0.5572  2.5713
   33MOL   C13010434   1.823   6.852   6.628 -0.6764 -0.7717 -0.4862
   33MOL   C13110435   1.955   6.924   6.634 -0.0550 -0.1707  0.7358
   33MOL   C13210436   2.068   6.839   6.625  0.2189 -0.4468  0.1148
   33MOL   C13310437   2.201   6.888   6.619  0.0743  0.5095 -1.1136
   33MOL   C13410438   2.225   7.024   6.616  0.2380  0.0602  0.4156
   33MOL   F13510439   2.350   7.068   6.606 -0.6069  0.1605 -0.1834
   33MOL   C13610440   2.110   7.110   6.609  0.2957 -0.4893  0.0681
   33MOL   C13710441   1.977   7.061   6.612 -0.2656 -0.1543 -0.1968
   33MOL   C13810442   1.724   6.916   6.734 -0.0258 -0.0648 -0.7356
   33MOL   H13910443   1.835   6.748   6.657  0.3373  0.1240  2.4876
   33MOL   H14010444   2.061   6.732   6.621 -2.8395 -0.3215  0.9209
   33MOL   H14110445   2.284   6.820   6.623 -0.1826  0.1678 -1.5168
   33MOL   H14210446   2.129   7.213   6.581 -1.0034 -0.0630  0.7147
   33MOL   H14310447   1.892   7.127   6.603  2.1172  2.8766 -1.4433
   33MOL   H14410448   1.691   7.011   6.693  1.9293  0.9170 -0.1075
   33MOL   H14510449   1.632   6.859   6.741 -1.1158  1.3978 -2.8548
   33MOL   C14610450   1.781   6.938   6.879  0.4913 -0.2605 -0.1819
   33MOL   C14710451   1.680   7.040   6.943 -0.6015 -0.2514  0.3092
   33MOL   C14810452   1.722   7.161   6.998  0.5792  0.1700  1.1684
   33MOL   C14910453   1.628   7.246   7.058 -0.2291  0.0883 -0.4798
   33MOL   C15010454   1.494   7.205   7.079 -0.1302  0.3406 -0.2421
   33MOL   F15110455   1.409   7.278   7.157  0.1840 -0.0650  0.2032
   33MOL   C15210456   1.452   7.085   7.019 -0.2958  1.0427 -0.2646
   33MOL   C15310457   1.541   7.001   6.948 -0.6545  0.0348 -0.3698
   33MOL   C15410458   1.786   6.804   6.951 -0.2238 -0.2177  0.3529
   33MOL   H15510459   1.875   6.991   6.873  1.1606 -1.1236  2.1701
   33MOL   H15610460   1.827   7.184   6.998  1.1978 -2.5326  2.0100
   33MOL   H15710461   1.659   7.328   7.122 -1.3814 -1.1117  1.6753
   33MOL   H15810462   1.351   7.052   7.036  0.9345 -2.8111  0.1542
   33MOL   H15910463   1.507   6.905   6.915  0.4806 -0.6646  0.4418
   33MOL   H16010464   1.724   6.803   7.041  1.7560  1.3533  1.7707
   33MOL   H16110465   1.740   6.729   6.887  1.3804  0.3209 -1.4635
   33MOL   C16210466   1.929   6.750   6.997 -0.2595  0.2304  0.2350
   33MOL   C16310467   2.015   6.857   7.061 -0.1084  0.2537  0.9622
   33MOL   C16410468   1.996   6.890   7.197 -0.1074 -0.2539 -0.2770
   33MOL   C16510469   2.052   7.009   7.238  0.0403  0.4064 -0.9533
   33MOL   C16610470   2.147   7.079   7.163 -0.4139 -0.0412  0.4481
   33MOL   F16710471   2.216   7.185   7.216 -0.2596  0.2089  0.2766
   33MOL   C16810472   2.166   7.041   7.028  0.3791 -1.1439  0.0042
   33MOL   C16910473   2.108   6.922   6.977  0.2172 -0.0641 -0.3761
   33MOL   C17010474   1.919   6.615   7.072  0.3125  0.2422  0.5347
   33MOL   H17110475   1.988   6.730   6.907 -0.6395  0.6797 -0.1173
   33MOL   H17210476   1.931   6.842   7.269 -0.8840 -2.7582 -2.5863
   33MOL   H17310477   2.026   7.043   7.337 -2.4129  1.0298 -1.7823
   33MOL   H17410478   2.237   7.094   6.966  0.3400  0.5361  1.3624
   33MOL   H17510479   2.132   6.890   6.877 -1.5120 -0.6762 -0.6173
   33MOL   H17610480   2.004   6.596   7.137 -0.6644 -1.8734  1.2579
   33MOL   H17710481   1.844   6.636   7.149  0.2024  1.4360  0.1142
   33MOL   C17810482   1.873   6.493   6.990 -0.4833  0.3332 -0.2265
   33MOL   C17910483   1.981   6.458   6.884  0.3125  0.1548  0.7238
   33MOL   C18010484   2.096   6.400   6.928  0.3936  0.7123 -0.0424
   33MOL   C18110485   2.198   6.381   6.838 -0.5817  0.3699  1.3806
   33MOL   C18210486   2.185   6.411   6.700  0.0285  0.0815 -0.1064
   33MOL   F18310487   2.295   6.409   6.623 -0.4320 -0.0232 -0.4089
   33MOL   C18410488   2.058   6.453   6.654 -0.3123  0.0908  0.3246
   33MOL   C18510489   1.960   6.486   6.748  0.3573  0.3940  0.0769
   33MOL   C18610490   1.841   6.371   7.078  0.4125 -0.9699  0.3653
   33MOL   H18710491   1.781   6.522   6.940 -0.0834  0.2284 -1.0339
   33MOL   H18810492   2.122   6.373   7.029  1.3347  2.2391  0.1389
   33MOL   H18910493   2.286   6.337   6.882 -1.5580 -1.9764  1.0577
   33MOL   H19010494   2.057   6.468   6.547 -1.8916 -1.1477  0.1657
   33MOL   H19110495   1.870   6.538   6.719  0.2168  1.9418  3.1042
   33MOL   H19210496   1.836   6.276   7.024 -0.6503  0.6958 -2.5593
   33MOL   H19310497   1.924   6.365   7.148 -1.6209 -0.8002  2.8699
   33MOL   C19410498   1.703   6.381   7.153 -0.1652  0.2541  0.6516
   33MOL   C19510499   1.587   6.392   7.051  0.5756  0.5473 -0.1017
   33MOL   C19610500   1.512   6.516   7.044 -0.1951 -0.3534  1.4568
   33MOL   C19710501   1.420   6.542   6.939  0.4663 -0.1264 -0.4969
   33MOL   C19810502   1.402   6.444   6.845 -0.8379 -0.3841  0.0715
   33MOL   F19910503   1.329   6.472   6.736 -0.7083  0.4399 -0.0264
   33MOL   C20010504   1.470   6.324   6.854  0.2415  0.7343  0.0012
   33MOL   C20110505   1.556   6.290   6.963 -0.0931  0.0983 -0.2799
   33MOL   C20210506   1.679   6.268   7.255 -0.1778 -0.3196  0.2739
   33MOL   H20310507   1.719   6.476   7.203 -0.9860  0.4322  0.5746
   33MOL   H20410508   1.533   6.590   7.119  0.4464 -0.2045  1.1332
   33MOL   H20510509   1.365   6.635   6.938 -0.0894 -0.4256  0.9284
   33MOL   H20610510   1.463   6.253   6.773  1.2208 -0.1717  0.7070
   33MOL   H20710511   1.601   6.193   6.974  0.3841  0.4594  1.1867
   33MOL   H20810512   1.577   6.274   7.292 -0.3298  1.9240 -0.4678
   33MOL   H20910513   1.675   6.169   7.209  0.2329  0.6036 -1.8156
   33MOL   C21010514   1.769   6.285   7.378 -0.3454 -0.3096  0.1002
   33MOL   C21110515   1.758   6.413   7.458  0.7173 -0.2999  0.1686
   33MOL   C21210516   1.631   6.462   7.505 -0.3418  0.2033 -0.1689
   33MOL   C21310517   1.622   6.575   7.584  0.8305 -0.1408 -0.0615
   33MOL   C21410518   1.742   6.650   7.610 -0.2816  0.1989 -0.2975
   33MOL   F21510519   1.733   6.767   7.680  0.0321  0.0560 -0.1593
   33MOL   C21610520   1.864   6.608   7.553  0.8443 -0.8326 -0.7712
   33MOL   C21710521   1.871   6.485   7.484 -0.0902 -0.4313  0.6014
   33MOL   C21810522   1.787   6.155   7.472  0.1069 -0.4376  0.4196
   33MOL   H21910523   1.871   6.291   7.341 -0.4241  0.8045  0.0644
   33MOL   H22010524   1.544   6.404   7.480  0.2340 -1.2263  1.0740
   33MOL   H22110525   1.530   6.608   7.630 -0.3721 -1.0960 -1.7282
   33MOL   H22210526   1.952   6.665   7.579 -1.6907  2.1046  1.7938
   33MOL   H22310527   1.960   6.452   7.433 -1.1944  0.5776 -2.0627
   33MOL   H22410528   1.861   6.185   7.546  1.0435 -2.2667  0.2441
   33MOL   H22510529   1.691   6.127   7.514 -1.3714 -0.3748 -2.7351
   33MOL   C22610530   1.849   6.038   7.398 -0.7954 -0.0894 -0.7200
   33MOL   C22710531   1.971   6.065   7.318 -0.3306  0.0365  0.1316
   33MOL   C22810532   1.971   6.042   7.178 -0.3658 -0.0467  0.3876
   33MOL   C22910533   2.090   6.050   7.107 -0.6149  0.6646 -0.5403
   33MOL   C23010534   2.210   6.083   7.173 -0.7392  0.3392  0.1720
   33MOL   F23110535   2.329   6.088   7.101 -0.1615 -0.0555 -0.4941
   33MOL   C23210536   2.212   6.107   7.313  0.4788  0.3849  0.8246
   33MOL   C23310537   2.087   6.101   7.380  0.7972 -0.1707  0.6121
   33MOL   C23410538   1.878   5.927   7.502  0.3496 -0.0090  0.2387
   33MOL   H23510539   1.772   6.000   7.330 -1.8096  0.0544  0.3432
   33MOL   H23610540   1.889   6.008   7.117 -0.5537 -0.2711  0.7607
   33MOL   H23710541   2.092   6.027   7.001 -1.3570  1.4427 -0.7338
   33MOL   H23810542   2.299   6.138   7.370  0.0450 -0.2289  1.8314
   33MOL   H23910543   2.082   6.108   7.488 -2.1826  2.5467  0.3733
   33MOL   H24010544   1.985   5.910   7.516  0.4202 -1.0250 -1.3961
   33MOL   H24110545   1.848   5.965   7.599 -2.8081 -2.0773  0.1679
   33MOL   C24210546   1.810   5.795   7.478 -0.1347  0.5750 -0.2286
   33MOL   C24310547   1.895   5.689   7.552 -0.0505 -0.3351  0.5697
   33MOL   C24410548   1.913   5.690   7.690 -0.7259 -0.3152  0.0404
   33MOL   C24510549   1.987   5.588   7.746  0.2522 -0.0888  0.5465
   33MOL   C24610550   2.037   5.486   7.670 -0.6788  0.5126  0.2046
   33MOL   F24710551   2.098   5.378   7.731 -1.2143 -0.1114  0.0963
   33MOL   C24810552   2.027   5.492   7.529  0.8630  0.4581  0.3543
   33MOL   C24910553   1.952   5.592   7.469  0.4264 -0.1005 -0.7871
   33MOL   C25010554   1.669   5.793   7.518 -0.2351 -0.1573 -0.2355
   33MOL   H25110555   1.814   5.774   7.371 -0.6548  3.2031 -0.8130
   33MOL   H25210556   1.867   5.771   7.745  0.6772  0.1592  0.5549
   33MOL   H25310557   1.987   5.590   7.854 -0.5084 -0.4455  0.5606
   33MOL   H25410558   2.078   5.416   7.471 -0.0227 -3.1901  4.0466
   33MOL   H25510559   1.938   5.599   7.362 -1.7063 -1.3632 -0.6419
   33MOL   H25610560   1.645   5.687   7.532  0.0230 -0.3751 -1.4047
   33MOL   H25710561   1.663   5.846   7.613  0.9837 -1.4417  0.5868
   33MOL   C25810562   1.557   5.854   7.433 -0.5327  0.5864  0.1984
   33MOL   C25910563   1.540   5.794   7.297  0.0270 -0.0632  0.0160
   33MOL   C26010564   1.591   5.850   7.172 -0.1631  0.9365 -0.0933
   33MOL   C26110565   1.567   5.784   7.046  0.8068  0.0939 -0.1762
   33MOL   C26210566   1.485   5.670   7.045 -0.0997 -0.0471 -0.1305
   33MOL   F26310567   1.447   5.620   6.927  0.2244  0.2734 -0.1408
   33MOL   C26410568   1.430   5.615   7.164 -0.0374  0.2099  1.0254
   33MOL   C26510569   1.475   5.668   7.285  0.5571 -0.2458 -0.8689
   33MOL   C26610570   1.427   5.866   7.516 -0.9201 -0.2160  0.4398
   33MOL   H26710571   1.587   5.955   7.408 -0.2969  1.1435  2.6182
   33MOL   H26810572   1.657   5.935   7.171  0.9780  0.0554 -0.1862
   33MOL   H26910573   1.606   5.833   6.958  3.1478 -2.3219 -0.5582
   33MOL   H27010574   1.359   5.534   7.154 -1.6067  1.5960  0.8348
   33MOL   H27110575   1.424   5.627   7.371 -1.4607 -0.3357 -2.0727
   33MOL   H27210576   1.412   5.767   7.559  1.0041 -0.8650 -0.3340
   33MOL   H27310577   1.447   5.931   7.600  1.2508 -0.4051  0.0775
   33MOL   C27410578   1.302   5.908   7.430 -0.4170 -0.5391  0.4208
   33MOL   C27510579   1.175   5.889   7.517  0.5049 -0.0688 -0.1931
   33MOL   C27610580   1.149   5.976   7.622  0.1960 -0.0648  0.2558
   33MOL   C27710581   1.027   5.971   7.696 -0.2468 -0.4584  0.8470
   33MOL   C27810582   0.943   5.859   7.675 -0.7572  0.4810  0.8566
   33MOL   F27910583   0.821   5.850   7.735  0.1418 -0.2774  0.2517
   33MOL   C28010584   0.976   5.762   7.576 -0.3271  1.0061  0.3655
   33MOL   C28110585   1.089   5.778   7.496 -0.3218  0.1877 -0.1830
   33MOL   C28210586   1.309   6.054   7.387  0.2647 -0.2423 -0.6642
   33MOL   H28310587   1.286   5.846   7.342 -1.1977  0.0082  0.1656
   33MOL   H28410588   1.215   6.062   7.626 -0.1263  0.2783 -1.2495
   33MOL   H28510589   1.006   6.042   7.775  0.2104 -0.7046  1.1899
   33MOL   H28610590   0.920   5.674   7.547  0.3688  1.0906 -1.2901
   33MOL   H28710591   1.111   5.700   7.425 -0.1402  0.7515 -0.7556
   33MOL   H28810592   1.342   6.113   7.472  3.0655 -1.1039 -1.1026
   33MOL   H28910593   1.396   6.042   7.323 -0.0439  1.0247 -1.3322
   33MOL   C29010594   1.187   6.115   7.312 -0.4276 -0.1241 -0.5209
   33MOL   C29110595   1.186   6.265   7.359 -0.4275 -0.1036  0.4611
   33MOL   C29210596   1.276   6.364   7.316  0.3421 -0.4221  0.1044
   33MOL   C29310597   1.259   6.498   7.359  0.1315 -0.2358 -0.1213
   33MOL   C29410598   1.162   6.527   7.449  0.6406 -0.3383 -0.1203
   33MOL   F29510599   1.145   6.658   7.484  0.1369 -0.0871 -0.4957
   33MOL   C29610600   1.081   6.432   7.512  0.1110  0.0730 -0.1908
   33MOL   C29710601   1.094   6.300   7.465 -0.1320 -0.2208 -0.4734
   33MOL   C29810602   1.194   6.113   7.161  0.3075  0.3265  0.0858
   33MOL   H29910603   1.093   6.066   7.337 -0.8195 -0.1193 -1.9342
   33MOL   H30010604   1.354   6.348   7.242  2.2430 -1.5516  2.2882
   33MOL   H30110605   1.325   6.568   7.311 -0.2136  0.1321 -0.0621
   33MOL   H30210606   1.016   6.462   7.593  0.5691 -1.0439  0.6145
   33MOL   H30310607   1.039   6.224   7.518 -0.4004  0.7875  0.7297
   33MOL   H30410608   1.136   6.196   7.121 -0.7574 -1.1000 -1.4412
   33MOL   H30510609   1.291   6.155   7.135  0.0805  0.3881 -0.6764
   33MOL   C30610610   1.161   5.973   7.103  0.4529 -0.6901 -0.1198
   33MOL   C30710611   1.021   5.914   7.130  0.4473  0.0767 -0.2251
   33MOL   C30810612   0.989   5.779   7.114  0.4618 -0.3045 -0.7410
   33MOL   C30910613   0.863   5.734   7.160  0.2346 -0.1191  0.1859
   33MOL   C31010614   0.765   5.823   7.200  0.3667 -0.1203 -0.6869
   33MOL   F31110615   0.638   5.785   7.226 -0.3153  0.1369  0.4219
   33MOL   C31210616   0.790   5.963   7.204 -0.2767 -0.2162  0.0551
   33MOL   C31310617   0.924   6.010   7.174 -0.1107 -0.5542 -0.6046
   33MOL   C31410618   1.186   5.984   6.950 -0.1076  0.4933  0.6463
   33MOL   H31510619   1.237   5.904   7.139 -1.5382 -2.6398  0.4835
   33MOL   H31610620   1.062   5.704   7.088  1.0661  0.1342 -0.3309
   33MOL   H31710621   0.833   5.630   7.163  0.1073 -0.0393  2.7453
   33MOL   H31810622   0.713   6.031   7.238 -2.5644 -2.2031 -0.9068
   33MOL   H31910623   0.936   6.116   7.188  2.3425 -0.6060 -2.1301
   33MOL   H32010624   1.104   6.044   6.910 -1.2881 -0.0005  2.3068
   33MOL   H32110625   1.286   6.020   6.924  0.1544 -0.1066  0.8319
   33MOL   H32210626   1.186   5.893   6.890 -0.9749  0.9852 -0.1213
   34MOL     C110627   3.973   2.410   3.321  0.2699 -0.3349 -0.1355
   34MOL     C210628   4.039   2.309   3.417 -0.4007  0.2189 -0.4609
   34MOL     C310629   4.144   2.348   3.506 -0.2364 -0.1313  0.3546
   34MOL     C410630   4.212   2.257   3.587  0.4719 -0.1495 -0.0694
   34MOL     C510631   4.175   2.121   3.584 -0.1739  0.2923 -0.0802
   34MOL     F610632   4.240   2.030   3.663  0.3875  0.3460 -0.3462
   34MOL     C710633   4.078   2.073   3.494  0.1346  0.2628 -0.1570
   34MOL     C810634   4.004   2.167   3.423  0.0566  0.0768  0.3669
   34MOL     C910635   4.079   2.471   3.220  0.4975  0.2645 -0.2586
   34MOL    H1010636   3.921   2.491   3.373  0.4172  1.3755 -2.6104
   34MOL    H1110637   4.172   2.452   3.499 -0.1403 -0.2416 -0.9465
   34MOL    H1210638   4.299   2.286   3.645  0.0524  0.7545  0.1227
   34MOL    H1310639   4.052   1.968   3.493 -1.8610  0.7420 -1.0051
   34MOL    H1410640   3.935   2.119   3.354  0.8609 -0.5532 -0.0064
   34MOL    H1510641   4.030   2.555   3.170  1.1753  0.0127 -1.3833
   34MOL    H1610642   4.160   2.514   3.279  0.8658 -0.4154 -0.2739
   34MOL    H1710643   3.896   2.356   3.265 -0.9770  1.4469 -0.1606
   34MOL    C1810644   4.118   2.375   3.102 -0.3418  0.0920 -0.3415
   34MOL    C1910645   4.002   2.333   3.013  0.3437 -0.5358  0.4941
   34MOL    C2010646   3.966   2.193   3.013 -0.2147 -0.4472 -0.0673
   34MOL    C2110647   3.856   2.146   2.935 -0.0916  0.0078  0.1535
   34MOL    C2210648   3.782   2.232   2.860 -0.1398  0.6610 -0.0970
   34MOL    F2310649   3.670   2.184   2.798  0.0963 -0.0505 -0.3216
   34MOL    C2410650   3.819   2.366   2.849 -0.4257 -0.2377 -0.1671
   34MOL    C2510651   3.923   2.415   2.933 -0.4851  0.6451  0.6634
   34MOL    C2610652   4.242   2.444   3.029  0.2056  0.6399  0.5390
   34MOL    H2710653   4.162   2.280   3.133 -0.8983 -0.0883 -0.0939
   34MOL    H2810654   4.020   2.129   3.082  0.2119  0.5386  0.5135
   34MOL    H2910655   3.822   2.044   2.947  0.4621 -0.2017 -0.0123
   34MOL    H3010656   3.758   2.424   2.781  1.6930  1.6706 -0.5065
   34MOL    H3110657   3.952   2.517   2.911  0.6106 -0.0132 -1.0120
   34MOL    H3210658   4.231   2.434   2.921  2.0752  1.0172  0.2910
   34MOL    H3310659   4.241   2.552   3.040  0.2512  0.6470  0.4668
   34MOL    C3410660   4.386   2.393   3.060  0.1602 -0.8099  0.2490
   34MOL    C3510661   4.431   2.405   3.205 -0.0402 -0.0809  0.2404
   34MOL    C3610662   4.471   2.529   3.262  0.3935  0.4872 -0.0993
   34MOL    C3710663   4.544   2.543   3.384 -0.1594  0.0221 -0.2189
   34MOL    C3810664   4.569   2.426   3.460  0.3779  0.4222  0.1421
   34MOL    F3910665   4.633   2.426   3.580  0.2380  0.2127 -0.5583
   34MOL    C4010666   4.518   2.302   3.413 -0.2535 -0.3135 -0.7424
   34MOL    C4110667   4.451   2.288   3.288  0.8079  0.0701 -0.9709
   34MOL    C4210668   4.421   2.257   2.994 -0.8234 -0.4384 -0.5793
   34MOL    H4310669   4.441   2.474   3.013 -0.3009  0.4771  1.8661
   34MOL    H4410670   4.463   2.619   3.203 -1.2542 -0.9826 -2.1787
   34MOL    H4510671   4.580   2.641   3.413  0.9452 -0.2028 -0.8320
   34MOL    H4610672   4.544   2.224   3.484  0.0589 -0.7709 -1.3579
   34MOL    H4710673   4.423   2.192   3.249  0.7620 -0.9696  1.5197
   34MOL    H4810674   4.513   2.214   3.034 -1.3272 -0.2732  0.7743
   34MOL    H4910675   4.340   2.191   3.024 -1.4570 -0.2125 -1.7318
   34MOL    C5010676   4.432   2.243   2.839 -0.7329 -0.0414 -0.0821
   34MOL    C5110677   4.513   2.359   2.770  0.2421  0.0258  0.1847
   34MOL    C5210678   4.448   2.482   2.734  0.6950 -0.3149 -0.9890
   34MOL    C5310679   4.526   2.591   2.684  0.2247 -0.1206  0.0621
   34MOL    C5410680   4.665   2.587   2.676  0.3443  0.5383 -0.1334
   34MOL    F5510681   4.724   2.705   2.642 -0.4746  0.4534 -0.6776
   34MOL    C5610682   4.734   2.469   2.722 -0.8613 -0.8914  0.8473
   34MOL    C5710683   4.658   2.359   2.773 -0.5742  0.1679 -1.1845
   34MOL    C5810684   4.489   2.098   2.806  0.2476  0.2621 -0.7664
   34MOL    H5910685   4.329   2.258   2.807 -0.9562  1.0001  1.1145
   34MOL    H6010686   4.340   2.487   2.738  0.8414  3.3385  2.4078
   34MOL    H6110687   4.484   2.688   2.663  1.1014  0.3746  0.5673
   34MOL    H6210688   4.841   2.472   2.737 -0.8700 -0.2308  0.8006
   34MOL    H6310689   4.719   2.279   2.813 -0.8653 -1.0471 -3.1040
   34MOL    H6410690   4.592   2.096   2.841 -0.1593  1.3919  0.5253
   34MOL    H6510691   4.434   2.027   2.868 -0.7176 -0.4499 -2.3989
   34MOL    C6610692   4.478   2.050   2.659 -0.2259  0.1626  0.4021
   34MOL    C6710693   4.597   2.102   2.576 -0.0281  0.9432 -0.9239
   34MOL    C6810694   4.726   2.039   2.585 -0.6078  0.8385 -0.8788
   34MOL    C6910695   4.832   2.101   2.521  0.1228 -0.2433 -0.5673
   34MOL    C7010696   4.812   2.211   2.441  0.0088  0.5357 -0.4952
   34MOL    F7110697   4.923   2.282   2.393 -0.0226 -0.0761  0.0459
   34MOL    C7210698   4.689   2.269   2.432  0.1273  0.7366  0.1379
   34MOL    C7310699   4.577   2.214   2.493  0.4569 -0.0210 -0.0057
   34MOL    C7410700   4.466   1.896   2.639 -0.1737  0.3242 -0.9195
   34MOL    H7510701   4.392   2.093   2.609 -0.8080 -2.4542 -0.9337
   34MOL    H7610702   4.739   1.951   2.646  0.0817 -1.4154 -4.1317
   34MOL    H7710703   4.931   2.061   2.535 -0.1118 -1.1135 -1.3122
   34MOL    H7810704   4.679   2.353   2.365  2.2881  0.4515 -0.6022
   34MOL    H7910705   4.486   2.271   2.482 -0.1439 -1.0859 -0.7163
   34MOL    H8010706   4.498   1.873   2.538  0.8840 -1.5737 -0.1840
   34MOL    H8110707   4.535   1.859   2.715  0.7124  0.4984 -1.6338
   34MOL    C8210708   4.318   1.846   2.666 -0.2142  0.1188  0.5372
   34MOL    C8310709   4.227   1.880   2.551  0.3988  0.1515 -0.1353
   34MOL    C8410710   4.241   1.808   2.432 -0.0556  0.5260  0.1836
   34MOL    C8510711   4.166   1.835   2.323 -0.0225 -0.1266  0.3704
   34MOL    C8610712   4.092   1.954   2.320 -0.1729 -0.5140 -0.2662
   34MOL    F8710713   4.020   1.988   2.209  0.1429  0.1792 -0.2452
   34MOL    C8810714   4.089   2.040   2.436 -0.3338 -0.4588 -0.0749
   34MOL    C8910715   4.152   2.000   2.552  0.1754  0.7001 -0.9158
   34MOL    C9010716   4.316   1.697   2.699  0.5940 -0.5444  1.1789
   34MOL    H9110717   4.283   1.900   2.753 -0.4204  3.7867 -1.7001
   34MOL    H9210718   4.296   1.715   2.423 -0.1579  0.4764  0.0724
   34MOL    H9310719   4.183   1.773   2.237  1.5412  0.5677  0.1573
   34MOL    H9410720   4.023   2.126   2.440  0.2866  0.0033  0.2712
   34MOL    H9510721   4.145   2.053   2.646  1.6490  0.6668 -0.7648
   34MOL    H9610722   4.218   1.655   2.678  0.7153 -0.2285 -0.0699
   34MOL    H9710723   4.396   1.650   2.641  1.0118 -0.6892  1.8649
   34MOL    C9810724   4.346   1.669   2.849 -0.4269 -0.5878  0.0800
   34MOL    C9910725   4.248   1.739   2.943 -0.5475 -0.2926 -0.2685
   34MOL   C10010726   4.304   1.822   3.035 -1.1769 -0.4042 -0.0455
   34MOL   C10110727   4.222   1.887   3.130 -0.3715  0.0818 -0.3067
   34MOL   C10210728   4.086   1.858   3.136 -0.0507  0.0205  0.5713
   34MOL   F10310729   4.007   1.920   3.229  0.0025  0.3255 -0.5445
   34MOL   C10410730   4.027   1.774   3.043  0.6666  1.0588 -0.7007
   34MOL   C10510731   4.109   1.724   2.942  0.7483  0.2447 -0.4003
   34MOL   C10610732   4.374   1.525   2.894 -0.2397 -0.1139  1.0564
   34MOL   H10710733   4.445   1.712   2.866  0.0250 -1.8983  0.8279
   34MOL   H10810734   4.410   1.844   3.031 -1.5088  0.8083 -4.5571
   34MOL   H10910735   4.250   1.965   3.199 -0.0936 -0.0244 -0.2946
   34MOL   H11010736   3.921   1.754   3.041  0.7965 -0.1410  2.1445
   34MOL   H11110737   4.068   1.664   2.862 -1.3703 -1.6446  2.0011
   34MOL   H11210738   4.368   1.512   3.002 -2.8170 -1.9476  0.7490
   34MOL   H11310739   4.291   1.465   2.856  0.3787 -2.2354  2.9256
   34MOL   C11410740   4.499   1.454   2.846 -0.1394 -0.2664  0.0236
   34MOL   C11510741   4.624   1.536   2.882 -0.4583 -0.3193 -0.1400
   34MOL   C11610742   4.713   1.582   2.773 -0.6690 -0.0412 -0.3374
   34MOL   C11710743   4.825   1.659   2.802 -0.2965  0.8127 -0.4691
   34MOL   C11810744   4.846   1.705   2.934  0.0131  0.0551  0.1274
   34MOL   F11910745   4.958   1.777   2.964  0.2515 -0.1857  0.3814
   34MOL   C12010746   4.759   1.658   3.039  0.0924 -0.5865 -0.0934
   34MOL   C12110747   4.657   1.565   3.018  0.6290  0.3570  0.5249
   34MOL   C12210748   4.498   1.310   2.907 -0.1868 -0.3506 -0.3056
   34MOL   H12310749   4.490   1.444   2.737  0.9173 -0.4155 -0.0530
   34MOL   H12410750   4.699   1.555   2.669 -3.0817  2.2243 -0.6460
   34MOL   H12510751   4.892   1.694   2.724  0.6232  0.9514  0.3734
   34MOL   H12610752   4.774   1.698   3.139  3.8102 -0.6773 -0.5344
   34MOL   H12710753   4.596   1.536   3.103 -0.4958 -0.4945 -0.5419
   34MOL   H12810754   4.510   1.311   3.015  0.4833  2.6161 -0.3495
   34MOL   H12910755   4.405   1.259   2.883  0.4836 -0.0608 -3.9014
   34MOL   C13010756   4.617   1.225   2.859  0.9031  0.5632  0.2281
   34MOL   C13110757   4.608   1.088   2.926 -0.5245 -0.1705 -0.2077
   34MOL   C13210758   4.677   1.067   3.043 -0.1617  0.0709 -0.0442
   34MOL   C13310759   4.669   0.941   3.110 -0.0619  0.1067 -0.2705
   34MOL   C13410760   4.590   0.840   3.050  0.5608 -0.3316 -0.4528
   34MOL   F13510761   4.582   0.719   3.113  0.4137  0.1710  0.2082
   34MOL   C13610762   4.517   0.861   2.932 -0.3292 -0.2017 -0.6057
   34MOL   C13710763   4.528   0.982   2.870 -1.2186  0.2048 -0.0748
   34MOL   C13810764   4.634   1.210   2.704 -0.5611 -0.0585  0.0295
   34MOL   H13910765   4.713   1.259   2.899  1.2792  0.1966 -0.3556
   34MOL   H14010766   4.726   1.150   3.091 -1.5595 -0.0955  1.6949
   34MOL   H14110767   4.718   0.931   3.206  0.0787  1.3291 -0.2067
   34MOL   H14210768   4.448   0.791   2.887  0.7302 -2.9532  1.8431
   34MOL   H14310769   4.472   1.008   2.782  0.2259  1.3725 -0.6579
   34MOL   H14410770   4.557   1.140   2.672  0.2916 -2.1670  2.4504
   34MOL   H14510771   4.617   1.306   2.656  2.9360  1.0704  0.8803
   34MOL   C14610772   4.781   1.167   2.660 -0.3326  0.4477 -0.4806
   34MOL   C14710773   4.793   1.011   2.646 -0.5819  0.3492  0.5320
   34MOL   C14810774   4.855   0.937   2.751  0.6899 -0.3710  0.1476
   34MOL   C14910775   4.863   0.798   2.741  0.8242  0.3122  0.1082
   34MOL   C15010776   4.802   0.724   2.636  0.1218  0.6072 -0.1167
   34MOL   F15110777   4.805   0.588   2.628 -0.6480  0.2864 -0.4304
   34MOL   C15210778   4.742   0.802   2.527 -0.9713  0.1358 -0.6623
   34MOL   C15310779   4.736   0.941   2.535 -0.3122 -0.0459  0.9954
   34MOL   C15410780   4.851   1.232   2.537  0.0513 -0.4148 -0.4055
   34MOL   H15510781   4.847   1.191   2.743 -1.1301 -1.8323  0.8857
   34MOL   H15610782   4.893   0.975   2.845 -1.4892 -1.2011  1.4007
   34MOL   H15710783   4.912   0.735   2.814  1.6467  0.8707  0.0358
   34MOL   H15810784   4.701   0.742   2.447  2.0721 -2.5375 -0.3326
   34MOL   H15910785   4.690   0.996   2.454  0.6513 -1.1484 -0.3410
   34MOL   H16010786   4.792   1.215   2.447 -0.5758 -4.3196  0.6810
   34MOL   H16110787   4.848   1.341   2.543 -0.3204 -0.4252 -0.4325
   34MOL   C16210788   4.997   1.193   2.503  0.1256  0.3906  0.0426
   34MOL   C16310789   5.023   1.200   2.352  0.1968 -0.3719  0.5561
   34MOL   C16410790   5.102   1.110   2.284  0.6781  0.4686  0.5649
   34MOL   C16510791   5.129   1.120   2.147  0.1076 -0.0458  0.3953
   34MOL   C16610792   5.062   1.225   2.073 -0.0769  0.2161 -0.2380
   34MOL   F16710793   5.082   1.221   1.945 -0.3579 -0.1956 -0.8206
   34MOL   C16810794   4.978   1.322   2.143 -0.0107 -0.7262 -0.2122
   34MOL   C16910795   4.972   1.312   2.283  0.4634 -0.1448  0.4425
   34MOL   C17010796   5.100   1.277   2.580 -0.0901  0.2228 -0.1632
   34MOL   H17110797   5.010   1.090   2.536  1.5911 -0.1081 -1.9717
   34MOL   H17210798   5.145   1.024   2.334 -0.9904 -1.3176 -1.0001
   34MOL   H17310799   5.200   1.052   2.102 -0.0394  0.7246 -1.0419
   34MOL   H17410800   4.930   1.412   2.106  0.8666 -0.5669 -0.9873
   34MOL   H17510801   4.915   1.384   2.340  0.5697  1.2418 -1.1618
   34MOL   H17610802   5.104   1.372   2.525 -0.4275 -0.5395 -1.5290
   34MOL   H17710803   5.059   1.281   2.681 -1.5907  1.5080 -0.7934
   34MOL   C17810804   5.245   1.229   2.594 -0.3657 -0.1340 -0.5034
   34MOL   C17910805   5.330   1.336   2.659  0.0525 -0.1545 -0.2810
   34MOL   C18010806   5.399   1.429   2.576  0.0848 -0.7508  0.5713
   34MOL   C18110807   5.477   1.535   2.634  0.1169  0.0928  0.4540
   34MOL   C18210808   5.465   1.567   2.770 -0.0622  0.1922  0.7992
   34MOL   F18310809   5.546   1.665   2.819 -0.1450 -0.2052  0.3365
   34MOL   C18410810   5.388   1.478   2.846 -0.7201  0.1578 -0.1492
   34MOL   C18510811   5.330   1.363   2.800  0.2050 -0.3363 -0.0696
   34MOL   C18610812   5.255   1.091   2.664 -0.5794  0.7863 -0.6395
   34MOL   H18710813   5.278   1.224   2.491  2.1558  2.7235  0.1138
   34MOL   H18810814   5.395   1.413   2.470 -1.5771 -0.9474  0.6511
   34MOL   H18910815   5.542   1.584   2.562 -0.7349  0.3086 -0.1799
   34MOL   H19010816   5.376   1.479   2.954 -0.8520 -0.2609 -0.1567
   34MOL   H19110817   5.278   1.302   2.872 -0.8732 -1.2330 -1.5571
   34MOL   H19210818   5.180   1.079   2.743 -0.1927  3.0873  0.1029
   34MOL   H19310819   5.207   1.015   2.603  0.4406  0.5892 -1.2104
   34MOL   C19410820   5.392   1.033   2.702 -0.4104 -0.0013  0.4424
   34MOL   C19510821   5.388   0.999   2.849  0.0427 -0.0965  0.0134
   34MOL   C19610822   5.481   1.052   2.935 -0.7585  0.6664 -0.9028
   34MOL   C19710823   5.488   1.015   3.066 -1.1489 -0.1037  0.4403
   34MOL   C19810824   5.393   0.927   3.123  0.2129  0.5610 -0.4216
   34MOL   F19910825   5.411   0.879   3.248 -0.2208  0.0465  0.2378
   34MOL   C20010826   5.288   0.880   3.039  0.0026  0.6374 -0.1459
   34MOL   C20110827   5.293   0.908   2.901 -0.1348  0.1615  0.1155
   34MOL   C20210828   5.437   0.906   2.626 -0.4363 -0.2899 -0.0591
   34MOL   H20310829   5.468   1.109   2.683  0.6530 -1.7422 -2.6901
   34MOL   H20410830   5.555   1.118   2.892 -0.6664 -0.1842 -2.0464
   34MOL   H20510831   5.579   1.029   3.123 -1.3061  1.7715  0.2696
   34MOL   H20610832   5.224   0.810   3.091  0.5472  0.6305  0.5181
   34MOL   H20710833   5.218   0.871   2.833  0.9428 -0.7198 -0.6094
   34MOL   H20810834   5.531   0.879   2.673 -1.2264 -0.6102  1.3442
   34MOL   H20910835   5.368   0.825   2.646  1.1482 -0.9285  3.0344
   34MOL   C21010836   5.470   0.929   2.476 -0.1091  0.3057 -0.2837
   34MOL   C21110837   5.594   1.012   2.459 -0.3820  0.5609 -0.4733
   34MOL   C21210838   5.584   1.149   2.425  0.4261  0.1700  0.0225
   34MOL   C21310839   5.689   1.239   2.423 -0.2777 -0.0245  0.1841
   34MOL   C21410840   5.817   1.192   2.453  0.4785 -0.3181  0.3326
   34MOL   F21510841   5.922   1.282   2.453 -0.0866 -0.3388 -0.0276
   34MOL   C21610842   5.834   1.067   2.495 -0.7622  0.0155 -0.5833
   34MOL   C21710843   5.725   0.978   2.499  0.2692 -0.3603 -0.4952
   34MOL   C21810844   5.492   0.794   2.400 -0.0957  0.5660  0.6813
   34MOL   H21910845   5.386   0.978   2.427 -0.2098  1.3527  0.9133
   34MOL   H22010846   5.488   1.182   2.389  0.1979  0.8833  1.2673
   34MOL   H22110847   5.688   1.342   2.391  1.0045 -0.1045 -0.1264
   34MOL   H22210848   5.927   1.030   2.536  0.1486  0.9675 -1.7547
   34MOL   H22310849   5.738   0.873   2.521 -0.0873 -0.5236 -1.0351
   34MOL   H22410850   5.524   0.806   2.297 -1.1395  1.6731  0.4773
   34MOL   H22510851   5.588   0.751   2.428 -0.3609 -0.2303  0.4054
   34MOL   C22610852   5.384   0.692   2.392  0.1778 -0.2859 -0.6391
   34MOL   C22710853   5.284   0.710   2.279 -0.3122  0.0556  0.4132
   34MOL   C22810854   5.325   0.699   2.141  0.0533  0.1560 -0.4494
   34MOL   C22910855   5.222   0.719   2.046 -0.1651  0.3426 -0.4536
   34MOL   C23010856   5.093   0.758   2.082 -0.5870 -0.9734  0.0960
   34MOL   F23110857   5.007   0.792   1.984 -0.5290  0.4055  0.3205
   34MOL   C23210858   5.057   0.777   2.218 -0.1688 -0.3660 -0.2504
   34MOL   C23310859   5.154   0.749   2.312  0.5480 -0.7578 -0.4853
   34MOL   C23410860   5.438   0.548   2.406 -0.1799 -0.9795 -0.2911
   34MOL   H23510861   5.326   0.698   2.484  1.5294  0.2112  0.1757
   34MOL   H23610862   5.427   0.675   2.116  0.3759 -0.2618  1.2113
   34MOL   H23710863   5.238   0.718   1.939 -0.5495 -0.9448 -0.5020
   34MOL   H23810864   4.956   0.810   2.234 -0.7038 -1.4170 -1.3912
   34MOL   H23910865   5.123   0.764   2.414  0.5871 -0.3595 -0.5294
   34MOL   H24010866   5.357   0.485   2.371 -0.0347 -1.6039  0.4924
   34MOL   H24110867   5.521   0.541   2.336 -1.1646  0.2746 -1.6205
   34MOL   C24210868   5.478   0.500   2.552 -0.0900 -0.1213  0.9392
   34MOL   C24310869   5.363   0.515   2.651 -0.5102  0.0952  0.5532
   34MOL   C24410870   5.397   0.551   2.780  0.2630  0.1497  0.0696
   34MOL   C24510871   5.308   0.580   2.884 -0.0359  0.2974  0.0186
   34MOL   C24610872   5.174   0.569   2.859 -0.7121 -0.3127 -0.1644
   34MOL   F24710873   5.087   0.613   2.950 -0.1351 -0.4225  0.4751
   34MOL   C24810874   5.126   0.527   2.728  0.4792 -0.0179 -0.7368
   34MOL   C24910875   5.226   0.490   2.625  0.5390 -0.5329  0.3578
   34MOL   C25010876   5.519   0.350   2.542 -0.0697 -0.2049  0.1147
   34MOL   H25110877   5.567   0.560   2.569 -0.7664  0.8328  1.1106
   34MOL   H25210878   5.502   0.561   2.804  0.7819 -0.7787 -1.7492
   34MOL   H25310879   5.339   0.627   2.976  3.1450 -0.8762 -0.3927
   34MOL   H25410880   5.020   0.521   2.705  0.1595  2.2185  0.0343
   34MOL   H25510881   5.187   0.461   2.529  0.5846 -1.8126  0.7193
   34MOL   H25610882   5.539   0.328   2.647 -0.6380 -1.3575 -0.0060
   34MOL   H25710883   5.438   0.277   2.547 -0.4790  0.2361 -0.1050
   34MOL   C25810884   5.638   0.308   2.455  0.6000 -0.4558  0.3196
   34MOL   C25910885   5.768   0.301   2.535 -0.9115 -0.3738  0.3036
   34MOL   C26010886   5.852   0.412   2.542  0.0772 -0.4351 -0.1042
   34MOL   C26110887   5.976   0.410   2.607 -0.1076  0.3756 -0.0983
   34MOL   C26210888   6.015   0.297   2.678 -0.1565  0.2480 -0.0842
   34MOL   F26310889   6.131   0.294   2.749 -0.0028 -0.1197 -0.2039
   34MOL   C26410890   5.932   0.179   2.678 -0.8010  0.2370 -0.4083
   34MOL   C26510891   5.806   0.186   2.611  0.6242 -0.1710 -0.6311
   34MOL   C26610892   5.607   0.192   2.358  0.3290  0.7187 -0.3081
   34MOL   H26710893   5.653   0.390   2.384 -0.2181 -0.5919 -0.0169
   34MOL   H26810894   5.828   0.501   2.485  0.0998 -0.7000 -0.5307
   34MOL   H26910895   6.047   0.491   2.612  1.1228 -0.6274 -0.9482
   34MOL   H27010896   5.960   0.090   2.732  1.9763  0.9692 -0.5855
   34MOL   H27110897   5.738   0.103   2.604 -1.9594  1.7048  1.2218
   34MOL   H27210898   5.703   0.162   2.316 -0.1812  0.4506 -1.2997
   34MOL   H27310899   5.587   0.101   2.415 -1.4868  0.0371 -1.9822
   34MOL   C27410900   5.497   0.213   2.254  0.1072  0.2706  0.2924
   34MOL   C27510901   5.557   0.279   2.125  0.4218  0.3626  1.2891
   34MOL   C27610902   5.519   0.409   2.084  0.3928 -0.0210  0.8461
   34MOL   C27710903   5.568   0.466   1.963  0.0885  0.0088 -0.6301
   34MOL   C27810904   5.652   0.394   1.881  0.2876  0.2035  0.0807
   34MOL   F27910905   5.694   0.435   1.759  0.2624 -0.3128 -0.4977
   34MOL   C28010906   5.688   0.269   1.919 -0.2668  0.3889 -0.1650
   34MOL   C28110907   5.645   0.211   2.038 -0.9756 -0.3138 -0.0630
   34MOL   C28210908   5.426   0.082   2.214  0.0072 -0.2263  0.3526
   34MOL   H28310909   5.426   0.280   2.302  0.9757  3.0232 -2.0753
   34MOL   H28410910   5.451   0.472   2.138 -1.4956 -0.3461 -1.0810
   34MOL   H28510911   5.530   0.561   1.930 -0.8761 -0.2801 -0.3891
   34MOL   H28610912   5.749   0.212   1.850 -0.6455  0.2666 -0.3991
   34MOL   H28710913   5.685   0.117   2.074  1.2489  1.1285  1.3526
   34MOL   H28810914   5.487   0.020   2.148 -0.5566 -1.1609  0.6876
   34MOL   H28910915   5.419   0.021   2.304 -1.3732 -1.7841 -0.7781
   34MOL   C29010916   5.285   0.091   2.151 -0.0402  0.2196  0.2804
   34MOL   C29110917   5.182   0.156   2.243  0.2703 -0.4603  0.4246
   34MOL   C29210918   5.129   0.086   2.348  0.2281 -0.1112  0.1216
   34MOL   C29310919   5.037   0.150   2.435  0.3851  0.5148 -0.1118
   34MOL   C29410920   4.992   0.280   2.414 -0.3645  0.3719 -0.4737
   34MOL   F29510921   4.904   0.339   2.500  0.1985  0.3373  0.0207
   34MOL   C29610922   5.054   0.353   2.307 -0.4399 -0.5594 -0.5080
   34MOL   C29710923   5.149   0.292   2.230 -0.2926  0.3420  0.8208
   34MOL   C29810924   5.281   0.142   2.000  0.1592 -0.3438 -0.8063
   34MOL   H29910925   5.258   8.221   2.142  1.1477  0.0292 -1.2962
   34MOL   H30010926   5.149   8.217   2.373 -2.5721 -0.7603 -0.1172
   34MOL   H30110927   5.011   0.096   2.524  2.3746  0.5431  0.4951
   34MOL   H30210928   5.023   0.454   2.286  0.3374 -0.0369  0.7990
   34MOL   H30310929   5.192   0.361   2.158  0.3230  0.0319  0.8853
   34MOL   H30410930   5.344   0.231   1.995  0.9248 -0.8146  0.2764
   34MOL   H30510931   5.345   0.071   1.947  2.6309 -0.3662  2.0851
   34MOL   C30610932   5.147   0.165   1.928 -0.2595 -0.7714  0.0750
   34MOL   C30710933   5.141   0.303   1.859 -0.0930  0.6320  0.1159
   34MOL   C30810934   5.244   0.348   1.769  0.4246 -0.4423 -0.0283
   34MOL   C30910935   5.236   0.477   1.717  0.2634  0.0365  0.3729
   34MOL   C31010936   5.129   0.567   1.749  0.4003 -0.2191 -0.0086
   34MOL   F31110937   5.133   0.702   1.709  0.5626  0.5361  0.3567
   34MOL   C31210938   5.033   0.524   1.831 -0.5387 -0.2653 -0.0556
   34MOL   C31310939   5.039   0.393   1.885 -0.2357  0.0739 -0.1458
   34MOL   C31410940   5.122   0.054   1.828  0.1132  0.3577 -0.1460
   34MOL   H31510941   5.068   0.170   2.002  0.7719  0.6739  1.1218
   34MOL   H31610942   5.324   0.287   1.731 -0.0341 -1.3644  0.4521
   34MOL   H31710943   5.314   0.510   1.650 -1.5008  1.3536 -1.0910
   34MOL   H31810944   4.957   0.593   1.863 -0.3723 -0.1343  0.0622
   34MOL   H31910945   4.956   0.367   1.949 -0.6106 -1.5778 -1.2593
   34MOL   H32010946   5.198   0.042   1.751 -1.4220 -2.2839 -1.3252
   34MOL   H32110947   5.106   8.189   1.871  1.1357 -0.6535 -2.0311
   34MOL   H32210948   5.033   0.083   1.772  1.7006  1.0560 -2.3763
   35MOL     C110949   4.447   3.994   7.546 -0.5544  0.1590  0.5440
   35MOL     C210950   4.540   3.883   7.594  0.5428 -0.1162 -0.5012
   35MOL     C310951   4.674   3.876   7.554  0.2769 -0.2319  0.0295
   35MOL     C410952   4.753   3.766   7.597 -0.1182 -0.5789  0.1212
   35MOL     C510953   4.697   3.669   7.681 -0.7716  0.2382 -0.4210
   35MOL     F610954   4.774   3.580   7.745  0.0513 -0.1538  0.0300
   35MOL     C710955   4.561   3.683   7.719 -0.4776  0.4788 -0.2853
   35MOL     C810956   4.482   3.780   7.666 -0.3537  0.2932 -0.0063
   35MOL     C910957   4.348   3.946   7.440  0.4888 -1.1830  0.2835
   35MOL    H1010958   4.515   4.074   7.516 -1.8916  0.7931 -0.8190
   35MOL    H1110959   4.731   3.950   7.500 -2.0186  1.1897 -0.4861
   35MOL    H1210960   4.860   3.770   7.582  0.2203  3.2376  2.7807
   35MOL    H1310961   4.518   3.605   7.780 -1.2090  2.1614  1.3790
   35MOL    H1410962   4.378   3.800   7.686 -0.0165  1.9154  0.1380
   35MOL    H1510963   4.410   3.893   7.368  2.5062 -0.9313  1.8060
   35MOL    H1610964   4.276   3.871   7.472  0.5158 -0.3762  2.2470
   35MOL    H1710965   4.394   4.044   7.627 -0.8049  1.4791 -0.4147
   35MOL    C1810966   4.259   4.056   7.378 -0.0906 -0.1598  0.2181
   35MOL    C1910967   4.330   4.193   7.367  0.4012  0.4539 -0.3723
   35MOL    C2010968   4.454   4.208   7.297 -0.0560  0.9021  0.5097
   35MOL    C2110969   4.521   4.330   7.298  0.4244  0.4572  0.2092
   35MOL    C2210970   4.477   4.440   7.376  0.5982  0.9344 -0.6468
   35MOL    F2310971   4.540   4.556   7.384  0.5851  0.1332 -0.6321
   35MOL    C2410972   4.360   4.425   7.450  0.0990  0.1689 -0.9792
   35MOL    C2510973   4.286   4.303   7.448  0.0437  0.2226 -0.3951
   35MOL    C2610974   4.213   4.009   7.241  0.1055  0.0714 -0.0260
   35MOL    H2710975   4.169   4.081   7.434 -0.1110  1.7908 -0.6249
   35MOL    H2810976   4.474   4.118   7.240 -1.2764 -0.1401  1.6738
   35MOL    H2910977   4.608   4.329   7.234  1.3062 -2.0393  1.3936
   35MOL    H3010978   4.319   4.504   7.512  0.6273  1.0297 -1.7148
   35MOL    H3110979   4.195   4.294   7.506 -0.4246  3.1696 -0.6009
   35MOL    H3210980   4.150   4.088   7.200 -0.5746  0.0719  1.0029
   35MOL    H3310981   4.300   4.001   7.176  1.8979 -1.1883  2.4687
   35MOL    C3410982   4.135   3.872   7.241 -0.2329  0.0202 -0.1109
   35MOL    C3510983   4.003   3.885   7.326 -0.7719  0.5573 -0.3327
   35MOL    C3610984   4.002   3.817   7.449  0.1730  0.3510 -0.3080
   35MOL    C3710985   3.895   3.824   7.530  0.5763  0.4520 -0.5380
   35MOL    C3810986   3.787   3.904   7.494  0.1405  0.2218  0.4258
   35MOL    F3910987   3.688   3.925   7.591 -0.7017  0.1436 -0.4139
   35MOL    C4010988   3.789   3.979   7.378  0.0101  0.0224 -0.7600
   35MOL    C4110989   3.894   3.969   7.292 -0.0507  0.2866  0.6626
   35MOL    C4210990   4.102   3.832   7.096 -0.3930  0.1031  1.1311
   35MOL    H4310991   4.196   3.796   7.290 -0.3366  0.2505  0.3759
   35MOL    H4410992   4.085   3.755   7.480  0.0916  1.6470  2.5973
   35MOL    H4510993   3.892   3.768   7.623  0.7252  0.3502 -0.5937
   35MOL    H4610994   3.698   4.031   7.350 -0.0050  0.5664  0.2792
   35MOL    H4710995   3.880   4.027   7.202 -0.2422 -0.0181  0.4973
   35MOL    H4810996   4.025   3.904   7.068 -0.4191 -0.2846  0.2136
   35MOL    H4910997   4.178   3.848   7.020 -0.9001 -2.2377  0.0834
   35MOL    C5010998   4.046   3.691   7.081  0.2490  0.0069  0.1817
   35MOL    C5110999   3.927   3.691   6.989 -0.5977 -0.2128  0.0604
   35MOL    C5211000   3.936   3.724   6.849  0.0198 -0.4107  0.2063
   35MOL    C5311001   3.822   3.702   6.767 -0.3872 -0.2044 -0.1746
   35MOL    C5411002   3.698   3.657   6.816 -0.5360  0.0905 -0.0173
   35MOL    F5511003   3.591   3.645   6.737  0.0475  0.1910 -0.3474
   35MOL    C5611004   3.693   3.638   6.952 -0.2357 -0.2270 -0.2023
   35MOL    C5711005   3.807   3.639   7.038  0.1110 -0.3047  0.0126
   35MOL    C5811006   4.168   3.595   7.043  0.4713 -0.4719  0.2403
   35MOL    H5911007   4.017   3.661   7.181  1.5012 -1.3314  0.1640
   35MOL    H6011008   4.024   3.770   6.806 -0.6479 -1.0713 -1.9624
   35MOL    H6111009   3.830   3.722   6.661  1.7457 -0.3317 -0.0544
   35MOL    H6211010   3.601   3.607   7.000  0.1790 -0.3649  0.5183
   35MOL    H6311011   3.800   3.608   7.142 -2.0055 -0.3091 -0.1079
   35MOL    H6411012   4.200   3.634   6.947  1.4624 -0.4141  0.5805
   35MOL    H6511013   4.255   3.614   7.106 -0.9424  3.4564  1.1976
   35MOL    C6611014   4.110   3.452   7.042 -0.3413 -0.6042 -1.0022
   35MOL    C6711015   4.067   3.417   6.904  0.9809  0.1160  0.4248
   35MOL    C6811016   4.155   3.429   6.794 -0.5557  1.1476  0.0924
   35MOL    C6911017   4.105   3.402   6.662 -0.2153 -0.0042 -0.6022
   35MOL    C7011018   3.980   3.345   6.643 -0.8443 -0.8724 -0.0089
   35MOL    F7111019   3.938   3.319   6.519  0.2630 -0.2058  0.3290
   35MOL    C7211020   3.906   3.321   6.760  0.1261 -0.3729  0.5333
   35MOL    C7311021   3.948   3.355   6.890 -0.5514 -0.4139  0.1906
   35MOL    C7411022   4.214   3.351   7.090 -0.1058 -0.1406 -0.5884
   35MOL    H7511023   4.031   3.441   7.117  2.2355 -1.5045  1.6654
   35MOL    H7611024   4.256   3.465   6.808 -0.7441  1.3069  1.1542
   35MOL    H7711025   4.166   3.429   6.577  0.5340  1.8466  0.4920
   35MOL    H7811026   3.809   3.280   6.736  0.8494 -2.7722  1.5592
   35MOL    H7911027   3.891   3.328   6.979  1.3890  0.7615  1.8342
   35MOL    H8011028   4.166   3.259   7.057 -1.1404 -1.2209  3.6945
   35MOL    H8111029   4.307   3.360   7.033  0.8500  0.2927  0.9920
   35MOL    C8211030   4.236   3.342   7.241 -0.6383  0.2810 -0.5840
   35MOL    C8311031   4.108   3.306   7.315  0.6666  0.3715 -0.3682
   35MOL    C8411032   4.060   3.178   7.336  0.5399  0.0213 -0.1860
   35MOL    C8511033   3.945   3.145   7.411  1.0494 -0.3530 -0.2429
   35MOL    C8611034   3.864   3.247   7.474  0.6634  0.0293  0.0212
   35MOL    F8711035   3.756   3.222   7.555  0.0566 -0.1329  0.3466
   35MOL    C8811036   3.912   3.378   7.448  0.7702 -0.0129 -0.3313
   35MOL    C8911037   4.028   3.407   7.370  0.0565  0.2505 -0.3113
   35MOL    C9011038   4.362   3.265   7.286 -0.5313 -0.1336 -0.1276
   35MOL    H9111039   4.263   3.444   7.267 -0.5017 -0.2027  1.2561
   35MOL    H9211040   4.124   3.101   7.294 -0.2548 -0.9963  0.4334
   35MOL    H9311041   3.918   3.041   7.421  1.9002 -0.5360  0.1844
   35MOL    H9411042   3.858   3.460   7.494  2.1276  1.2429 -0.9136
   35MOL    H9511043   4.066   3.506   7.348 -0.6318  0.5260 -0.2744
   35MOL    H9611044   4.362   3.278   7.394 -1.0797  1.0704 -0.2722
   35MOL    H9711045   4.347   3.159   7.265 -0.7388 -0.2356  0.5189
   35MOL    C9811046   4.509   3.297   7.234  0.6216 -0.3261  0.2981
   35MOL    C9911047   4.537   3.444   7.205 -0.2841 -0.1384  0.6922
   35MOL   C10011048   4.562   3.499   7.069  0.4533  0.3634  0.0939
   35MOL   C10111049   4.594   3.632   7.052 -0.9808 -0.8011  0.5452
   35MOL   C10211050   4.603   3.715   7.158 -0.1814  0.3759 -0.4740
   35MOL   F10311051   4.645   3.841   7.141  0.0963  0.3561  0.3098
   35MOL   C10411052   4.572   3.669   7.291  0.2940 -0.1061  0.1553
   35MOL   C10511053   4.530   3.537   7.315 -0.0082  0.2911  0.3647
   35MOL   C10611054   4.614   3.238   7.332  0.1827  0.2166  0.0378
   35MOL   H10711055   4.524   3.239   7.143  0.6936  1.4137 -0.8343
   35MOL   H10811056   4.550   3.440   6.980 -2.2389 -1.0020  1.2890
   35MOL   H10911057   4.613   3.666   6.951  0.4455  0.5593  1.2658
   35MOL   H11011058   4.596   3.732   7.375  0.9956  0.7715 -0.7007
   35MOL   H11111059   4.501   3.509   7.415 -0.1947 -0.1749  0.1846
   35MOL   H11211060   4.581   3.283   7.425 -1.8353 -1.3902  0.1419
   35MOL   H11311061   4.600   3.131   7.346 -0.7748  0.2261 -0.7532
   35MOL   C11411062   4.772   3.263   7.302 -0.4578  0.5136  0.0665
   35MOL   C11511063   4.842   3.240   7.438  0.7804 -0.3350 -0.5208
   35MOL   C11611064   4.855   3.103   7.493 -0.1271  0.0032  0.1452
   35MOL   C11711065   4.915   3.089   7.620 -0.8518 -0.3061 -0.0558
   35MOL   C11811066   4.946   3.203   7.702 -0.2819  0.4504  0.1581
   35MOL   F11911067   4.978   3.184   7.836  0.0466 -0.4735  0.2641
   35MOL   C12011068   4.914   3.330   7.644  0.0431 -0.8257 -0.6757
   35MOL   C12111069   4.874   3.351   7.514 -0.2788  0.5218 -0.0707
   35MOL   C12211070   4.827   3.171   7.189 -0.1307  0.2861 -0.6263
   35MOL   H12311071   4.776   3.368   7.273 -1.1180  0.3341 -0.7058
   35MOL   H12411072   4.826   3.013   7.442  0.7263  0.8775 -1.9233
   35MOL   H12511073   4.931   2.989   7.656 -0.4575 -0.8318 -1.6360
   35MOL   H12611074   4.940   3.407   7.715 -0.2272 -1.3550  0.0071
   35MOL   H12711075   4.872   3.450   7.472 -1.6370  0.3899 -0.3252
   35MOL   H12811076   4.808   3.065   7.204  0.0652  0.2918 -0.3158
   35MOL   H12911077   4.787   3.194   7.091 -1.2403  1.2079  0.0304
   35MOL   C13011078   4.982   3.171   7.170 -0.5376  0.2926 -0.4228
   35MOL   C13111079   5.011   3.080   7.053  0.4888 -0.2343  0.3463
   35MOL   C13211080   5.064   2.946   7.075  0.0923 -0.3830 -0.6329
   35MOL   C13311081   5.073   2.853   6.976  0.1458  0.1197 -0.3792
   35MOL   C13411082   5.041   2.889   6.841  0.2349  0.6784  0.1020
   35MOL   F13511083   5.065   2.805   6.738  0.3173  0.1048  0.0262
   35MOL   C13611084   5.012   3.024   6.814  0.7299  0.1872 -0.1005
   35MOL   C13711085   4.996   3.118   6.915 -0.3110  0.3039 -0.2987
   35MOL   C13811086   5.046   3.313   7.170  0.7500 -0.0818  0.3681
   35MOL   H13911087   5.024   3.125   7.259 -0.9165  3.3758  1.4332
   35MOL   H14011088   5.080   2.913   7.176 -0.2288 -1.8296 -1.0442
   35MOL   H14111089   5.101   2.751   6.992  1.5595  0.3716 -1.1868
   35MOL   H14211090   5.011   3.056   6.711 -2.0552 -1.1500 -0.5177
   35MOL   H14311091   4.956   3.216   6.898 -1.0696  0.0630  0.0799
   35MOL   H14411092   5.008   3.377   7.090 -1.1544  0.3068  1.5512
   35MOL   H14511093   5.007   3.354   7.263  2.7468  0.2678  1.0727
   35MOL   C14611094   5.205   3.328   7.172 -0.3631  0.3675 -0.3999
   35MOL   C14711095   5.268   3.269   7.039  0.0816  0.6826 -0.3942
   35MOL   C14811096   5.323   3.141   7.030  0.2036 -0.5288 -0.2859
   35MOL   C14911097   5.379   3.100   6.909  0.2540  0.3271  1.1084
   35MOL   C15011098   5.389   3.182   6.800  0.4033 -0.0207  0.5267
   35MOL   F15111099   5.452   3.140   6.689 -0.7644  0.7156 -0.0365
   35MOL   C15211100   5.341   3.313   6.809  0.2906 -0.2908  0.3900
   35MOL   C15311101   5.270   3.355   6.927  0.2840 -0.0273 -0.5579
   35MOL   C15411102   5.246   3.469   7.210  0.4959 -0.4598  0.2095
   35MOL   H15511103   5.239   3.261   7.251  0.9766 -0.5950 -1.7578
   35MOL   H15611104   5.319   3.071   7.112  1.1619  0.7849  0.9120
   35MOL   H15711105   5.405   2.996   6.895  0.2902  0.6319 -1.2039
   35MOL   H15811106   5.342   3.379   6.723  0.2169 -2.2486 -1.1521
   35MOL   H15911107   5.232   3.456   6.926  0.3690  0.0117 -4.2756
   35MOL   H16011108   5.255   3.524   7.116  1.1012  0.0566  0.5649
   35MOL   H16111109   5.177   3.508   7.285  1.8767 -0.0900  1.3162
   35MOL   C16211110   5.396   3.474   7.267  0.1964  0.6109  0.5386
   35MOL   C16311111   5.507   3.461   7.161  0.4631  0.0856 -0.2426
   35MOL   C16411112   5.540   3.569   7.072 -0.3557  0.3483 -0.2555
   35MOL   C16511113   5.646   3.546   6.975  0.3680 -0.2224 -0.8631
   35MOL   C16611114   5.717   3.420   6.974  0.3785  0.0629 -0.1608
   35MOL   F16711115   5.823   3.400   6.891 -0.1932  0.1535 -0.2218
   35MOL   C16811116   5.677   3.318   7.059 -0.0828 -0.2777  0.1909
   35MOL   C16911117   5.570   3.335   7.147  0.2967 -0.0842  0.2396
   35MOL   C17011118   5.406   3.613   7.337 -0.2069 -0.2274 -0.3425
   35MOL   H17111119   5.419   3.407   7.350  2.2698  1.7271  0.8915
   35MOL   H17211120   5.489   3.664   7.076 -0.6749  0.1490  0.5687
   35MOL   H17311121   5.671   3.630   6.911 -1.6901 -0.7108 -2.3695
   35MOL   H17411122   5.719   3.219   7.057 -0.8411 -0.5791 -1.7122
   35MOL   H17511123   5.530   3.265   7.219  0.9738  0.8156  1.5322
   35MOL   H17611124   5.391   3.693   7.265 -1.0585 -0.9680 -0.9938
   35MOL   H17711125   5.324   3.623   7.408  1.7664  1.6406  1.7705
   35MOL   C17811126   5.538   3.649   7.405 -0.3760 -0.4255  0.4590
   35MOL   C17911127   5.553   3.804   7.407 -0.1664 -1.1727  0.0463
   35MOL   C18011128   5.651   3.864   7.311  0.2666 -0.2178 -0.0220
   35MOL   C18111129   5.675   4.004   7.308 -0.7460  0.7407 -0.3254
   35MOL   C18211130   5.600   4.082   7.397 -0.4310  0.3047 -0.0353
   35MOL   F18311131   5.605   4.213   7.386  0.1837  0.0884  0.4338
   35MOL   C18411132   5.516   4.024   7.497 -0.2592 -0.5970  0.2600
   35MOL   C18511133   5.494   3.890   7.506  0.0732 -0.3262 -0.1462
   35MOL   C18611134   5.574   3.595   7.544  0.6301 -0.2850  0.2801
   35MOL   H18711135   5.611   3.601   7.340 -2.5054  0.6753 -2.8678
   35MOL   H18811136   5.698   3.802   7.236  0.4411 -0.0686 -0.0349
   35MOL   H18911137   5.738   4.046   7.231 -0.3472 -1.7503 -1.4156
   35MOL   H19011138   5.458   4.094   7.556  1.1237 -1.5230  2.7735
   35MOL   H19111139   5.417   3.846   7.568  0.3793 -3.4502 -1.8884
   35MOL   H19211140   5.494   3.629   7.610 -0.8275 -1.9030 -0.5983
   35MOL   H19311141   5.562   3.487   7.536 -0.1375 -0.4532  3.1223
   35MOL   C19411142   5.723   3.623   7.598 -0.2158  0.1375  0.0369
   35MOL   C19511143   5.724   3.722   7.719 -0.3970 -0.0302 -0.1583
   35MOL   C19611144   5.753   3.858   7.706  0.1843 -0.2673  0.2170
   35MOL   C19711145   5.749   3.943   7.817 -0.1439  0.2891 -0.0204
   35MOL   C19811146   5.727   3.899   7.950  1.0920  1.0444 -0.7378
   35MOL   F19911147   5.715   3.986   8.052  0.2318 -0.7859  0.1461
   35MOL   C20011148   5.713   3.757   7.964  0.6659 -1.2768 -0.5481
   35MOL   C20111149   5.703   3.677   7.852  0.5094  0.6440  0.6772
   35MOL   C20211150   5.799   3.497   7.629 -0.4497  0.1001  0.3301
   35MOL   H20311151   5.779   3.671   7.518 -1.3811  1.5935  0.0712
   35MOL   H20411152   5.755   3.903   7.608  1.2974 -1.8850 -0.5205
   35MOL   H20511153   5.763   4.048   7.796 -0.9123  0.1032 -1.5628
   35MOL   H20611154   5.689   3.712   8.059  0.3150 -0.0547 -0.0461
   35MOL   H20711155   5.672   3.573   7.850  1.4201  0.3360  1.8811
   35MOL   H20811156   5.893   3.526   7.676 -1.3954  1.9617  1.0751
   35MOL   H20911157   5.740   3.433   7.694  0.1443 -0.8148 -0.0158
   35MOL   C21011158   5.841   3.418   7.499 -0.0714  0.4219  0.2084
   35MOL   C21111159   5.929   3.508   7.407  0.1925 -0.4129  0.5778
   35MOL   C21211160   5.877   3.555   7.285  0.4268 -0.6071  0.3906
   35MOL   C21311161   5.939   3.660   7.213 -0.1943  0.6758 -0.7305
   35MOL   C21411162   6.054   3.723   7.264  0.0130 -0.4850 -0.3157
   35MOL   F21511163   6.119   3.813   7.183 -0.0321 -0.0097  0.0950
   35MOL   C21611164   6.109   3.673   7.381  0.3047 -0.2402 -0.5144
   35MOL   C21711165   6.049   3.563   7.448 -0.2493 -0.7707  0.3054
   35MOL   C21811166   5.919   3.289   7.530 -0.2092 -0.3925 -0.0753
   35MOL   H21911167   5.755   3.390   7.438  0.4119 -1.5138  0.3967
   35MOL   H22011168   5.784   3.523   7.240  0.5667 -0.8817  0.2996
   35MOL   H22111169   5.892   3.698   7.123  2.6389  0.1386 -2.5024
   35MOL   H22211170   6.198   3.724   7.416  0.2559 -0.3534 -0.2201
   35MOL   H22311171   6.094   3.526   7.540  0.4552  0.3498  0.4293
   35MOL   H22411172   5.952   3.252   7.434 -0.0260  1.4464 -0.7355
   35MOL   H22511173   6.012   3.317   7.580 -1.8477  1.9033  1.8162
   35MOL   C22611174   5.846   3.172   7.596 -0.2339 -0.1621 -0.6056
   35MOL   C22711175   5.707   3.144   7.525 -0.4713 -0.6519  0.1685
   35MOL   C22811176   5.591   3.204   7.575 -0.1633  0.4505 -0.3272
   35MOL   C22911177   5.468   3.177   7.525  0.0368 -0.1707  0.0627
   35MOL   C23011178   5.461   3.095   7.414  0.2795 -0.6155  0.5620
   35MOL   F23111179   5.347   3.054   7.374 -0.0511 -0.5457 -0.1983
   35MOL   C23211180   5.574   3.041   7.354  0.3044 -0.6137 -0.1604
   35MOL   C23311181   5.697   3.067   7.411 -0.1373 -0.1709 -0.2581
   35MOL   C23411182   5.937   3.041   7.595 -0.8823 -0.3583 -0.5195
   35MOL   H23511183   5.829   3.188   7.702 -0.4327 -0.6662 -0.5584
   35MOL   H23611184   5.601   3.255   7.669 -2.5071 -1.1759  0.8491
   35MOL   H23711185   5.392   3.225   7.584  0.8313  1.1363  0.0602
   35MOL   H23811186   5.564   2.980   7.265 -1.2389  1.8162 -1.6867
   35MOL   H23911187   5.785   3.027   7.364 -0.1767 -1.4362  0.7154
   35MOL   H24011188   5.955   3.025   7.488 -3.2313  1.1801 -1.1845
   35MOL   H24111189   6.028   3.082   7.638 -0.5175 -2.2255  0.5064
   35MOL   C24211190   5.886   2.913   7.661  0.3979  0.7329 -0.5765
   35MOL   C24311191   5.988   2.803   7.653  0.0421 -1.0536  0.6326
   35MOL   C24411192   6.120   2.817   7.706 -0.1095 -0.1708  0.2429
   35MOL   C24511193   6.214   2.709   7.671  0.2434  0.2969  0.4943
   35MOL   C24611194   6.162   2.592   7.614 -0.1814  0.3696 -0.1592
   35MOL   F24711195   6.248   2.497   7.577 -0.0712  0.1666 -0.1253
   35MOL   C24811196   6.027   2.572   7.592 -0.2570 -0.3778  0.1020
   35MOL   C24911197   5.943   2.683   7.604 -0.6030  0.3281 -0.4896
   35MOL   C25011198   5.846   2.922   7.808 -0.2467 -0.3048 -0.9573
   35MOL   H25111199   5.800   2.885   7.600 -0.6294  0.7980  0.8152
   35MOL   H25211200   6.142   2.912   7.753 -0.4323 -0.0698  0.1907
   35MOL   H25311201   6.320   2.702   7.689  0.5116  1.7509 -0.4130
   35MOL   H25411202   5.995   2.482   7.542  0.2020  0.9388 -2.6868
   35MOL   H25511203   5.841   2.672   7.572 -0.4810 -0.0348 -0.7591
   35MOL   H25611204   5.895   2.849   7.872  0.5211  0.9061 -0.1304
   35MOL   H25711205   5.885   3.018   7.842  2.0951 -1.1698 -1.1174
   35MOL   C25811206   5.697   2.896   7.839 -0.2595 -0.1857 -0.0771
   35MOL   C25911207   5.646   2.762   7.808 -0.0154  0.2484 -0.0817
   35MOL   C26011208   5.529   2.754   7.730 -0.7888 -0.1530 -0.3597
   35MOL   C26111209   5.478   2.621   7.698  0.4365  0.3726  0.1913
   35MOL   C26211210   5.545   2.504   7.743 -0.6622 -0.1395 -0.6767
   35MOL   F26311211   5.504   2.377   7.710  0.4427 -0.5130  0.0312
   35MOL   C26411212   5.643   2.518   7.843 -0.1729  0.0407 -0.0622
   35MOL   C26511213   5.703   2.643   7.872 -0.2168  0.2502  0.1558
   35MOL   C26611214   5.658   2.919   7.989  0.1586 -0.4161 -0.4144
   35MOL   H26711215   5.642   2.967   7.778 -0.2888  0.4792  0.7121
   35MOL   H26811216   5.472   2.840   7.701  1.6524  1.2157 -1.2934
   35MOL   H26911217   5.389   2.600   7.641  0.6324 -0.3797  0.1555
   35MOL   H27011218   5.679   2.424   7.882 -1.4814 -0.4441  0.0146
   35MOL   H27111219   5.781   2.655   7.946 -0.9542  1.6768  0.7144
   35MOL   H27211220   5.564   2.870   8.017  0.9367  0.0669  3.2590
   35MOL   H27311221   5.726   2.870   8.059  0.5520  0.7328  0.0173
   35MOL   C27411222   5.632   3.062   8.039  0.0309  0.1700  0.2135
   35MOL   C27511223   5.522   3.143   7.965 -0.3197  0.1768  0.1114
   35MOL   C27611224   5.398   3.087   7.920 -0.7468  0.2012 -0.5313
   35MOL   C27711225   5.295   3.160   7.856 -0.2325 -0.2744  0.6404
   35MOL   C27811226   5.321   3.297   7.833 -0.3267  0.4810 -0.1172
   35MOL   F27911227   5.238   3.369   7.750 -0.1506  0.0160 -0.0218
   35MOL   C28011228   5.439   3.359   7.881 -0.0541  0.1402 -0.2734
   35MOL   C28111229   5.539   3.284   7.946 -0.4902 -0.0931  0.2525
   35MOL   C28211230   5.615   3.069   8.196  0.1798 -0.1697 -0.1459
   35MOL   H28311231   5.724   3.115   8.011  0.0725  0.2368  0.4785
   35MOL   H28411232   5.386   2.980   7.931 -1.0475  0.3052  0.1773
   35MOL   H28511233   5.202   3.112   7.828  0.1552 -0.6994  0.0384
   35MOL   H28611234   5.439   3.465   7.861 -1.2247  0.0395 -0.8509
   35MOL   H28711235   5.625   3.343   7.972 -1.5381  0.7626  1.8364
   35MOL   H28811236   5.563   3.156   0.003  0.3482 -1.2982  2.5622
   35MOL   H28911237   5.548   2.985   8.217 -0.4485  0.3683  0.0178
   35MOL   C29011238   5.740   3.057   0.043 -0.2221 -0.4605 -0.2667
   35MOL   C29111239   5.819   3.180   0.010 -0.3981  0.8003 -0.2902
   35MOL   C29211240   5.953   3.175   8.200  0.1798  0.5906  0.1792
   35MOL   C29311241   6.026   3.291   8.173 -0.3746  0.2221 -0.4229
   35MOL   C29411242   5.980   3.424   8.198 -0.6663 -0.5111  0.1371
   35MOL   F29511243   6.057   3.533   8.183 -0.4660 -0.6909 -0.3797
   35MOL   C29611244   5.848   3.434   0.009  0.0477  0.1297  0.3126
   35MOL   C29711245   5.770   3.317   0.030  0.0382 -0.3172  0.4057
   35MOL   C29811246   5.706   3.042   0.191  0.2031  0.0912  0.1869
   35MOL   H29911247   5.794   2.968   0.012 -0.2613 -0.8435  0.7435
   35MOL   H30011248   6.005   3.082   8.187  0.2736  0.6144  0.3707
   35MOL   H30111249   6.128   3.276   8.143 -0.1612  1.4111 -0.3374
   35MOL   H30211250   5.813   3.533   0.031 -1.1220 -0.4033  0.9254
   35MOL   H30311251   5.672   3.328   0.074  0.5277 -0.2101  1.5038
   35MOL   H30411252   5.633   3.114   0.228  0.2921  1.0629 -1.4850
   35MOL   H30511253   5.650   2.950   0.206 -1.8369  1.6593  2.6268
   35MOL   C30611254   5.832   3.027   0.280  0.2794 -0.7272  0.1600
   35MOL   C30711255   5.861   3.163   0.342  0.2485  0.1286 -0.3013
   35MOL   C30811256   5.775   3.217   0.434 -0.4278 -0.7941 -0.3760
   35MOL   C30911257   5.791   3.348   0.482 -0.0777 -0.3932 -0.3419
   35MOL   C31011258   5.905   3.422   0.449 -0.0993  0.2593 -0.0831
   35MOL   F31111259   5.913   3.546   0.496  1.0701 -0.0956 -0.0779
   35MOL   C31211260   5.999   3.362   0.360 -0.5125  0.0084  0.3136
   35MOL   C31311261   5.975   3.235   0.297  0.5952  0.4791 -0.0756
   35MOL   C31411262   5.831   2.916   0.387 -0.0171 -0.7878  0.0734
   35MOL   H31511263   5.908   2.995   0.209 -1.2446  0.6912 -2.1816
   35MOL   H31611264   5.690   3.164   0.476  0.1331 -0.7675  0.8090
   35MOL   H31711265   5.716   3.385   0.550  1.3237 -0.7761  1.4466
   35MOL   H31811266   6.093   3.406   0.329  2.0317 -4.8925  0.6582
   35MOL   H31911267   6.048   3.204   0.224  1.4637  0.2370  0.8912
   35MOL   H32011268   5.750   2.928   0.459  0.4176  1.6333  0.2095
   35MOL   H32111269   5.824   2.819   0.337 -1.7178  0.5047 -2.3405
   35MOL   H32211270   5.930   2.912   0.430 -0.1354  1.5887  0.6557
   36MOL     C111271   0.444   5.255   3.055 -0.3294  0.6709 -0.0353
   36MOL     C211272   0.582   5.314   3.004  0.0528  0.0532  0.8905
   36MOL     C311273   0.683   5.354   3.100  0.0801 -0.2002  0.2950
   36MOL     C411274   0.813   5.388   3.053  0.6793 -0.2330 -0.2580
   36MOL     C511275   0.841   5.407   2.915 -0.0046 -0.3582  0.2888
   36MOL     F611276   0.961   5.441   2.868 -0.2302 -0.4363  0.2993
   36MOL     C711277   0.738   5.365   2.824  0.4224 -1.0997  0.6782
   36MOL     C811278   0.609   5.323   2.867  0.3796  0.3522 -0.1745
   36MOL     C911279   0.355   5.352   3.130 -0.2905  0.1213 -0.0685
   36MOL    H1011280   0.451   5.154   3.094 -2.8476 -0.5917 -2.6146
   36MOL    H1111281   0.678   5.345   3.207 -0.8354 -0.5497  0.2294
   36MOL    H1211282   0.886   5.418   3.126 -1.5744  1.5816  1.3052
   36MOL    H1311283   0.757   5.380   2.719 -0.4417 -2.4232  0.3196
   36MOL    H1411284   0.529   5.305   2.797  1.7473 -1.4328 -1.3377
   36MOL    H1511285   0.249   5.326   3.131 -0.1801 -0.2969  0.9948
   36MOL    H1611286   0.376   5.361   3.237 -0.6114  0.0134  0.0045
   36MOL    H1711287   0.383   5.250   2.964  0.2330 -1.7955 -0.2969
   36MOL    C1811288   0.362   5.498   3.067  0.4216  0.2002  0.1231
   36MOL    C1911289   0.280   5.497   2.937 -0.0284  0.3555  0.0540
   36MOL    C2011290   0.326   5.571   2.823 -0.3774  1.1902 -0.3880
   36MOL    C2111291   0.267   5.562   2.695  0.0603  0.5577  0.0340
   36MOL    C2211292   0.162   5.476   2.679  0.2132  0.3613 -0.1680
   36MOL    F2311293   0.124   5.447   2.554 -0.0475  0.3614  0.0666
   36MOL    C2411294   0.110   5.408   2.790  0.8310 -0.2792 -0.6751
   36MOL    C2511295   0.161   5.422   2.920 -0.6626 -0.0810 -0.5599
   36MOL    C2611296   0.311   5.625   3.153  0.2827  0.0014 -0.1254
   36MOL    H2711297   0.464   5.529   3.042  1.1495 -0.7794  1.7588
   36MOL    H2811298   0.422   5.619   2.817  0.0173  0.5849  0.9460
   36MOL    H2911299   0.324   5.606   2.614 -2.4864  1.8082 -1.1374
   36MOL    H3011300   0.027   5.343   2.769  1.5685 -0.8574 -1.8354
   36MOL    H3111301   0.107   5.371   2.998 -0.4256 -1.4302 -1.2475
   36MOL    H3211302   0.342   5.715   3.100 -2.7972  1.3729  0.3179
   36MOL    H3311303   0.203   5.618   3.166  0.1979  0.2199 -0.7280
   36MOL    C3411304   0.377   5.636   3.288  0.2243 -0.4560  0.6029
   36MOL    C3511305   0.530   5.642   3.293  0.2810 -0.2964  0.0171
   36MOL    C3611306   0.612   5.734   3.220  0.4823  0.8119  0.4560
   36MOL    C3711307   0.753   5.737   3.241 -0.2200  0.1396 -0.1649
   36MOL    C3811308   0.815   5.661   3.338  0.0800  0.1713 -1.2563
   36MOL    F3911309   0.944   5.688   3.369 -0.3794  0.4052  0.2412
   36MOL    C4011310   0.738   5.568   3.414 -0.4895 -1.0102  0.2545
   36MOL    C4111311   0.598   5.557   3.385  0.0128 -0.0155  0.2478
   36MOL    C4211312   0.317   5.764   3.360 -0.2581 -0.9477  0.2420
   36MOL    H4311313   0.346   5.542   3.334  0.0968 -0.8609 -0.2922
   36MOL    H4411314   0.570   5.805   3.150  1.0045  0.3431 -0.3371
   36MOL    H4511315   0.809   5.815   3.193  1.5665  0.7540  2.7774
   36MOL    H4611316   0.785   5.514   3.495 -0.8049  1.7022  2.2961
   36MOL    H4711317   0.541   5.489   3.446  1.5508 -1.2267  0.3535
   36MOL    H4811318   0.370   5.773   3.455 -1.7876 -1.9524  1.2244
   36MOL    H4911319   0.343   5.849   3.298  1.3610 -2.6379 -1.4356
   36MOL    C5011320   0.169   5.763   3.396  0.4381 -0.2985 -0.7211
   36MOL    C5111321   0.129   5.626   3.441 -0.8304 -0.2875 -0.7590
   36MOL    C5211322   0.186   5.570   3.558  0.2307  0.7425  0.1395
   36MOL    C5311323   0.157   5.435   3.597  0.1297  0.4501 -0.0808
   36MOL    C5411324   0.050   5.365   3.536  0.2919  0.5136  0.2967
   36MOL    F5511325   0.020   5.235   3.578 -0.4253 -0.3420 -0.2800
   36MOL    C5611326   8.217   5.430   3.423 -0.0015  1.1435 -0.2473
   36MOL    C5711327   0.019   5.560   3.379 -1.2301 -0.4575  0.2760
   36MOL    C5811328   0.133   5.873   3.507 -0.3838 -0.4841  0.3487
   36MOL    H5911329   0.119   5.791   3.304 -1.1158 -0.3457  0.0832
   36MOL    H6011330   0.257   5.635   3.608 -0.0136 -0.7432  2.5159
   36MOL    H6111331   0.208   5.392   3.681  2.3982 -0.2099 -1.7609
   36MOL    H6211332   8.138   5.373   3.376 -0.8061  2.9616 -1.1333
   36MOL    H6311333   8.207   5.601   3.290 -0.1421  2.0513  0.8380
   36MOL    H6411334   0.033   5.845   3.539 -0.7559  0.2715 -0.1345
   36MOL    H6511335   0.199   5.857   3.593 -0.9936  0.4835  1.0138
   36MOL    C6611336   0.132   6.029   3.469  0.0147 -0.0463  0.2355
   36MOL    C6711337   0.065   6.054   3.333  0.3247 -0.4459  0.0554
   36MOL    C6811338   0.151   6.077   3.221 -0.2414 -0.1694 -0.2507
   36MOL    C6911339   0.098   6.063   3.095  0.5164 -0.2348  0.2126
   36MOL    C7011340   8.194   6.045   3.073 -0.1842 -0.4934 -0.8162
   36MOL    F7111341   8.127   6.048   2.952  0.1121  0.0641 -0.1618
   36MOL    C7211342   8.109   6.025   3.186  0.3522  0.3453  0.0563
   36MOL    C7311343   8.162   6.029   3.315 -1.2009 -0.0988  0.6180
   36MOL    C7411344   0.059   6.112   3.580  0.1041 -0.2494 -0.6308
   36MOL    H7511345   0.235   6.064   3.462  0.4927 -1.4879 -0.0805
   36MOL    H7611346   0.259   6.082   3.223 -0.1857 -0.6131 -1.6992
   36MOL    H7711347   0.164   6.081   3.011  1.5786  1.3793  1.3676
   36MOL    H7811348   8.007   5.998   3.164  0.0278  1.8361 -0.3586
   36MOL    H7911349   8.091   5.998   3.390 -0.6679  0.3081  1.2956
   36MOL    H8011350   0.061   6.218   3.555  0.0966 -0.4151 -1.3515
   36MOL    H8111351   8.190   6.077   3.584  0.7056 -2.0968 -0.9337
   36MOL    C8211352   0.123   6.100   3.724  0.7827  0.6746 -0.0438
   36MOL    C8311353   0.272   6.120   3.720  0.1095 -0.1692  0.1578
   36MOL    C8411354   0.326   6.241   3.670  0.2487  0.0823  0.4443
   36MOL    C8511355   0.459   6.268   3.666  0.2797  0.2635 -0.8853
   36MOL    C8611356   0.550   6.168   3.708 -0.0756 -0.6528  0.1429
   36MOL    F8711357   0.685   6.179   3.700  0.7482 -0.5384  0.0666
   36MOL    C8811358   0.500   6.047   3.769  0.7837  0.2033 -0.3571
   36MOL    C8911359   0.362   6.017   3.765 -0.3951  0.6993  0.8614
   36MOL    C9011360   0.061   6.193   3.832 -0.0651  0.1835  0.4373
   36MOL    H9111361   0.113   5.993   3.744  1.9078  0.2830 -1.4713
   36MOL    H9211362   0.252   6.309   3.630  0.2390 -1.1056 -1.6603
   36MOL    H9311363   0.483   6.371   3.647  2.0578  0.3522  1.6091
   36MOL    H9411364   0.564   5.978   3.821 -1.1142 -1.2848  0.0689
   36MOL    H9511365   0.317   5.926   3.803  0.1068  0.5895  1.1913
   36MOL    H9611366   0.070   6.291   3.784 -0.6435 -0.1697 -0.4014
   36MOL    H9711367   8.187   6.192   3.829 -0.0646 -1.5045  0.6541
   36MOL    C9811368   0.125   6.187   3.976  0.4160 -0.6245 -0.2293
   36MOL    C9911369   0.082   6.294   4.066 -0.8250  0.0990 -0.0491
   36MOL   C10011370   0.169   6.330   4.175  0.2369  0.9995  0.6397
   36MOL   C10111371   0.130   6.407   4.285  0.1964  0.4624 -0.2633
   36MOL   C10211372   8.234   6.452   4.278  0.3120  0.3720  0.4224
   36MOL   F10311373   8.189   6.543   4.369 -0.3200 -0.3116 -0.2241
   36MOL   C10411374   8.148   6.426   4.171 -0.1100 -0.5047  0.1294
   36MOL   C10511375   8.184   6.348   4.060 -0.1972 -0.8774 -0.4013
   36MOL   C10611376   0.114   6.052   4.047 -0.1987 -0.7358  0.0641
   36MOL   H10711377   0.231   6.206   3.957 -0.0141  1.2661 -0.8898
   36MOL   H10811378   0.270   6.291   4.188 -0.0601 -0.1474 -0.3993
   36MOL   H10911379   0.194   6.442   4.364  0.5751 -0.4816 -0.1554
   36MOL   H11011380   8.047   6.463   4.187  0.0807 -0.1621  0.5773
   36MOL   H11111381   8.108   6.329   3.985 -0.4271  0.8803 -0.6227
   36MOL   H11211382   0.170   5.978   3.990  0.4908  2.1043 -3.0680
   36MOL   H11311383   0.174   6.054   4.137  1.3643  0.1311 -0.9818
   36MOL   C11411384   8.203   6.000   4.073 -0.6521  0.3991  0.0539
   36MOL   C11511385   8.141   5.960   3.941 -0.4549  0.1464  0.5068
   36MOL   C11611386   8.185   5.846   3.865 -0.2982 -0.7189  0.4533
   36MOL   C11711387   8.113   5.803   3.752  0.2020 -0.3673  0.1266
   36MOL   C11811388   7.998   5.874   3.711 -0.0360 -0.5890 -0.6184
   36MOL   F11911389   7.939   5.836   3.596 -0.3392  0.7429 -0.0035
   36MOL   C12011390   7.950   5.985   3.785 -0.3409  0.0165  0.0991
   36MOL   C12111391   8.024   6.023   3.901 -1.1330  0.4963  0.0463
   36MOL   C12211392   8.201   5.883   4.172  0.0083  0.4651 -0.2270
   36MOL   H12311393   8.151   6.086   4.115 -0.3424  0.5455  0.1386
   36MOL   H12411394   0.029   5.786   3.908  2.6986  0.8880 -2.5049
   36MOL   H12511395   8.151   5.717   3.700  0.4698 -0.1246 -0.0771
   36MOL   H12611396   7.883   6.059   3.744  2.0225  0.2688 -3.4850
   36MOL   H12711397   7.993   6.109   3.960  3.1095  1.7125  0.6358
   36MOL   H12811398   8.105   5.833   4.163  0.4706 -0.6210  0.7590
   36MOL   H12911399   0.038   5.802   4.156  0.5244  0.1340  3.4258
   36MOL   C13011400   8.219   5.931   4.321  0.6105  1.2816  0.5172
   36MOL   C13111401   8.120   6.036   4.375  0.2909  0.0458 -0.4662
   36MOL   C13211402   7.981   6.034   4.347 -0.8543  0.1933 -0.3009
   36MOL   C13311403   7.898   6.134   4.402  0.4116  0.2631 -0.3822
   36MOL   C13411404   7.953   6.233   4.482 -1.2779  0.2154  0.2742
   36MOL   F13511405   7.878   6.329   4.542  0.0359 -0.2399  0.0006
   36MOL   C13611406   8.088   6.236   4.507  0.2222 -0.5476 -0.0250
   36MOL   C13711407   8.172   6.141   4.454 -0.9970  0.1855 -0.3117
   36MOL   C13811408   8.225   5.812   4.423  0.5085  0.8209 -0.5843
   36MOL   H13911409   0.076   5.989   4.334  0.4742  1.6484 -0.1299
   36MOL   H14011410   7.942   5.952   4.289 -0.1821 -0.6000  0.3404
   36MOL   H14111411   7.795   6.140   4.370  0.0366 -0.1843  0.7135
   36MOL   H14211412   8.128   6.313   4.573  2.6738 -2.3268  0.6407
   36MOL   H14311413   0.044   6.143   4.474 -1.4398  0.8931  2.0941
   36MOL   H14411414   8.168   5.844   4.510 -0.7611 -1.4856 -0.5199
   36MOL   H14511415   8.161   5.731   4.388 -0.0566  1.7821 -1.7820
   36MOL   C14611416   0.128   5.755   4.446  0.2625 -0.9864 -0.4092
   36MOL   C14711417   0.204   5.853   4.532 -0.0695 -0.8084  0.5166
   36MOL   C14811418   0.309   5.922   4.474 -0.7453 -0.2177  0.6813
   36MOL   C14911419   0.377   6.029   4.542  0.5904 -0.2614  0.0748
   36MOL   C15011420   0.335   6.067   4.667 -0.1797 -0.7619 -0.3528
   36MOL   F15111421   0.397   6.158   4.739 -0.2267  0.0473 -0.6603
   36MOL   C15211422   0.224   6.008   4.723  0.0976 -0.1501  0.5391
   36MOL   C15311423   0.157   5.908   4.657  0.3790 -0.0186  0.3520
   36MOL   C15411424   0.117   5.617   4.519  0.1774  0.5551  0.3447
   36MOL   H15511425   0.182   5.737   4.353  1.9772 -1.9127  0.7415
   36MOL   H15611426   0.339   5.901   4.372  0.7280 -1.4983  1.3567
   36MOL   H15711427   0.467   6.071   4.500 -0.1437  0.3915 -0.8580
   36MOL   H15811428   0.179   6.049   4.813 -0.4337  2.7120 -0.9691
   36MOL   H15911429   0.073   5.871   4.713 -0.7217 -2.1340 -2.5525
   36MOL   H16011430   0.124   5.621   4.627  0.4109  0.9360  0.3183
   36MOL   H16111431   0.015   5.580   4.507  0.5144 -0.6521  1.1042
   36MOL   C16211432   0.221   5.516   4.472 -0.3933  0.3125  0.1592
   36MOL   C16311433   0.363   5.559   4.516 -0.2522  0.4063 -0.1003
   36MOL   C16411434   0.456   5.576   4.416 -0.2072  0.0534  0.0386
   36MOL   C16511435   0.579   5.645   4.445 -0.5195 -0.0966  0.0442
   36MOL   C16611436   0.603   5.710   4.566  0.4436 -0.2684 -0.7055
   36MOL   F16711437   0.717   5.782   4.598 -0.2282  0.5478  0.1795
   36MOL   C16811438   0.503   5.689   4.667 -0.8247  0.2704  1.1295
   36MOL   C16911439   0.389   5.612   4.648 -0.9719 -0.1338  0.1598
   36MOL   C17011440   0.184   5.375   4.517 -0.3770 -0.2755 -0.1134
   36MOL   H17111441   0.222   5.525   4.363 -0.0416  1.4992  0.2552
   36MOL   H17211442   0.437   5.550   4.312 -0.8731  1.2393 -0.1495
   36MOL   H17311443   0.660   5.633   4.374 -2.8285 -1.0700 -2.5640
   36MOL   H17411444   0.520   5.722   4.769 -1.0621 -0.1925  1.3185
   36MOL   H17511445   0.320   5.601   4.730  1.2789 -2.4406  1.8141
   36MOL   H17611446   0.265   5.314   4.477  1.0775  0.8426  1.0677
   36MOL   H17711447   0.191   5.366   4.625 -2.7234 -2.4009 -0.0958
   36MOL   C17811448   0.050   5.316   4.472  0.0792 -0.4174 -0.2952
   36MOL   C17911449   0.009   5.372   4.327 -1.0583  0.1122 -0.6981
   36MOL   C18011450   8.137   5.458   4.318 -0.4365 -0.4092  0.9326
   36MOL   C18111451   8.111   5.522   4.194 -0.0641 -0.5790 -0.1137
   36MOL   C18211452   8.193   5.497   4.081 -0.0639  0.5030 -0.4131
   36MOL   F18311453   8.171   5.555   3.962  0.3720  0.1657 -0.1803
   36MOL   C18411454   0.065   5.403   4.090 -0.2027  0.0953  0.3102
   36MOL   C18511455   0.093   5.343   4.214 -0.4581 -0.3484  0.8605
   36MOL   C18611456   0.029   5.161   4.483 -0.6692  0.2443 -0.4126
   36MOL   H18711457   8.213   5.363   4.539  0.7100  0.7320 -0.4197
   36MOL   H18811458   8.083   5.495   4.404  1.5368  0.7663  1.7059
   36MOL   H18911459   8.023   5.580   4.169 -1.5526 -3.3977 -1.6773
   36MOL   H19011460   0.129   5.378   4.007  0.9166 -2.1166  1.8146
   36MOL   H19111461   0.174   5.272   4.222  0.1876 -0.0654 -2.3495
   36MOL   H19211462   8.168   5.136   4.438  0.0527 -1.7394 -0.8997
   36MOL   H19311463   0.103   5.116   4.417  1.3563 -0.2955  2.1313
   36MOL   C19411464   0.046   5.086   4.613 -0.2507 -0.2007 -0.6766
   36MOL   C19511465   8.203   5.147   4.723 -0.1998 -0.0832 -0.2276
   36MOL   C19611466   0.037   5.200   4.840  0.6037  0.7523 -0.0472
   36MOL   C19711467   8.198   5.282   4.929 -0.0410 -0.6190 -0.0394
   36MOL   C19811468   8.057   5.303   4.914  0.5299 -0.3661 -0.0134
   36MOL   F19911469   7.991   5.372   5.005  0.3042  0.2858 -0.0041
   36MOL   C20011470   7.991   5.238   4.808  0.3179  0.6595  0.0467
   36MOL   C20111471   8.064   5.165   4.713 -0.1238  0.3051 -0.9510
   36MOL   C20211472   0.000   4.940   4.594  0.3136  0.7694 -0.1425
   36MOL   H20311473   0.150   5.088   4.647  0.0396  3.3345 -1.5722
   36MOL   H20411474   0.142   5.186   4.859  0.1780 -1.7145  0.6867
   36MOL   H20511475   0.007   5.353   4.998 -0.6371  2.1295 -2.4177
   36MOL   H20611476   7.884   5.252   4.802  0.0216 -1.1414  0.8218
   36MOL   H20711477   8.018   5.114   4.630 -0.2722 -1.6505  0.3121
   36MOL   H20811478   8.133   4.935   4.554 -0.3089 -4.1488  1.7617
   36MOL   H20911479   0.063   4.895   4.517 -1.6336 -2.1000 -0.1457
   36MOL   C21011480   0.007   4.842   4.712 -0.2864 -0.2930 -0.0276
   36MOL   C21111481   8.137   4.718   4.703 -0.3029  0.4179  0.0846
   36MOL   C21211482   8.084   4.657   4.822 -0.1681 -0.3394  0.0031
   36MOL   C21311483   8.006   4.542   4.818  0.0613 -0.6218 -0.2536
   36MOL   C21411484   7.978   4.480   4.698  0.7653  0.1732  0.8310
   36MOL   F21511485   7.900   4.371   4.688 -0.4007  0.2506  0.5646
   36MOL   C21611486   8.022   4.544   4.581 -0.0336 -0.2876 -0.1362
   36MOL   C21711487   8.105   4.662   4.579  0.6020  0.0831  0.3027
   36MOL   C21811488   0.148   4.790   4.740 -0.4952 -0.1559  0.6398
   36MOL   H21911489   8.205   4.884   4.806 -0.0745  0.0671 -0.1071
   36MOL   H22011490   8.113   4.701   4.917  0.1190 -0.7294  0.0957
   36MOL   H22111491   7.976   4.499   4.912  2.6138 -0.9690  0.4347
   36MOL   H22211492   8.005   4.496   4.486  1.4145  0.4137 -0.7714
   36MOL   H22311493   8.154   4.702   4.491 -1.3629  2.2266  0.1248
   36MOL   H22411494   0.145   4.681   4.740 -0.7075 -0.1542 -0.2772
   36MOL   H22511495   0.219   4.813   4.660  0.4984  1.2474  1.8979
   36MOL   C22611496   0.222   4.852   4.873 -0.4699  0.1432  0.2418
   36MOL   C22711497   0.139   4.827   5.003 -1.1647 -0.1308  0.3220
   36MOL   C22811498   0.125   4.692   5.044 -0.0905 -0.0600 -0.4939
   36MOL   C22911499   0.065   4.665   5.168  0.1537 -0.0971  0.3204
   36MOL   C23011500   0.017   4.767   5.252 -0.2849 -0.7396  0.5398
   36MOL   F23111501   8.201   4.728   5.373 -0.4774 -0.3047  0.4421
   36MOL   C23211502   0.031   4.901   5.213 -0.1883 -0.0041 -0.2366
   36MOL   C23311503   0.095   4.927   5.091  0.3289 -0.3881  0.4524
   36MOL   C23411504   0.361   4.803   4.895  1.2053  0.3753  0.3202
   36MOL   H23511505   0.234   4.960   4.862 -2.7790  0.4945  0.9032
   36MOL   H23611506   0.152   4.607   4.984 -0.8721 -0.5549 -0.1590
   36MOL   H23711507   0.057   4.559   5.188  0.4956 -0.3867 -1.0816
   36MOL   H23811508   8.232   4.975   5.284  0.3719  1.2961 -1.2985
   36MOL   H23911509   0.118   5.031   5.070  1.0536 -0.4069  1.1219
   36MOL   H24011510   0.366   4.824   5.002 -0.6048 -0.2067  0.5239
   36MOL   H24111511   0.379   4.698   4.871  0.7678  0.1258  1.0767
   36MOL   C24211512   0.478   4.889   4.831  0.2384 -0.2611 -0.4127
   36MOL   C24311513   0.473   5.035   4.874 -0.6991  0.2803  0.4704
   36MOL   C24411514   0.495   5.078   5.006  0.2681 -0.2467 -0.1901
   36MOL   C24511515   0.498   5.213   5.028 -0.3684  0.8709  1.0647
   36MOL   C24611516   0.469   5.311   4.931  0.4086  0.0062  0.4254
   36MOL   F24711517   0.476   5.442   4.964  0.4442  0.0875  0.2471
   36MOL   C24811518   0.452   5.271   4.794  0.0253  0.1426 -0.5612
   36MOL   C24911519   0.449   5.131   4.772  0.2942  0.0801  0.1365
   36MOL   C25011520   0.615   4.821   4.860 -0.4111 -0.6849  0.0627
   36MOL   H25111521   0.458   4.877   4.724  1.2545 -0.4100 -0.5887
   36MOL   H25211522   0.506   5.005   5.085 -2.2196 -2.1698 -1.5294
   36MOL   H25311523   0.527   5.248   5.126 -1.4667 -0.0097  1.7167
   36MOL   H25411524   0.433   5.341   4.715 -0.9859 -0.9929 -1.3326
   36MOL   H25511525   0.448   5.091   4.672 -1.6261 -2.9331  1.3096
   36MOL   H25611526   0.639   4.833   4.965  0.8405 -1.6624 -0.0919
   36MOL   H25711527   0.604   4.712   4.853 -1.0881 -0.5646 -0.9015
   36MOL   C25811528   0.731   4.872   4.769 -0.0362  0.6135 -0.8550
   36MOL   C25911529   0.866   4.882   4.850 -0.2449 -0.0499  0.8627
   36MOL   C26011530   0.957   4.980   4.816 -0.7822  0.1694 -0.1538
   36MOL   C26111531   1.078   4.999   4.886 -0.1143  0.5000 -0.5127
   36MOL   C26211532   1.107   4.911   4.988  0.5059  0.2210 -0.1611
   36MOL   F26311533   1.215   4.927   5.065 -0.0973  0.2953 -0.2764
   36MOL   C26411534   1.016   4.807   5.024 -0.3646  0.0739  0.0961
   36MOL   C26511535   0.893   4.795   4.957  0.2677  0.2747 -0.6144
   36MOL   C26611536   0.749   4.777   4.649 -0.2775 -0.0269 -0.6464
   36MOL   H26711537   0.708   4.967   4.719 -2.8218  0.6742  0.4244
   36MOL   H26811538   0.923   5.053   4.744 -0.2008 -1.1369 -1.7970
   36MOL   H26911539   1.145   5.081   4.863 -1.3425  1.1173 -2.0162
   36MOL   H27011540   1.045   4.744   5.107 -1.2468 -0.4249  0.0355
   36MOL   H27111541   0.834   4.708   4.980 -1.0030  2.0895  3.4374
   36MOL   H27211542   0.835   4.812   4.592 -0.0778  1.5685  0.5741
   36MOL   H27311543   0.773   4.677   4.685 -2.1449  0.0927  1.0521
   36MOL   C27411544   0.646   4.774   4.535 -0.2729  0.2486 -0.4118
   36MOL   C27511545   0.605   4.904   4.477  0.0318 -0.8535 -0.5274
   36MOL   C27611546   0.688   5.018   4.473  0.5031 -0.5105  0.2177
   36MOL   C27711547   0.642   5.138   4.410  0.3254  0.3651 -0.1998
   36MOL   C27811548   0.506   5.143   4.370 -0.2126  0.5096  0.5853
   36MOL   F27911549   0.456   5.258   4.320 -0.2705  0.5190  0.0452
   36MOL   C28011550   0.423   5.028   4.362  0.4076  0.0380  0.3616
   36MOL   C28111551   0.478   4.912   4.407 -0.0609 -0.0003  0.1537
   36MOL   C28211552   0.693   4.670   4.422 -0.5337  0.3125  0.2522
   36MOL   H28311553   0.563   4.743   4.598 -0.2872  0.0851 -0.5122
   36MOL   H28411554   0.787   5.011   4.514  0.7395 -0.1083 -0.2782
   36MOL   H28511555   0.698   5.230   4.420  2.2757 -0.5648 -1.9559
   36MOL   H28611556   0.326   5.031   4.314  0.9229 -0.7838 -0.7438
   36MOL   H28711557   0.417   4.823   4.414  0.8504 -0.9494 -3.1943
   36MOL   H28811558   0.627   4.694   4.338  1.2070  1.1170 -0.9185
   36MOL   H28911559   0.796   4.683   4.388 -1.2308  0.6419 -1.7986
   36MOL   C29011560   0.669   4.517   4.449  0.0273  0.4077 -0.0428
   36MOL   C29111561   0.546   4.497   4.531 -0.3170  0.6803  0.2146
   36MOL   C29211562   0.419   4.502   4.485  0.0714 -0.6537  0.1755
   36MOL   C29311563   0.312   4.502   4.575  0.6375 -0.2621 -0.0709
   36MOL   C29411564   0.330   4.466   4.710  0.3168  0.0250 -0.5850
   36MOL   F29511565   0.226   4.451   4.792  0.1910  0.0226  0.0908
   36MOL   C29611566   0.459   4.441   4.753 -0.8971 -0.5554  0.6246
   36MOL   C29711567   0.572   4.472   4.671 -0.7988 -0.0493 -0.7942
   36MOL   C29811568   0.662   4.439   4.312  0.0699 -0.2761  0.3519
   36MOL   H29911569   0.754   4.487   4.510 -0.2049 -1.8397 -0.7610
   36MOL   H30011570   0.394   4.504   4.379 -0.0859  0.1583  0.2214
   36MOL   H30111571   0.208   4.506   4.544  0.5540  1.4429  0.3970
   36MOL   H30211572   0.466   4.417   4.858  1.9732 -0.3221  0.5306
   36MOL   H30311573   0.672   4.459   4.708 -0.4214 -0.9615 -2.1017
   36MOL   H30411574   0.575   4.468   4.253  0.7441  2.9333  0.8178
   36MOL   H30511575   0.751   4.472   4.258 -0.1850  1.0534  0.7038
   36MOL   C30611576   0.665   4.281   4.327 -0.0955 -0.5023  0.1604
   36MOL   C30711577   0.530   4.221   4.362  0.3304 -0.4270  0.4700
   36MOL   C30811578   0.421   4.236   4.273  0.0241  0.0958  1.0490
   36MOL   C30911579   0.289   4.199   4.314  0.2936  0.5658 -0.8548
   36MOL   C31011580   0.271   4.134   4.440 -0.0195  0.0348  0.1805
   36MOL   F31111581   0.148   4.084   4.475 -0.4437 -0.0453 -0.3787
   36MOL   C31211582   0.383   4.102   4.518 -0.6195  0.0144 -0.6970
   36MOL   C31311583   0.507   4.155   4.484  0.0804  0.4173 -0.0909
   36MOL   C31411584   0.729   4.223   4.199 -0.5123 -0.2368 -0.3080
   36MOL   H31511585   0.743   4.256   4.399 -0.8420 -0.4538  0.9882
   36MOL   H31611586   0.434   4.280   4.176  1.1416 -1.0282  0.6813
   36MOL   H31711587   0.213   4.219   4.240 -1.4396 -2.3141  0.0613
   36MOL   H31811588   0.374   4.042   4.607 -1.7771 -0.9347 -1.4451
   36MOL   H31911589   0.575   4.153   4.568  0.9204  2.0107 -0.7086
   36MOL   H32011590   0.809   4.281   4.155 -0.6417  0.0605 -0.1550
   36MOL   H32111591   0.773   4.124   4.214  0.3640 -0.1609 -2.3149
   36MOL   H32211592   0.663   4.208   4.114 -2.0590 -1.8041  1.1120
   37MOL     C111593   2.611   0.265   5.379  0.1081  0.7462  0.0135
   37MOL     C211594   2.560   0.156   5.469 -0.1603 -0.1213  0.0965
   37MOL     C311595   2.598   0.154   5.607 -0.3066 -0.6360 -0.4148
   37MOL     C411596   2.545   0.064   5.697 -0.1248 -0.2216 -0.4055
   37MOL     C511597   2.460   8.200   5.645 -0.0757 -0.0822 -0.0957
   37MOL     F611598   2.414   8.106   5.726 -0.2060 -0.1396 -0.1292
   37MOL     C711599   2.425   8.199   5.509  0.0256 -0.4654 -0.1216
   37MOL     C811600   2.477   0.060   5.417 -0.0391 -0.8706  0.0524
   37MOL     C911601   2.732   0.222   5.302 -0.7426 -0.1662 -0.4209
   37MOL    H1011602   2.628   0.356   5.436 -0.4979  0.1721  1.1195
   37MOL    H1111603   2.669   0.226   5.642 -1.6501 -0.1835  1.4715
   37MOL    H1211604   2.580   0.059   5.799 -0.7530 -1.5214 -0.2503
   37MOL    H1311605   2.361   8.115   5.483  2.5068 -2.1342 -1.0603
   37MOL    H1411606   2.442   0.056   5.315  0.1868 -3.7132  0.0420
   37MOL    H1511607   2.806   0.187   5.373 -1.3264  1.8433  1.2223
   37MOL    H1611608   2.704   0.134   5.244 -2.0834  0.4282 -0.7133
   37MOL    H1711609   2.525   0.291   5.317  1.0343  0.5884 -1.3556
   37MOL    C1811610   2.798   0.328   5.210  0.5701  0.2300 -0.2920
   37MOL    C1911611   2.940   0.301   5.157 -0.0726  0.3170  0.1888
   37MOL    C2011612   2.983   0.171   5.133  0.0738  0.4086  0.1020
   37MOL    C2111613   3.121   0.153   5.100 -0.3138  0.4352  0.2663
   37MOL    C2211614   3.213   0.265   5.080 -0.5660 -0.1276 -0.1098
   37MOL    F2311615   3.339   0.241   5.052  0.0004  0.0272  0.1670
   37MOL    C2411616   3.168   0.395   5.099  0.6608 -0.4187  0.8190
   37MOL    C2511617   3.029   0.412   5.129  0.4577 -0.4840  0.1461
   37MOL    C2611618   2.717   0.384   5.096  0.2989  0.5047  0.1102
   37MOL    H2711619   2.807   0.410   5.280  2.0450 -0.0126 -0.1889
   37MOL    H2811620   2.912   0.090   5.140 -0.6992  1.1634  1.3269
   37MOL    H2911621   3.153   0.053   5.075 -2.0230  0.4171 -1.9878
   37MOL    H3011622   3.237   0.478   5.087  1.3758 -0.9077  1.5071
   37MOL    H3111623   2.991   0.512   5.126  0.9583 -0.2964 -0.0805
   37MOL    H3211624   2.618   0.409   5.135 -0.7446 -2.3251 -0.6143
   37MOL    H3311625   2.759   0.480   5.067  1.5894 -0.0782  0.0430
   37MOL    C3411626   2.695   0.287   4.967 -0.1777 -0.0487 -1.0983
   37MOL    C3511627   2.568   0.195   4.985 -0.7990 -0.1687  0.0245
   37MOL    C3611628   2.444   0.254   4.995  0.3016 -0.3350 -0.3806
   37MOL    C3711629   2.326   0.183   4.998 -0.4661  0.6196 -0.0195
   37MOL    C3811630   2.340   0.044   5.019 -0.1937  0.2300 -0.5356
   37MOL    F3911631   2.226   8.211   5.057 -0.4079 -0.3199 -0.0976
   37MOL    C4011632   2.466   8.211   5.007  0.1945 -0.1987  0.2035
   37MOL    C4111633   2.580   0.054   4.989  0.3812 -0.1611 -0.0818
   37MOL    C4211634   2.683   0.375   4.844  0.0657 -0.0444  0.0339
   37MOL    H4311635   2.774   0.219   4.934 -0.2385 -0.2586 -0.8155
   37MOL    H4411636   2.435   0.360   5.015 -0.9189 -0.0745 -2.2579
   37MOL    H4511637   2.231   0.232   5.012 -0.9951 -0.2356 -0.5889
   37MOL    H4611638   2.460   8.103   5.015  0.4748 -0.0942  1.9106
   37MOL    H4711639   2.674   0.002   4.989 -1.3820 -3.4779 -0.4576
   37MOL    H4811640   2.630   0.309   4.776 -0.6012 -1.4853  1.9386
   37MOL    H4911641   2.615   0.459   4.860 -0.5219 -0.5147 -0.0116
   37MOL    C5011642   2.809   0.411   4.770  0.4971 -0.1864 -0.3983
   37MOL    C5111643   2.860   0.310   4.666 -0.9341  0.2848  0.5191
   37MOL    C5211644   2.804   0.288   4.538 -0.1904  0.5386 -0.1714
   37MOL    C5311645   2.862   0.197   4.449 -0.1964 -0.3955  0.0303
   37MOL    C5411646   2.968   0.117   4.497 -0.2938 -0.0940  0.0787
   37MOL    F5511647   3.013   0.024   4.420 -0.5741  0.3273  0.1898
   37MOL    C5611648   3.027   0.135   4.624 -0.1856  0.6879 -0.0086
   37MOL    C5711649   2.974   0.235   4.704  0.6357 -0.0442  0.3571
   37MOL    C5811650   2.792   0.546   4.692  0.3383 -0.0718 -0.3641
   37MOL    H5911651   2.890   0.428   4.841  1.0381  1.0564 -1.2830
   37MOL    H6011652   2.725   0.350   4.498  0.1294  1.4428  0.5939
   37MOL    H6111653   2.823   0.176   4.351  0.8512  0.7955 -0.6453
   37MOL    H6211654   3.110   0.074   4.656 -0.0348  1.3304  0.8351
   37MOL    H6311655   3.021   0.253   4.799 -1.1883  1.3259  1.0206
   37MOL    H6411656   2.881   0.551   4.629  1.0526 -1.0161  0.5383
   37MOL    H6511657   2.712   0.537   4.619  0.6128 -1.0244 -0.5582
   37MOL    C6611658   2.759   0.684   4.755  0.1905  0.1484  0.0293
   37MOL    C6711659   2.842   0.711   4.878 -0.2354 -0.1975 -0.4654
   37MOL    C6811660   2.982   0.727   4.860 -0.0034  0.2682 -0.2949
   37MOL    C6911661   3.069   0.772   4.962 -0.7861 -0.1504 -0.2148
   37MOL    C7011662   3.008   0.797   5.086 -0.1921  0.2042  0.5975
   37MOL    F7111663   3.085   0.840   5.189  0.0443 -0.4099 -0.2216
   37MOL    C7211664   2.876   0.770   5.109 -0.6171  0.1059  0.3305
   37MOL    C7311665   2.787   0.732   5.007 -0.1632  0.4088 -0.1321
   37MOL    C7411666   2.749   0.796   4.655 -0.0749  0.1960 -0.4804
   37MOL    H7511667   2.659   0.674   4.797  0.9192 -2.3164  1.2583
   37MOL    H7611668   3.023   0.721   4.760  1.3932  1.8583  0.1513
   37MOL    H7711669   3.173   0.783   4.933 -0.7837 -0.7478 -0.4390
   37MOL    H7811670   2.830   0.789   5.205 -0.8725 -0.4563  0.3172
   37MOL    H7911671   2.679   0.729   5.016  0.0016 -0.9032  1.6053
   37MOL    H8011672   2.841   0.796   4.597  0.8735 -0.6765  1.0104
   37MOL    H8111673   2.677   0.763   4.580  0.5973 -1.9500 -0.1901
   37MOL    C8211674   2.715   0.931   4.721 -0.3544  0.0361 -0.4407
   37MOL    C8311675   2.814   1.041   4.682 -0.2113 -0.1299 -0.6394
   37MOL    C8411676   2.900   1.091   4.784 -0.3308 -1.1584 -0.2506
   37MOL    C8511677   3.000   1.184   4.743 -0.0270 -0.5520 -0.1129
   37MOL    C8611678   3.026   1.220   4.607  0.5117 -1.0906  0.6778
   37MOL    F8711679   3.123   1.307   4.569 -0.2215 -0.0271  0.2868
   37MOL    C8811680   2.941   1.157   4.507 -0.5441  0.2714 -0.1327
   37MOL    C8911681   2.841   1.073   4.546 -0.7424  0.0980  0.0999
   37MOL    C9011682   2.571   0.989   4.694 -0.6094 -0.2590 -0.1366
   37MOL    H9111683   2.732   0.923   4.828  2.6962  1.0653 -0.7942
   37MOL    H9211684   2.901   1.069   4.889 -1.5982 -0.0125  0.0012
   37MOL    H9311685   3.058   1.221   4.826 -1.1571  0.4789  0.2433
   37MOL    H9411686   2.948   1.175   4.401  0.1651 -1.4480 -0.3839
   37MOL    H9511687   2.780   1.027   4.469  0.0178  0.1460 -0.5279
   37MOL    H9611688   2.571   1.097   4.711  0.4459 -0.3547  0.4861
   37MOL    H9711689   2.541   0.968   4.591  3.0115  2.5245 -1.9074
   37MOL    C9811690   2.465   0.935   4.789 -0.4773  0.1590 -0.8004
   37MOL    C9911691   2.483   0.978   4.938  0.9406 -0.6663  0.1098
   37MOL   C10011692   2.418   0.899   5.035  0.2942  0.9074  0.1593
   37MOL   C10111693   2.427   0.927   5.174  0.2823 -0.6386 -0.2014
   37MOL   C10211694   2.494   1.041   5.221  0.2298 -0.2664  0.3776
   37MOL   F10311695   2.507   1.071   5.355  0.0562 -0.5814  0.5123
   37MOL   C10411696   2.551   1.128   5.122 -0.2722 -0.1548  0.1454
   37MOL   C10511697   2.551   1.095   4.987 -0.3107 -0.4228 -0.4085
   37MOL   C10611698   2.318   0.967   4.734  0.1282  0.0587  0.0959
   37MOL   H10711699   2.468   0.826   4.783 -0.5100  0.0502  0.9853
   37MOL   H10811700   2.361   0.815   5.000  0.0106  1.3192 -0.3651
   37MOL   H10911701   2.383   0.851   5.236 -1.3856 -0.8156 -1.5631
   37MOL   H11011702   2.620   1.205   5.154 -1.0081  0.7744 -0.4499
   37MOL   H11111703   2.595   1.168   4.921  0.0421  0.0586  0.3536
   37MOL   H11211704   2.252   0.930   4.812  1.0301 -2.3044 -0.2440
   37MOL   H11311705   2.304   1.074   4.718  0.8929 -0.0197 -1.1966
   37MOL   C11411706   2.284   0.887   4.599 -0.0339 -0.2068 -0.3809
   37MOL   C11511707   2.308   0.729   4.597 -0.0421 -0.5940  0.4307
   37MOL   C11611708   2.298   0.653   4.711  0.2069  0.1354 -0.0941
   37MOL   C11711709   2.329   0.517   4.702 -0.8047  0.2064 -0.6220
   37MOL   C11811710   2.372   0.457   4.581 -0.2566 -0.2847  0.1034
   37MOL   F11911711   2.381   0.324   4.560 -0.2249  0.2395  0.2063
   37MOL   C12011712   2.382   0.538   4.468  0.6381 -0.0221  0.0108
   37MOL   C12111713   2.348   0.675   4.478 -0.0475  0.3440 -0.1190
   37MOL   C12211714   2.144   0.946   4.548 -0.2342 -0.3143  0.1520
   37MOL   H12311715   2.354   0.923   4.523  0.1466  2.7064  1.1084
   37MOL   H12411716   2.253   0.697   4.799  0.5690 -0.3711  0.3512
   37MOL   H12511717   2.328   0.460   4.794 -1.4482  0.4408 -0.4829
   37MOL   H12611718   2.396   0.494   4.371  2.6478 -3.9958  1.9884
   37MOL   H12711719   2.340   0.736   4.389 -0.1937 -0.0758 -0.3952
   37MOL   H12811720   2.153   1.055   4.549  3.4138 -0.5504  0.9786
   37MOL   H12911721   2.143   0.916   4.444  1.1582  1.3857 -0.3772
   37MOL   C13011722   2.013   0.902   4.620 -0.8051  0.5750  0.3141
   37MOL   C13111723   1.998   0.949   4.765  0.3025 -0.0425 -0.2542
   37MOL   C13211724   1.998   1.089   4.789 -0.3323  0.1632  0.2168
   37MOL   C13311725   2.002   1.133   4.924  0.1919  0.0734 -0.0213
   37MOL   C13411726   2.003   1.042   5.032 -0.0919  0.0569 -0.0542
   37MOL   F13511727   1.997   1.091   5.156 -0.3384 -0.3259  0.3692
   37MOL   C13611728   1.984   0.900   5.009 -0.1142  0.8927 -0.5226
   37MOL   C13711729   1.987   0.857   4.876 -0.2953  0.1303  0.1918
   37MOL   C13811730   1.890   0.930   4.531  0.4999 -0.3298 -0.3586
   37MOL   H13911731   2.016   0.795   4.644  1.7218  0.8000  1.1321
   37MOL   H14011732   2.006   1.155   4.703 -0.0719  1.0653  0.9286
   37MOL   H14111733   2.009   1.238   4.950 -2.4380  1.0119 -2.8098
   37MOL   H14211734   1.965   0.834   5.092  0.4758  0.5355 -0.6678
   37MOL   H14311735   1.984   0.753   4.848  1.6368 -0.3268  1.5872
   37MOL   H14411736   1.804   0.895   4.588  0.0524  1.6014  0.1751
   37MOL   H14511737   1.889   1.039   4.523  0.5067 -0.2772  0.3019
   37MOL   C14611738   1.879   0.868   4.393 -0.5334 -0.3694 -0.7473
   37MOL   C14711739   1.926   0.721   4.398 -0.9827 -0.9265 -0.6708
   37MOL   C14811740   1.863   0.620   4.481  1.0018  0.2399  1.0960
   37MOL   C14911741   1.908   0.484   4.464 -0.1583 -0.3756 -0.6977
   37MOL   C15011742   2.005   0.446   4.365  0.2271  0.0734 -0.8143
   37MOL   F15111743   2.039   0.315   4.335  0.1209  0.5361 -0.5167
   37MOL   C15211744   2.055   0.550   4.282  0.5794 -0.3240  0.4340
   37MOL   C15311745   2.016   0.683   4.299  0.0956  0.2942  1.1454
   37MOL   C15411746   1.744   0.895   4.325  0.0621 -0.4653 -0.7192
   37MOL   H15511747   1.958   0.912   4.331 -0.1600 -0.1834 -0.1499
   37MOL   H15611748   1.788   0.643   4.555  1.2407 -3.2043  2.4676
   37MOL   H15711749   1.866   0.402   4.520 -1.4680 -1.1285 -2.7446
   37MOL   H15811750   2.124   0.530   4.201  0.6922 -0.7844  0.6405
   37MOL   H15911751   2.059   0.760   4.237  4.0028 -0.7273  2.4597
   37MOL   H16011752   1.731   0.822   4.246  1.3305 -1.7854  0.2621
   37MOL   H16111753   1.667   0.880   4.402  2.4345  1.4261  2.1318
   37MOL   C16211754   1.725   1.026   4.250 -0.3868  0.0566 -0.5994
   37MOL   C16311755   1.752   1.157   4.323  0.4814 -0.2377  0.1859
   37MOL   C16411756   1.873   1.222   4.329  0.8048  0.0367  0.6736
   37MOL   C16511757   1.887   1.341   4.402  0.2555 -0.3728 -0.0756
   37MOL   C16611758   1.776   1.385   4.481 -0.2499  0.2012  0.0955
   37MOL   F16711759   1.798   1.498   4.561  0.2304 -0.0668  0.1084
   37MOL   C16811760   1.651   1.322   4.480  0.0989  0.5735  0.0889
   37MOL   C16911761   1.643   1.202   4.398  0.2665 -0.2565  0.1819
   37MOL   C17011762   1.775   1.033   4.110 -0.4871  0.0303 -0.4953
   37MOL   H17111763   1.619   1.032   4.224 -0.3703 -0.4328 -0.7908
   37MOL   H17211764   1.953   1.192   4.263 -1.3173 -1.8861 -1.0845
   37MOL   H17311765   1.980   1.396   4.404  0.5689 -0.9417  2.7035
   37MOL   H17411766   1.570   1.353   4.545  0.6486  1.8380  0.1751
   37MOL   H17511767   1.547   1.152   4.399  0.3404 -0.3941  0.7546
   37MOL   H17611768   1.876   1.073   4.109 -0.8844  1.0612 -0.1288
   37MOL   H17711769   1.786   0.936   4.062 -2.2507  1.0870 -3.1739
   37MOL   C17811770   1.706   1.123   4.005 -1.0230 -0.0852  0.1322
   37MOL   C17911771   1.807   1.141   3.885 -0.5991  0.6472  0.6434
   37MOL   C18011772   1.866   1.266   3.874  1.2272 -0.4599 -0.8612
   37MOL   C18111773   1.956   1.287   3.770  0.4468 -0.4063 -0.0662
   37MOL   C18211774   1.987   1.187   3.676  0.5992 -0.5579 -0.2886
   37MOL   F18311775   2.078   1.207   3.581  0.8369 -0.0075 -0.1117
   37MOL   C18411776   1.930   1.061   3.688  0.2379 -0.0943  0.8299
   37MOL   C18511777   1.831   1.042   3.784 -0.0292  0.0756  0.1852
   37MOL   C18611778   1.569   1.071   3.953  0.5226  0.5231  0.2694
   37MOL   H18711779   1.688   1.224   4.044 -0.5593 -0.1337  0.4810
   37MOL   H18811780   1.836   1.349   3.936 -0.2227  0.1235 -2.2909
   37MOL   H18911781   2.008   1.381   3.755  0.3103 -0.3643 -0.2784
   37MOL   H19011782   1.978   0.981   3.633 -1.3436 -0.1234 -0.5461
   37MOL   H19111783   1.789   0.943   3.798  1.8186 -0.6234  1.0326
   37MOL   H19211784   1.569   1.108   3.851 -2.0126  0.5528  0.2495
   37MOL   H19311785   1.579   0.963   3.949  1.4600  0.6834 -2.5420
   37MOL   C19411786   1.435   1.110   4.023  0.8579  0.2655  0.3382
   37MOL   C19511787   1.422   1.264   4.041  0.6284 -0.7004 -0.4964
   37MOL   C19611788   1.429   1.355   3.929  0.0692  0.3999  0.5096
   37MOL   C19711789   1.403   1.490   3.948  0.0992 -0.4994  0.4270
   37MOL   C19811790   1.380   1.535   4.077 -0.3570  0.5438 -0.7062
   37MOL   F19911791   1.336   1.663   4.097 -0.2754  0.2051  0.3929
   37MOL   C20011792   1.392   1.447   4.191 -0.2338 -0.2052  0.0770
   37MOL   C20111793   1.408   1.312   4.173 -0.2230  0.2579 -0.4787
   37MOL   C20211794   1.315   1.046   3.941  0.2167  0.3859 -0.5608
   37MOL   H20311795   1.451   1.056   4.116  2.5302  2.8977  1.6345
   37MOL   H20411796   1.453   1.319   3.830  1.0414  0.2851  0.7787
   37MOL   H20511797   1.407   1.561   3.867  1.3184 -3.4870 -2.2350
   37MOL   H20611798   1.376   1.475   4.294 -2.6788  0.6500 -0.5081
   37MOL   H20711799   1.398   1.248   4.259  0.3066 -1.2026 -1.4717
   37MOL   H20811800   1.321   1.095   3.843  1.5584  0.7609 -0.3043
   37MOL   H20911801   1.336   0.942   3.917  0.9738  0.1343  1.1255
   37MOL   C21011802   1.177   1.058   4.014  0.9096  0.1710 -0.0298
   37MOL   C21111803   1.128   1.204   4.014 -0.2427 -0.2633  0.8498
   37MOL   C21211804   1.090   1.271   4.131  0.2764 -0.0386  0.8757
   37MOL   C21311805   1.040   1.400   4.120 -0.1248  0.4808 -0.3735
   37MOL   C21411806   1.027   1.463   3.994 -0.2491 -0.2455 -0.3226
   37MOL   F21511807   0.994   1.595   3.997  0.3628 -0.0259  0.5851
   37MOL   C21611808   1.053   1.397   3.875 -0.4654  0.0373 -0.2573
   37MOL   C21711809   1.100   1.264   3.888 -1.1693 -0.0014  0.0709
   37MOL   C21811810   1.080   0.957   3.951 -0.4839 -0.2080  0.5690
   37MOL   H21911811   1.192   1.026   4.117 -0.4796 -0.7035 -0.0928
   37MOL   H22011812   1.106   1.213   4.220 -0.1238  0.9090  1.5758
   37MOL   H22111813   1.035   1.463   4.208  2.2300  0.6723 -0.3320
   37MOL   H22211814   1.040   1.442   3.778  2.2490 -1.7252 -1.4883
   37MOL   H22311815   1.136   1.216   3.797  1.9563 -1.7747  2.1454
   37MOL   H22411816   0.986   1.013   3.951 -0.2922  0.1530 -1.9707
   37MOL   H22511817   1.103   0.948   3.845  0.7438  1.3574  0.6834
   37MOL   C22611818   1.054   0.818   4.022 -0.0036  0.1199  0.1048
   37MOL   C22711819   0.912   0.762   4.007  0.0777 -0.6777  0.1275
   37MOL   C22811820   0.837   0.723   4.120 -1.0958 -0.0042 -0.0404
   37MOL   C22911821   0.706   0.679   4.108  0.2124  0.3077 -0.0421
   37MOL   C23011822   0.639   0.685   3.986  0.4406  1.1148  0.7968
   37MOL   F23111823   0.510   0.663   3.988  0.0930  0.1675 -0.0315
   37MOL   C23211824   0.709   0.724   3.868 -0.3937  0.0256 -0.4933
   37MOL   C23311825   0.842   0.766   3.880 -0.2608  0.8266  0.3376
   37MOL   C23411826   1.156   0.703   3.980  0.0849 -0.0336  0.0946
   37MOL   H23511827   1.075   0.844   4.126 -1.0626  0.8843  0.1296
   37MOL   H23611828   0.890   0.734   4.213  0.0454 -1.1795 -0.5335
   37MOL   H23711829   0.640   0.650   4.188 -0.8337  0.0951 -0.9708
   37MOL   H23811830   0.652   0.724   3.777 -0.9786 -0.4215 -0.1327
   37MOL   H23911831   0.889   0.806   3.792 -1.4134  0.5361 -0.4172
   37MOL   H24011832   1.137   0.683   3.874  0.1346  0.7462 -0.0641
   37MOL   H24111833   1.257   0.743   3.973  1.0058 -2.2664  0.2082
   37MOL   C24211834   1.160   0.570   4.056  0.1411  0.3892 -0.0448
   37MOL   C24311835   1.277   0.494   3.999  0.3049 -0.1656 -0.3080
   37MOL   C24411836   1.409   0.536   4.017  0.0217 -0.0618  0.1738
   37MOL   C24511837   1.520   0.468   3.961 -1.0011  0.1719 -0.0993
   37MOL   C24611838   1.496   0.348   3.898  0.2567 -0.0630  0.1942
   37MOL   F24711839   1.597   0.279   3.854  0.0884  0.4986  0.5649
   37MOL   C24811840   1.366   0.300   3.881 -0.6665 -0.5591 -0.2239
   37MOL   C24911841   1.252   0.381   3.920  0.6841  0.1504  0.4347
   37MOL   C25011842   1.172   0.585   4.212  0.0746 -0.3657  0.2539
   37MOL   H25111843   1.071   0.514   4.029  0.0352  1.5329 -2.1355
   37MOL   H25211844   1.432   0.634   4.055  0.1689  0.4423 -1.1865
   37MOL   H25311845   1.615   0.519   3.969  0.2075 -2.1402  0.6733
   37MOL   H25411846   1.350   0.210   3.824 -1.1038 -0.4243 -0.3185
   37MOL   H25511847   1.151   0.347   3.898  0.2880  2.6341 -1.7640
   37MOL   H25611848   1.231   0.674   4.233 -0.5947  0.6963 -2.2156
   37MOL   H25711849   1.072   0.606   4.250  0.4259 -0.1733  1.0823
   37MOL   C25811850   1.226   0.466   4.298 -0.8347  0.0405  0.1353
   37MOL   C25911851   1.259   0.501   4.446 -1.2636 -0.5336 -0.0323
   37MOL   C26011852   1.193   0.443   4.556 -0.6998  0.3840 -0.2391
   37MOL   C26111853   1.216   0.478   4.688  0.6403 -0.8438  0.3638
   37MOL   C26211854   1.320   0.572   4.720 -0.1274  0.4514  0.1429
   37MOL   F26311855   1.356   0.598   4.849 -0.0909  0.5136 -0.5795
   37MOL   C26411856   1.393   0.631   4.617  0.0821  0.1384 -0.0794
   37MOL   C26511857   1.359   0.605   4.481  0.4879  0.3569 -0.5515
   37MOL   C26611858   1.141   0.333   4.276 -1.1360 -0.2348 -0.0890
   37MOL   H26711859   1.324   0.434   4.262  0.9227  0.3439  4.3852
   37MOL   H26811860   1.112   0.374   4.539 -1.0524  0.9908 -1.0341
   37MOL   H26911861   1.146   0.434   4.758 -1.3964 -0.1046 -1.1634
   37MOL   H27011862   1.463   0.707   4.647 -1.2224 -0.1694  4.0525
   37MOL   H27111863   1.408   0.661   4.403  1.4901 -0.8789 -0.8207
   37MOL   H27211864   1.042   0.348   4.319 -1.5831 -0.4054 -1.0565
   37MOL   H27311865   1.115   0.314   4.172  0.7856 -0.2723 -0.5829
   37MOL   C27411866   1.208   0.200   4.316 -0.3232 -0.1946  0.7736
   37MOL   C27511867   1.097   0.111   4.345  0.7513 -0.4279 -0.1598
   37MOL   C27611868   1.005   0.071   4.241 -0.1004  0.0055 -0.1709
   37MOL   C27711869   0.887   8.230   4.282  0.4916  0.9916 -0.6661
   37MOL   C27811870   0.871   8.177   4.414 -0.3715 -0.1263 -0.5115
   37MOL   F27911871   0.769   8.096   4.446 -0.0983  0.2879 -0.0918
   37MOL   C28011872   0.974   8.203   4.510 -0.0440  0.2253 -0.2530
   37MOL   C28111873   1.083   0.055   4.474  0.0716 -0.0457 -0.1411
   37MOL   C28211874   1.304   0.130   4.202  0.6016 -0.4088  0.2661
   37MOL   H28311875   1.261   0.219   4.410  2.4759 -2.9993 -0.1864
   37MOL   H28411876   1.013   0.101   4.138  1.3463 -2.1274 -0.7296
   37MOL   H28511877   0.811   8.199   4.212  0.8836 -0.4421 -0.4879
   37MOL   H28611878   0.971   8.164   4.611 -2.5998  0.9881 -0.0130
   37MOL   H28711879   1.161   0.076   4.546 -0.8793  0.8052  0.6648
   37MOL   H28811880   1.238   0.078   4.133  1.5771 -0.1254 -0.8845
   37MOL   H28911881   1.367   0.209   4.160  1.9190 -1.3076  0.5302
   37MOL   C29011882   1.393   0.022   4.272 -0.5731 -0.3085  0.3254
   37MOL   C29111883   1.341   8.112   4.244 -0.0113 -0.2107  0.6842
   37MOL   C29211884   1.310   8.070   4.111  0.6667 -0.0927  0.8011
   37MOL   C29311885   1.259   7.940   4.085 -0.3439 -0.2437  0.6816
   37MOL   C29411886   1.232   7.861   4.195 -0.2457  0.8540 -0.0649
   37MOL   F29511887   1.173   7.739   4.175  0.1159 -0.7216  0.3978
   37MOL   C29611888   1.257   7.900   4.333  0.2778  0.2825 -0.6004
   37MOL   C29711889   1.323   8.021   4.355 -0.1198 -0.6717 -0.1781
   37MOL   C29811890   1.541   0.027   4.237 -0.3621 -0.0256  0.1649
   37MOL   H29911891   1.378   0.028   4.380  3.1354 -1.3696  0.9419
   37MOL   H30011892   1.349   8.125   4.027 -0.2938 -1.1288 -0.3398
   37MOL   H30111893   1.231   7.909   3.985  0.1332  1.9830 -0.1821
   37MOL   H30211894   1.241   7.830   4.414 -1.8299  0.5725 -0.7451
   37MOL   H30311895   1.340   8.058   4.455  0.9034  0.3688 -0.7172
   37MOL   H30411896   1.598   8.181   4.283 -2.5853 -2.1844 -0.7491
   37MOL   H30511897   1.563   0.015   4.131  1.2881  0.2289  0.4653
   37MOL   C30611898   1.616   0.158   4.277 -0.5368 -0.4220 -0.2890
   37MOL   C30711899   1.623   0.177   4.429 -0.2288  0.7777  0.2725
   37MOL   C30811900   1.707   0.093   4.515 -0.2346  0.8768 -0.3518
   37MOL   C30911901   1.698   0.096   4.656 -0.4746 -0.4791 -0.4535
   37MOL   C31011902   1.634   0.199   4.719  0.3041 -0.1854  0.4883
   37MOL   F31111903   1.628   0.206   4.852  0.0689 -0.2020  0.2420
   37MOL   C31211904   1.572   0.300   4.646 -0.2588  0.3380  1.5027
   37MOL   C31311905   1.555   0.282   4.503 -0.7790  0.1058 -0.1242
   37MOL   C31411906   1.759   0.177   4.212  0.0025  0.3428  0.3130
   37MOL   H31511907   1.557   0.242   4.238 -0.0231 -0.6742 -1.6562
   37MOL   H31611908   1.779   0.032   4.463 -2.8740 -0.4955 -2.5094
   37MOL   H31711909   1.756   0.027   4.716  0.1347  0.8513  0.5233
   37MOL   H31811910   1.525   0.383   4.696 -2.0425 -0.1631  0.6995
   37MOL   H31911911   1.497   0.354   4.448  0.2646 -0.0508 -1.4854
   37MOL   H32011912   1.811   0.268   4.241  0.1064 -0.0469  1.3664
   37MOL   H32111913   1.824   0.095   4.244 -1.7395 -0.7517  1.0968
   37MOL   H32211914   1.747   0.176   4.103 -0.6899 -2.7511  0.3650
   38MOL     C111915   2.882   2.437   7.975  0.2767 -0.1666 -0.5138
   38MOL     C211916   2.777   2.339   8.012 -0.4794 -0.1218  0.0167
   38MOL     C311917   2.654   2.384   8.058 -0.0722 -0.5684  0.6151
   38MOL     C411918   2.554   2.292   8.100 -0.5925 -0.1901 -0.3008
   38MOL     C511919   2.576   2.155   8.082 -0.0853  0.1977 -0.1546
   38MOL     F611920   2.483   2.069   8.124 -0.0987 -0.0574  0.3730
   38MOL     C711921   2.697   2.110   8.033 -0.4871  0.5802  0.2627
   38MOL     C811922   2.798   2.201   7.996  0.0391  0.4686  0.4239
   38MOL     C911923   2.943   2.518   8.093 -0.7934  0.0275  0.3577
   38MOL    H1011924   2.841   2.504   7.900  0.1461  0.0274 -0.2686
   38MOL    H1111925   2.641   2.492   8.059 -0.7524 -0.6451  0.9845
   38MOL    H1211926   2.458   2.325   8.137 -2.7255 -1.2568 -4.4795
   38MOL    H1311927   2.720   2.006   8.018  1.0398  0.9037  0.3481
   38MOL    H1411928   2.894   2.168   7.959 -0.2189  1.1644 -0.9151
   38MOL    H1511929   3.021   2.577   8.046  1.7021 -0.5295  3.6512
   38MOL    H1611930   2.873   2.596   8.121  1.5296  2.8224 -1.4010
   38MOL    H1711931   2.968   2.397   7.922 -0.5931 -2.1124 -0.4928
   38MOL    C1811932   3.000   2.437   8.216 -0.0531 -0.2751  0.2205
   38MOL    C1911933   3.118   2.352   8.162  0.1714  0.8207 -0.5143
   38MOL    C2011934   3.239   2.408   8.131 -0.5865  0.2833  0.3093
   38MOL    C2111935   3.347   2.326   8.074 -0.1797 -1.0037 -0.0739
   38MOL    C2211936   3.324   2.191   8.046 -0.2709  0.9661 -0.0017
   38MOL    F2311937   3.419   2.115   7.984 -0.3727 -0.4691 -0.4419
   38MOL    C2411938   3.194   2.133   8.078 -0.0835 -0.8566 -0.0402
   38MOL    C2511939   3.100   2.211   8.142 -0.1840  0.9529  0.5564
   38MOL    C2611940   3.052   2.528   0.099 -0.0050  0.0770 -0.2007
   38MOL    H2711941   2.918   2.373   0.013 -1.6832  1.5695 -0.2471
   38MOL    H2811942   3.257   2.513   8.149  1.8042 -0.2672  1.3108
   38MOL    H2911943   3.442   2.373   8.053  0.2269 -1.1092  1.4483
   38MOL    H3011944   3.163   2.033   8.051 -0.6696 -1.3852  2.4405
   38MOL    H3111945   3.008   2.165   8.175 -0.3384  2.6527  2.5975
   38MOL    H3211946   3.144   2.581   0.074 -0.6060  1.1807 -0.0927
   38MOL    H3311947   2.982   2.606   0.129 -1.0011 -0.8423 -0.1253
   38MOL    C3411948   3.090   2.453   0.228  0.0760 -0.2885  0.6438
   38MOL    C3511949   3.184   2.530   0.320 -0.1982  0.2978 -0.4374
   38MOL    C3611950   3.313   2.483   0.327  0.1441  0.2422 -0.0539
   38MOL    C3711951   3.411   2.555   0.408 -0.2633  0.6493  0.0848
   38MOL    C3811952   3.379   2.680   0.456  0.4667  0.4997  0.0846
   38MOL    F3911953   3.475   2.765   0.506  0.2935 -0.4583 -0.0306
   38MOL    C4011954   3.246   2.724   0.453 -0.3841  0.0391 -0.3231
   38MOL    C4111955   3.148   2.646   0.390 -0.9303 -0.0138 -0.7351
   38MOL    C4211956   2.967   2.387   0.299  0.1194  0.1378  0.2355
   38MOL    H4311957   3.145   2.371   0.182  0.8023  0.4186  0.2327
   38MOL    H4411958   3.341   2.386   0.290  1.6289  0.3077  0.8499
   38MOL    H4511959   3.508   2.508   0.411 -0.1283  0.8332 -1.1537
   38MOL    H4611960   3.220   2.823   0.487 -2.7541 -1.3250  2.0150
   38MOL    H4711961   3.045   2.681   0.391 -1.1738 -0.7073 -0.9486
   38MOL    H4811962   2.983   2.415   0.404 -1.0353 -0.6573  0.6366
   38MOL    H4911963   2.875   2.437   0.271  0.1479 -0.8883 -1.8117
   38MOL    C5011964   2.972   2.233   0.284  0.8560  0.6552  0.3490
   38MOL    C5111965   3.095   2.166   0.342  0.5747 -0.7764 -0.0917
   38MOL    C5211966   3.174   2.071   0.272  0.0749 -0.4963  0.3161
   38MOL    C5311967   3.280   2.005   0.331 -1.0875 -0.5131 -0.2346
   38MOL    C5411968   3.320   2.040   0.462 -0.4325  0.0234  0.7018
   38MOL    F5511969   3.428   1.975   0.516 -0.5191  0.0390  0.0839
   38MOL    C5611970   3.252   2.143   0.529  0.4563  0.1802  0.6310
   38MOL    C5711971   3.133   2.192   0.473  0.0132  0.2290  0.1968
   38MOL    C5811972   2.836   2.176   0.330  0.0012 -0.1505 -0.1750
   38MOL    H5911973   2.979   2.222   0.176  0.9717 -0.8149  0.5056
   38MOL    H6011974   3.145   2.062   0.169 -1.7783  0.8587  0.6912
   38MOL    H6111975   3.336   1.930   0.276  0.9559  1.2579 -0.6472
   38MOL    H6211976   3.277   2.185   0.625 -1.0871 -1.3854  1.7612
   38MOL    H6311977   3.076   2.264   0.531 -1.2173 -0.5059 -0.0704
   38MOL    H6411978   2.820   2.214   0.431 -0.7246 -1.2457  0.1368
   38MOL    H6511979   2.757   2.219   0.268 -1.0946 -3.0135 -0.8760
   38MOL    C6611980   2.827   2.023   0.331 -0.2922 -0.7266 -0.4113
   38MOL    C6711981   2.695   1.970   0.385 -0.0051  0.4278 -0.4852
   38MOL    C6811982   2.698   1.893   0.507 -0.2056  0.2239  0.2555
   38MOL    C6911983   2.584   1.830   0.562 -0.2001  0.9187 -0.2877
   38MOL    C7011984   2.460   1.849   0.500  0.0225  0.6689 -0.0125
   38MOL    F7111985   2.350   1.778   0.540 -0.2270 -0.5956  0.1570
   38MOL    C7211986   2.456   1.923   0.379  0.2124 -0.6711  0.7110
   38MOL    C7311987   2.573   1.979   0.318  0.7231 -1.0738 -0.2098
   38MOL    C7411988   2.853   1.963   0.192  0.2457 -0.0722  0.1336
   38MOL    H7511989   2.893   1.981   0.407 -0.1699 -0.0920 -0.1633
   38MOL    H7611990   2.792   1.871   0.555 -0.5172 -2.5332 -0.2651
   38MOL    H7711991   2.590   1.769   0.651  2.3768 -1.9604 -2.2902
   38MOL    H7811992   2.359   1.944   0.336  1.0418  0.9575 -0.4140
   38MOL    H7911993   2.567   2.042   0.231  0.2808 -0.3364  0.3450
   38MOL    H8011994   2.788   2.009   0.117 -0.7718 -2.5331 -0.5556
   38MOL    H8111995   2.950   1.994   0.154  0.7759  1.0748  2.3131
   38MOL    C8211996   2.835   1.818   0.171  0.5339  0.4519 -0.2367
   38MOL    C8311997   2.845   1.789   0.021  0.6083 -0.1970  0.1807
   38MOL    C8411998   2.969   1.792   8.190  0.3768  0.6004  0.5473
   38MOL    C8511999   2.986   1.754   8.054 -0.2003  0.2415  0.8502
   38MOL    C8612000   2.868   1.732   7.974 -0.3313 -0.3138 -0.7607
   38MOL    F8712001   2.879   1.690   7.848 -0.9218  0.3286  0.0433
   38MOL    C8812002   2.743   1.730   8.039  0.5283  0.8655  0.0919
   38MOL    C8912003   2.730   1.764   8.178  0.4518 -0.3485  0.5966
   38MOL    C9012004   2.930   1.728   0.250  0.7532  0.5409 -0.3406
   38MOL    H9112005   2.732   1.791   0.193  0.7781  1.2395  2.0024
   38MOL    H9212006   3.057   1.834   0.002  1.3625 -0.2694 -0.4807
   38MOL    H9312007   3.083   1.762   8.009  0.5248  0.8925  2.4775
   38MOL    H9412008   2.652   1.713   7.983 -0.4751  1.1566  1.6113
   38MOL    H9512009   2.631   1.771   8.219 -0.3136  1.3239 -1.4221
   38MOL    H9612010   3.012   1.693   0.186 -0.2335  0.3973 -1.5394
   38MOL    H9712011   2.986   1.782   0.327 -3.0798 -0.8346  3.5986
   38MOL    C9812012   2.874   1.609   0.335  0.3836  0.5390 -0.1757
   38MOL    C9912013   2.778   1.530   0.252 -0.1253  0.4326 -0.1208
   38MOL   C10012014   2.816   1.464   0.131  0.1720 -0.2093 -0.0127
   38MOL   C10112015   2.717   1.387   0.059 -0.0651  1.0487 -0.4968
   38MOL   C10212016   2.592   1.377   0.114 -0.2728  1.0695  0.0412
   38MOL   F10312017   2.520   1.285   0.056 -0.1296 -0.7455  1.0341
   38MOL   C10412018   2.551   1.441   0.234  0.0805 -0.1274 -0.3228
   38MOL   C10512019   2.648   1.523   0.297  0.8513 -0.6216 -0.2396
   38MOL   C10612020   2.973   1.519   0.417 -0.3481  0.1328 -0.1757
   38MOL   H10712021   2.810   1.658   0.408 -0.0273  1.3332 -1.0570
   38MOL   H10812022   2.916   1.468   0.091 -0.1492 -0.4322 -0.8373
   38MOL   H10912023   2.735   1.322   8.209 -2.2729 -1.5307  0.9655
   38MOL   H11012024   2.454   1.432   0.281  0.1069  1.3890  0.0303
   38MOL   H11112025   2.627   1.573   0.390 -1.7244  1.3751 -1.8288
   38MOL   H11212026   2.924   1.450   0.485  0.2461 -0.3018 -0.1806
   38MOL   H11312027   3.015   1.458   0.337 -0.2942 -0.2107  0.1159
   38MOL   C11412028   3.090   1.595   0.490 -0.3090 -0.2086  0.0277
   38MOL   C11512029   3.033   1.677   0.605 -0.2262 -0.0380  0.4855
   38MOL   C11612030   2.952   1.618   0.703  0.9036 -0.8055  0.1679
   38MOL   C11712031   2.893   1.698   0.801 -0.0973 -0.6377  0.2511
   38MOL   C11812032   2.922   1.837   0.809 -0.5985  0.4743 -0.1847
   38MOL   F11912033   2.873   1.898   0.912 -0.4018  0.0086  0.3300
   38MOL   C12012034   3.011   1.894   0.714  0.5684  0.0481 -0.1001
   38MOL   C12112035   3.070   1.813   0.621  0.6354  0.8134  0.0930
   38MOL   C12212036   3.204   1.509   0.545 -0.5578  0.0850 -0.2494
   38MOL   H12312037   3.138   1.675   0.433  0.1724  0.7830  1.7997
   38MOL   H12412038   2.931   1.513   0.692  2.1614 -1.0860  0.3868
   38MOL   H12512039   2.822   1.651   0.867 -0.2352  0.9449  1.2513
   38MOL   H12612040   3.040   1.998   0.714  2.1946 -0.3820  0.3098
   38MOL   H12712041   3.135   1.854   0.545  0.0567 -0.8492 -1.3195
   38MOL   H12812042   3.278   1.576   0.590 -0.9002  0.1262  0.2549
   38MOL   H12912043   3.161   1.455   0.629  1.0189 -3.2295 -1.4933
   38MOL   C13012044   3.282   1.424   0.443 -0.0292  0.4109  0.0093
   38MOL   C13112045   3.376   1.519   0.368  0.9889  0.0954  0.5208
   38MOL   C13212046   3.363   1.535   0.232  0.2968 -0.2178  0.3941
   38MOL   C13312047   3.439   1.648   0.172  0.8250  0.0884  1.1205
   38MOL   C13412048   3.530   1.722   0.243 -0.1143  0.3797 -0.1390
   38MOL   F13512049   3.599   1.815   0.173 -0.4090 -0.2030 -0.0410
   38MOL   C13612050   3.546   1.695   0.381 -0.4174  0.4622  0.1771
   38MOL   C13712051   3.470   1.593   0.441  0.2071 -0.2709 -0.3604
   38MOL   C13812052   3.361   1.321   0.507 -0.6509  0.3017  0.0076
   38MOL   H13912053   3.212   1.383   0.370  0.9599  0.9106 -1.2563
   38MOL   H14012054   3.283   1.496   0.171  0.2283  3.1074 -1.7763
   38MOL   H14112055   3.412   1.683   0.074  0.4324 -0.8342  0.8881
   38MOL   H14212056   3.616   1.757   0.434  2.7703 -3.0070  0.1858
   38MOL   H14312057   3.482   1.597   0.548 -0.5287  2.7854 -0.3286
   38MOL   H14412058   3.453   1.362   0.549  0.9400 -0.6749 -2.3776
   38MOL   H14512059   3.302   1.274   0.585 -1.3513  0.5944 -0.3497
   38MOL   C14612060   3.405   1.205   0.408  0.2439 -0.1745  0.9164
   38MOL   C14712061   3.527   1.122   0.448  1.3602  0.2024 -0.3656
   38MOL   C14812062   3.641   1.115   0.358  0.0561 -0.4562 -0.8087
   38MOL   C14912063   3.753   1.037   0.397 -0.3497  0.5785 -0.8401
   38MOL   C15012064   3.756   0.970   0.520  0.2437  0.5237 -0.0139
   38MOL   F15112065   3.869   0.897   0.553 -0.2771  0.0430  0.0469
   38MOL   C15212066   3.645   0.975   0.605 -0.2387  0.9802 -0.8293
   38MOL   C15312067   3.536   1.059   0.576  0.6218  0.0295 -0.1004
   38MOL   C15412068   3.285   1.118   0.368  0.1131  0.3678  0.3063
   38MOL   H15512069   3.436   1.259   0.319  0.9098 -0.2926  1.0784
   38MOL   H15612070   3.633   1.173   0.268  1.0716  0.5789 -0.2471
   38MOL   H15712071   3.831   1.028   0.321  2.2730  3.3631  1.3892
   38MOL   H15812072   3.652   0.907   0.688 -1.3390 -1.0398 -2.3424
   38MOL   H15912073   3.447   1.063   0.637  1.5294  0.3304  1.2241
   38MOL   H16012074   3.255   1.072   0.462 -1.4535 -0.2919 -0.4903
   38MOL   H16112075   3.197   1.179   0.347  0.6673  0.5091 -1.6952
   38MOL   C16212076   3.297   1.038   0.236 -0.1188  0.1192  0.2012
   38MOL   C16312077   3.395   0.923   0.242 -0.3772  0.1132 -0.3100
   38MOL   C16412078   3.384   0.837   0.354 -0.1517  0.2108  0.0084
   38MOL   C16512079   3.474   0.730   0.376  0.3428 -0.1614  0.5633
   38MOL   C16612080   3.581   0.717   0.284  0.2564  0.2673 -0.1195
   38MOL   F16712081   3.670   0.621   0.312 -0.4816 -0.0642  0.3466
   38MOL   C16812082   3.592   0.802   0.168 -0.3244  0.4101  0.9905
   38MOL   C16912083   3.504   0.908   0.153  0.6119  0.0117 -0.1156
   38MOL   C17012084   3.167   0.977   0.185  1.0101  0.1258 -0.1511
   38MOL   H17112085   3.326   1.110   0.159  0.7245  1.7643  2.0062
   38MOL   H17212086   3.311   0.850   0.432  0.4297 -0.7975  0.7285
   38MOL   H17312087   3.459   0.666   0.461 -0.6202 -2.0510 -0.9783
   38MOL   H17412088   3.655   0.775   0.085 -1.2047 -0.4734  0.6021
   38MOL   H17512089   3.526   0.982   0.077 -0.9708  0.5282 -0.0891
   38MOL   H17612090   3.190   0.920   0.094 -1.0881 -1.9652  0.5589
   38MOL   H17712091   3.136   0.905   0.260  0.2609 -0.1658 -0.7298
   38MOL   C17812092   3.055   1.075   0.152  0.1713  0.3585  0.6539
   38MOL   C17912093   3.099   1.167   0.046 -0.3458  0.0115 -0.3412
   38MOL   C18012094   3.114   1.112   8.150 -0.6925  0.4518  0.3597
   38MOL   C18112095   3.136   1.197   8.038  0.9356 -0.7519 -0.6980
   38MOL   C18212096   3.141   1.334   8.063 -0.5105 -0.0414  0.7715
   38MOL   F18312097   3.164   1.420   7.959  0.2663  0.4416 -0.1916
   38MOL   C18412098   3.135   1.382   8.190 -0.2400 -0.0786  0.1029
   38MOL   C18512099   3.119   1.302   0.069  0.7641  0.3410 -0.3355
   38MOL   C18612100   2.920   1.006   0.116 -0.2492 -0.3457 -0.1216
   38MOL   H18712101   3.025   1.133   0.239 -1.6047  0.8688 -0.2556
   38MOL   H18812102   3.104   1.007   8.129  2.4839 -0.2633  1.9943
   38MOL   H18912103   3.152   1.166   7.936  1.2394 -1.8378 -0.3257
   38MOL   H19012104   3.131   1.488   8.209  1.3241  0.1232 -0.5785
   38MOL   H19112105   3.105   1.353   0.163 -0.7997 -0.5033 -0.1103
   38MOL   H19212106   2.841   1.073   0.080  0.5825  2.1018  2.4240
   38MOL   H19312107   2.944   0.937   0.035 -1.1501 -0.1303 -0.5819
   38MOL   C19412108   2.858   0.926   0.227  0.6635  0.4667 -1.0226
   38MOL   C19512109   2.825   1.023   0.345 -0.2467 -0.6077 -0.2822
   38MOL   C19612110   2.907   1.029   0.455  0.5222 -0.2921  0.3721
   38MOL   C19712111   2.887   1.123   0.559  0.2152 -0.0832  0.7051
   38MOL   C19812112   2.774   1.199   0.565 -0.0196 -0.6986  0.0514
   38MOL   F19912113   2.756   1.274   0.681 -0.1719  0.6002  0.6428
   38MOL   C20012114   2.680   1.193   0.457  0.5382  0.5868  0.3148
   38MOL   C20112115   2.707   1.106   0.345 -0.0377 -0.2287 -0.5665
   38MOL   C20212116   2.731   0.857   0.181  0.3192  0.2398 -0.5453
   38MOL   H20312117   2.931   0.848   0.249  0.8179  0.3572 -1.9210
   38MOL   H20412118   3.002   0.979   0.465  0.4491 -0.0730  2.2169
   38MOL   H20512119   2.969   1.123   0.629  1.5286 -1.5723 -0.7922
   38MOL   H20612120   2.595   1.258   0.462 -1.3602 -1.7511 -0.6062
   38MOL   H20712121   2.631   1.108   0.268 -3.2022  0.9578  2.4329
   38MOL   H20812122   2.668   0.932   0.132 -2.4536 -1.5552  0.1302
   38MOL   H20912123   2.762   0.795   0.097  0.8394 -2.6260  1.6810
   38MOL   C21012124   2.659   0.771   0.288  0.8301  0.4255 -0.7291
   38MOL   C21112125   2.531   0.711   0.233 -0.0145  0.0289  0.3669
   38MOL   C21212126   2.424   0.670   0.313  0.8385 -0.1197 -0.5709
   38MOL   C21312127   2.317   0.588   0.268 -0.2755 -0.1262 -0.0042
   38MOL   C21412128   2.301   0.571   0.128  0.0206  0.6879  0.1253
   38MOL   F21512129   2.198   0.492   0.082  0.4838 -0.0424  0.2524
   38MOL   C21612130   2.401   0.615   0.042 -0.2552 -0.3912  0.3833
   38MOL   C21712131   2.517   0.679   0.093 -0.1737  0.8046 -0.3313
   38MOL   C21812132   2.750   0.664   0.367 -0.5953  0.2336 -0.0230
   38MOL   H21912133   2.625   0.844   0.363  0.5151  0.2891 -0.7380
   38MOL   H22012134   2.423   0.680   0.421  0.4930 -0.2807 -0.5583
   38MOL   H22112135   2.243   0.549   0.337  0.5475 -1.3925  0.1831
   38MOL   H22212136   2.389   0.589   8.173  0.2954  0.3922  0.1168
   38MOL   H22312137   2.585   0.706   0.014 -1.0875 -2.8131 -2.4730
   38MOL   H22412138   2.845   0.704   0.402 -1.1853  0.5521  1.2427
   38MOL   H22512139   2.689   0.631   0.452 -1.4779 -1.3617 -1.2496
   38MOL   C22612140   2.779   0.531   0.297  0.4074  0.1829  0.3500
   38MOL   C22712141   2.857   0.547   0.174 -0.5097  0.0847  0.1855
   38MOL   C22812142   2.812   0.503   0.049 -0.3003 -0.0632  0.1880
   38MOL   C22912143   2.888   0.532   8.168 -0.6595  0.9067  0.7211
   38MOL   C23012144   3.019   0.578   8.180  0.0421 -0.7992 -0.7260
   38MOL   F23112145   3.101   0.585   8.071  0.3871 -0.4455  0.7683
   38MOL   C23212146   3.077   0.613   0.072  0.1480  0.4386  0.2786
   38MOL   C23312147   2.991   0.597   0.184  0.1508 -0.4264 -0.0004
   38MOL   C23412148   2.856   0.426   0.385  0.5733  0.3112  0.1410
   38MOL   H23512149   2.684   0.490   0.266  1.6186 -1.2747 -1.5528
   38MOL   H23612150   2.716   0.454   0.043 -0.2695 -0.3445  1.8821
   38MOL   H23712151   2.861   0.499   8.069 -1.6076 -0.2929  1.3575
   38MOL   H23812152   3.178   0.647   0.089 -0.2716  0.7351  2.3339
   38MOL   H23912153   3.035   0.625   0.279 -0.3135  0.4096 -0.0315
   38MOL   H24012154   2.873   0.347   0.313 -2.7676 -0.0397 -0.3697
   38MOL   H24112155   2.957   0.466   0.398  0.4451  1.1188 -1.2385
   38MOL   C24212156   2.791   0.349   0.505 -0.2518  0.5188 -0.3772
   38MOL   C24312157   2.648   0.305   0.479  0.2615  0.0166  0.2510
   38MOL   C24412158   2.541   0.368   0.547 -0.2278 -0.4757  0.2410
   38MOL   C24512159   2.408   0.325   0.526  0.2687  0.4201 -0.1109
   38MOL   C24612160   2.386   0.216   0.436 -0.2015 -0.0976  0.8602
   38MOL   F24712161   2.267   0.166   0.418  0.3000  0.5011  0.1122
   38MOL   C24812162   2.490   0.149   0.365  0.0091  0.1370 -0.0720
   38MOL   C24912163   2.626   0.201   0.381  0.2460 -0.1104  0.3727
   38MOL   C25012164   2.875   0.236   0.557  0.0569  0.0669  0.1528
   38MOL   H25112165   2.781   0.423   0.585 -0.8144  2.6775 -2.3772
   38MOL   H25212166   2.557   0.451   0.614 -0.4663  1.1164 -1.6243
   38MOL   H25312167   2.322   0.378   0.566  1.3476  3.4698 -1.6205
   38MOL   H25412168   2.487   0.064   0.299  1.1619  0.9582 -1.2217
   38MOL   H25512169   2.704   0.152   0.324  1.3651  0.6586  1.2253
   38MOL   H25612170   2.818   0.179   0.630 -0.2045  1.1633  0.8075
   38MOL   H25712171   2.881   0.176   0.467 -3.0573 -0.5004  0.2700
   38MOL   C25812172   3.015   0.264   0.621  0.4713 -0.1921 -0.5569
   38MOL   C25912173   3.006   0.336   0.750 -0.5932 -0.6017 -0.5051
   38MOL   C26012174   3.126   0.399   0.797  0.5576  0.3482 -0.2115
   38MOL   C26112175   3.127   0.461   0.923  0.0538 -0.0976  0.1191
   38MOL   C26212176   3.011   0.472   1.005  0.2512 -0.3203 -0.6223
   38MOL   F26312177   3.019   0.522   1.132  0.2838  0.5427  0.2104
   38MOL   C26412178   2.892   0.419   0.956  0.2858 -0.1925 -0.2878
   38MOL   C26512179   2.890   0.346   0.835 -0.8735 -0.5881 -0.3913
   38MOL   C26612180   3.110   0.142   0.627 -0.0087 -0.2523 -0.7271
   38MOL   H26712181   3.057   0.335   0.550  0.0414 -0.4581 -1.0811
   38MOL   H26812182   3.219   0.401   0.743  1.0737 -1.0863  0.5995
   38MOL   H26912183   3.221   0.493   0.964 -0.2083 -0.4174  0.9783
   38MOL   H27012184   2.802   0.424   1.017  0.2545 -1.0095 -0.2701
   38MOL   H27112185   2.796   0.298   0.814 -2.4620  2.0146  0.4672
   38MOL   H27212186   3.195   0.161   0.693  0.6272  3.2141 -2.4286
   38MOL   H27312187   3.050   0.064   0.673 -0.9827 -0.1854 -1.8723
   38MOL   C27412188   3.151   0.080   0.494 -0.3497  0.3720  0.0513
   38MOL   C27512189   3.223   0.179   0.404  0.0978 -0.5585  0.0888
   38MOL   C27612190   3.160   0.209   0.276  0.2046  0.6047 -0.0609
   38MOL   C27712191   3.220   0.307   0.197  0.5050 -0.0247  0.7668
   38MOL   C27812192   3.332   0.377   0.234  0.0602 -0.1768  0.2670
   38MOL   F27912193   3.385   0.460   0.140 -0.2285  0.1501 -0.6877
   38MOL   C28012194   3.391   0.355   0.360  0.0125  0.2476 -0.3207
   38MOL   C28112195   3.333   0.256   0.446 -1.1619 -0.3041  0.1016
   38MOL   C28212196   3.246   8.191   0.520  0.2098  0.4019 -0.2616
   38MOL   H28312197   3.063   0.043   0.441 -0.4895  1.2034 -0.2998
   38MOL   H28412198   3.066   0.168   0.241  0.5504  0.8928 -1.3503
   38MOL   H28512199   3.177   0.320   0.099  0.9581 -1.9251  0.2969
   38MOL   H28612200   3.485   0.398   0.391  1.5269 -2.4461 -0.9628
   38MOL   H28712201   3.373   0.240   0.546  1.7251 -3.1193 -1.4248
   38MOL   H28812202   3.325   8.181   0.446 -0.2114 -0.2218 -0.6319
   38MOL   H28912203   3.311   8.222   0.602  0.0359  1.3507 -0.4740
   38MOL   C29012204   3.177   8.059   0.550  0.1282  0.6625  0.3473
   38MOL   C29112205   3.136   7.993   0.420 -0.3336  0.0794  0.4111
   38MOL   C29212206   3.019   8.033   0.347  0.3076 -0.3126  0.0345
   38MOL   C29312207   2.987   7.984   0.217 -0.2179  0.2170  0.2274
   38MOL   C29412208   3.059   7.877   0.167 -0.1734  0.1432  0.2553
   38MOL   F29512209   3.036   7.848   0.037  0.5416  0.1511 -0.0722
   38MOL   C29612210   3.170   7.823   0.243 -0.1069  0.9124  0.2809
   38MOL   C29712211   3.212   7.887   0.362 -0.4346 -0.9115 -0.3210
   38MOL   C29812212   3.242   7.971   0.665  0.4100  0.5439 -0.1958
   38MOL   H29912213   3.079   8.075   0.595 -0.9463 -2.8418 -0.5740
   38MOL   H30012214   2.962   8.120   0.378  2.0082  1.1135 -0.7645
   38MOL   H30112215   2.904   8.028   0.164 -1.8851 -2.1810  0.7634
   38MOL   H30212216   3.223   7.733   0.213 -0.4900  0.7245  0.1673
   38MOL   H30312217   3.296   7.851   0.420  0.7521 -0.2984 -1.6364
   38MOL   H30412218   3.182   7.880   0.675  1.8801 -0.2348  1.7399
   38MOL   H30512219   3.330   7.935   0.612  0.3123 -0.6015  0.4011
   38MOL   C30612220   3.278   8.035   0.804  0.1625 -0.2140 -0.2623
   38MOL   C30712221   3.163   8.106   0.874 -0.2068 -0.0421  0.4891
   38MOL   C30812222   3.033   8.053   0.888  0.4288 -0.9241  0.0470
   38MOL   C30912223   2.933   8.127   0.955  0.0013  0.4406  0.0717
   38MOL   C31012224   2.962   0.021   1.006 -0.2521 -0.3487 -0.4983
   38MOL   F31112225   2.868   0.089   1.067  0.3696  0.5989 -0.2335
   38MOL   C31212226   3.099   0.075   0.988  0.2986 -0.0160  0.3299
   38MOL   C31312227   3.197   8.231   0.929  0.3382  0.0270 -0.3004
   38MOL   C31412228   3.356   7.932   0.899  0.0962 -0.5258  0.8750
   38MOL   H31512229   3.341   8.121   0.780 -0.7087  0.4512 -0.1795
   38MOL   H31612230   3.008   7.957   0.845  0.3692 -1.2874  0.8726
   38MOL   H31712231   2.832   8.091   0.958 -0.5648  2.0079  0.1057
   38MOL   H31812232   3.124   0.176   1.015  0.5034 -0.5110  2.0630
   38MOL   H31912233   3.295   0.038   0.915 -0.1317  1.5024  0.7369
   38MOL   H32012234   3.387   7.983   0.990  0.3877  2.4512 -0.7942
   38MOL   H32112235   3.303   7.843   0.931 -0.5360 -1.4419 -2.5165
   38MOL   H32212236   3.439   7.896   0.838 -0.4392 -1.5834  0.7579
   39MOL     C112237   1.152   3.750   1.206  0.4406 -0.1001 -0.2896
   39MOL     C212238   1.110   3.811   1.342  0.4152  0.3306 -0.5471
   39MOL     C312239   1.196   3.799   1.456 -0.2345  0.6062 -0.1989
   39MOL     C412240   1.140   3.842   1.583  0.1887 -0.1414 -1.0456
   39MOL     C512241   1.015   3.908   1.585 -0.1322  0.4119 -0.0903
   39MOL     F612242   0.966   3.948   1.707 -0.2148 -0.1294 -0.3291
   39MOL     C712243   0.939   3.927   1.469  0.0110  0.1055 -0.7845
   39MOL     C812244   0.989   3.878   1.351  0.5787 -0.2661 -0.2164
   39MOL     C912245   1.286   3.814   1.156  0.3129  0.1266 -0.4359
   39MOL    H1012246   1.079   3.751   1.125 -0.3618  0.2072  0.4341
   39MOL    H1112247   1.296   3.757   1.450 -0.1917  0.5963  0.4929
   39MOL    H1212248   1.202   3.825   1.670  1.5441  0.6454 -1.8423
   39MOL    H1312249   0.843   3.975   1.476  0.4087  0.9170 -0.7443
   39MOL    H1412250   0.931   3.875   1.260 -0.4128 -0.8454  0.4159
   39MOL    H1512251   1.249   3.904   1.107 -1.9802 -1.1296 -1.1098
   39MOL    H1612252   1.344   3.856   1.238 -1.7276  2.3637 -0.0494
   39MOL    H1712253   1.155   3.643   1.223  1.5758 -0.0609 -0.2196
   39MOL    C1812254   1.371   3.726   1.065 -0.0287  0.2061 -0.2116
   39MOL    C1912255   1.292   3.640   0.962 -0.4703 -1.1648  0.3316
   39MOL    C2012256   1.227   3.696   0.850 -0.6743 -0.0250 -0.5021
   39MOL    C2112257   1.178   3.613   0.748  0.5590  0.6738  0.3348
   39MOL    C2212258   1.188   3.473   0.762  0.6942  0.1481  0.0383
   39MOL    F2312259   1.148   3.389   0.659  0.5350 -0.0360  0.1068
   39MOL    C2412260   1.247   3.418   0.875  0.5879 -0.1013  0.5338
   39MOL    C2512261   1.309   3.497   0.973 -1.2510  0.3142  1.1699
   39MOL    C2612262   1.490   3.792   0.988  0.5315  0.1402  0.4270
   39MOL    H2712263   1.415   3.661   1.141 -0.4275 -0.5208 -0.5876
   39MOL    H2812264   1.223   3.803   0.835 -0.4334 -0.0499 -0.7464
   39MOL    H2912265   1.134   3.668   0.667  1.4154  0.3850 -0.3341
   39MOL    H3012266   1.253   3.310   0.877  0.1894 -0.1476 -0.3213
   39MOL    H3112267   1.363   3.452   1.054  1.5049 -3.0296 -2.3282
   39MOL    H3212268   1.539   3.711   0.935 -1.9467 -1.5370  0.5955
   39MOL    H3312269   1.455   3.839   0.895  2.1999  0.0724 -0.2420
   39MOL    C3412270   1.588   3.882   1.062 -0.3683  0.2341  0.2802
   39MOL    C3512271   1.637   3.833   1.197  0.2879 -0.5231  0.1523
   39MOL    C3612272   1.675   3.700   1.225 -0.1891 -0.0802 -0.2447
   39MOL    C3712273   1.694   3.647   1.352 -0.5767  0.1366  0.1490
   39MOL    C3812274   1.682   3.739   1.459  1.0051 -0.8038  0.5757
   39MOL    F3912275   1.736   3.703   1.577 -0.1566  0.0758  0.5991
   39MOL    C4012276   1.654   3.875   1.436  0.0375  0.6182 -0.1269
   39MOL    C4112277   1.615   3.921   1.307 -0.0012 -0.2651 -0.2912
   39MOL    C4212278   1.717   3.902   0.971  1.0335  0.4920  0.1770
   39MOL    H4312279   1.531   3.974   1.072 -1.9828 -0.6880 -0.1381
   39MOL    H4412280   1.692   3.641   1.136 -0.2685 -0.8653  0.2583
   39MOL    H4512281   1.724   3.546   1.371  0.6288  0.1233 -1.7216
   39MOL    H4612282   1.644   3.938   1.523  0.3719 -0.6821  0.8714
   39MOL    H4712283   1.588   4.023   1.286 -2.4039 -0.8642 -0.3792
   39MOL    H4812284   1.762   3.803   0.977  0.2644  0.2822  3.6045
   39MOL    H4912285   1.673   3.918   0.873 -0.4259 -0.4014  0.6539
   39MOL    C5012286   1.813   4.015   1.020 -0.4925 -0.7901  0.2319
   39MOL    C5112287   1.950   3.987   0.970 -0.1709 -0.1474  0.1237
   39MOL    C5212288   2.065   4.020   1.053  0.4426 -0.2130  0.3465
   39MOL    C5312289   2.186   3.970   1.023 -0.2386  0.2846 -0.5403
   39MOL    C5412290   2.215   3.900   0.901  0.6349 -0.3479 -1.2360
   39MOL    F5512291   2.349   3.881   0.886 -0.6516  0.4486  0.4226
   39MOL    C5612292   2.111   3.882   0.814  0.6118  0.5717  0.3666
   39MOL    C5712293   1.971   3.921   0.846 -0.7802 -0.2076 -0.1766
   39MOL    C5812294   1.764   4.153   0.977 -0.1959  0.0361 -0.5372
   39MOL    H5912295   1.831   4.000   1.126  0.7050 -0.1392  0.1251
   39MOL    H6012296   2.040   4.069   1.147 -0.9977  0.0774 -0.1686
   39MOL    H6112297   2.266   3.995   1.091  0.9225 -0.6634 -1.5448
   39MOL    H6212298   2.136   3.839   0.718  0.7515  1.8784 -0.1788
   39MOL    H6312299   1.886   3.898   0.784 -0.8592  0.1773 -0.2108
   39MOL    H6412300   1.838   4.216   0.930 -1.2572  0.9594 -0.9981
   39MOL    H6512301   1.682   4.148   0.905  0.1327 -1.7647 -0.8143
   39MOL    C6612302   1.711   4.230   1.096  0.1856 -0.8337  0.1251
   39MOL    C6712303   1.827   4.260   1.190  0.7322 -0.2692 -0.0680
   39MOL    C6812304   1.814   4.224   1.326 -0.3793 -0.2704 -0.0793
   39MOL    C6912305   1.916   4.238   1.413 -1.1316 -0.4019 -0.5488
   39MOL    C7012306   2.024   4.322   1.375  0.0042 -0.8921 -0.0214
   39MOL    F7112307   2.126   4.349   1.461  0.6114  0.1581  0.1644
   39MOL    C7212308   2.039   4.367   1.242 -0.8727 -0.3667 -0.0873
   39MOL    C7312309   1.940   4.336   1.149 -0.1603  0.4203  0.1154
   39MOL    C7412310   1.627   4.354   1.066  0.4730 -0.7193  0.3391
   39MOL    H7512311   1.650   4.156   1.148  0.3929 -2.1128 -1.3856
   39MOL    H7612312   1.732   4.170   1.370  0.5100 -0.2472  1.6666
   39MOL    H7712313   1.905   4.200   1.514 -5.1340 -0.2229 -0.8424
   39MOL    H7812314   2.126   4.424   1.213 -0.8941 -1.1520 -1.8060
   39MOL    H7912315   1.959   4.354   1.044 -1.5489 -3.3371 -0.8575
   39MOL    H8012316   1.642   4.421   1.150 -0.9946 -1.5052  1.2522
   39MOL    H8112317   1.665   4.412   0.982  0.3533 -0.2609  0.6000
   39MOL    C8212318   1.474   4.333   1.056  0.7368  0.4922  0.2297
   39MOL    C8312319   1.414   4.316   1.192 -0.5861  0.0903  0.5481
   39MOL    C8412320   1.356   4.194   1.225 -0.4255 -0.1309 -1.1734
   39MOL    C8512321   1.306   4.172   1.356  0.5441 -0.1588 -0.1127
   39MOL    C8612322   1.317   4.278   1.450  0.2938 -0.6492 -0.1874
   39MOL    F8712323   1.268   4.260   1.573 -0.9793 -0.0647 -0.1681
   39MOL    C8812324   1.373   4.404   1.419  1.2119  0.1276 -0.2529
   39MOL    C8912325   1.428   4.416   1.290 -0.1710 -0.4426  0.5797
   39MOL    C9012326   1.402   4.433   0.967 -0.1881  0.2792  0.6350
   39MOL    H9112327   1.458   4.234   1.014 -3.8591  1.3073 -0.1736
   39MOL    H9212328   1.352   4.110   1.158  2.1386 -0.2805 -1.2053
   39MOL    H9312329   1.261   4.076   1.377  1.5643 -0.7033 -0.3918
   39MOL    H9412330   1.362   4.480   1.494  1.5777  0.9964 -1.0662
   39MOL    H9512331   1.459   4.512   1.251 -0.9786 -0.5068 -0.2702
   39MOL    H9612332   1.300   4.439   1.005 -0.8312 -1.5667 -0.7452
   39MOL    H9712333   1.458   4.525   0.989  2.3621 -1.4582  1.7626
   39MOL    C9812334   1.395   4.396   0.817  0.2178 -0.4071 -0.2332
   39MOL    C9912335   1.316   4.270   0.787 -0.3208  0.0320 -0.0696
   39MOL   C10012336   1.184   4.253   0.837 -0.0705  0.7613  0.1277
   39MOL   C10112337   1.110   4.140   0.796 -0.2546 -0.2019 -0.6045
   39MOL   C10212338   1.166   4.046   0.707 -0.2361  0.2884 -0.3214
   39MOL   F10312339   1.098   3.951   0.656  0.0389 -0.4041 -0.0875
   39MOL   C10412340   1.302   4.056   0.672  0.8396  0.5321  0.0458
   39MOL   C10512341   1.377   4.171   0.700  0.0409 -0.1773  0.3340
   39MOL   C10612342   1.328   4.522   0.741  0.6066  0.5073 -0.3010
   39MOL   H10712343   1.495   4.380   0.776 -0.0931  0.1628 -1.2265
   39MOL   H10812344   1.137   4.323   0.905  1.1534  1.6337  0.1078
   39MOL   H10912345   1.011   4.123   0.834 -0.8285 -1.1661 -2.4508
   39MOL   H11012346   1.345   3.983   0.605 -1.9218 -1.3732  0.2917
   39MOL   H11112347   1.478   4.181   0.663  0.4616 -0.2800  1.4334
   39MOL   H11212348   1.226   4.548   0.772 -0.6415 -1.0779 -2.9083
   39MOL   H11312349   1.389   4.607   0.771 -0.9106  1.7669 -0.6996
   39MOL   C11412350   1.345   4.537   0.588 -0.3044 -0.2483  0.1903
   39MOL   C11512351   1.242   4.454   0.506 -0.4851  0.0331 -0.2509
   39MOL   C11612352   1.104   4.473   0.529  0.0070  0.4560  0.1452
   39MOL   C11712353   1.008   4.403   0.458  0.0851 -0.8261 -0.1249
   39MOL   C11812354   1.047   4.319   0.352 -0.1764  0.0618  0.3225
   39MOL   F11912355   0.952   4.256   0.279  0.0607  0.2975  0.2452
   39MOL   C12012356   1.181   4.300   0.329  0.3378 -0.0560 -0.6981
   39MOL   C12112357   1.284   4.361   0.405  0.0220  0.2258  0.3248
   39MOL   C12212358   1.336   4.687   0.548 -0.5242 -0.4414 -0.0640
   39MOL   H12312359   1.445   4.496   0.577 -0.2010  0.0821 -0.0928
   39MOL   H12412360   1.071   4.536   0.610 -0.5755 -0.8799  0.9661
   39MOL   H12512361   0.907   4.413   0.494  0.1762  1.1381 -0.3385
   39MOL   H12612362   1.200   4.235   0.245 -0.2226 -1.1527  0.0036
   39MOL   H12712363   1.390   4.348   0.387  0.1961  0.2783  1.2966
   39MOL   H12812364   1.238   4.723   0.580 -0.6923  0.0426 -1.1018
   39MOL   H12912365   1.411   4.744   0.603 -0.3540 -0.1052 -0.6418
   39MOL   C13012366   1.356   4.723   0.399 -0.2292 -1.2380 -0.2140
   39MOL   C13112367   1.486   4.660   0.353  0.8452  0.5914 -0.1046
   39MOL   C13212368   1.495   4.558   0.252 -0.2843 -0.0220  0.6288
   39MOL   C13312369   1.629   4.521   0.213  0.6968  0.3948  0.1317
   39MOL   C13412370   1.742   4.567   0.284 -0.3138 -0.6826 -0.0440
   39MOL   F13512371   1.859   4.515   0.255  0.1622  0.0346  0.5946
   39MOL   C13612372   1.729   4.661   0.386 -0.7459  0.0843 -0.2065
   39MOL   C13712373   1.604   4.711   0.421  0.7720  0.1292 -0.2108
   39MOL   C13812374   1.237   4.712   0.302 -0.4674 -0.3563 -0.0178
   39MOL   H13912375   1.378   4.829   0.404  0.5577 -1.4200  0.3533
   39MOL   H14012376   1.405   4.512   0.213  0.3856 -0.4071 -0.5082
   39MOL   H14112377   1.634   4.443   0.139 -4.6649  2.1470 -2.3086
   39MOL   H14212378   1.816   4.708   0.431 -0.9582  1.2875 -1.0227
   39MOL   H14312379   1.602   4.788   0.496  2.5089  1.2823 -1.3241
   39MOL   H14412380   1.268   4.739   0.201  0.3168  2.0244  0.8037
   39MOL   H14512381   1.196   4.613   0.286 -0.2375 -0.6240  1.0221
   39MOL   C14612382   1.120   4.806   0.349 -0.2149  0.2607 -0.1058
   39MOL   C14712383   1.151   4.945   0.389 -0.4382  1.2587  0.6323
   39MOL   C14812384   1.106   5.000   0.512  0.6265  0.6415  0.1696
   39MOL   C14912385   1.136   5.129   0.556  0.4235  0.2542  0.5282
   39MOL   C15012386   1.213   5.212   0.470 -0.0289  0.0017  0.3185
   39MOL   F15112387   1.233   5.341   0.511 -0.4118  0.1889 -0.1558
   39MOL   C15212388   1.261   5.161   0.347  0.4055  0.0591 -0.0285
   39MOL   C15312389   1.227   5.031   0.304  0.0415 -0.1343  0.5216
   39MOL   C15412390   1.014   4.818   0.236  0.7557 -0.1520  0.0855
   39MOL   H15512391   1.072   4.764   0.437  0.1991  0.9945  0.4699
   39MOL   H15612392   1.046   4.933   0.572 -0.4206  0.0730 -1.4861
   39MOL   H15712393   1.099   5.159   0.653  0.2314 -0.9077  0.8148
   39MOL   H15812394   1.324   5.231   0.294 -0.0267  0.0838 -0.5088
   39MOL   H15912395   1.258   4.990   0.209 -2.8130 -1.2482  0.0338
   39MOL   H16012396   0.949   4.905   0.239 -3.1682 -2.9398 -0.4784
   39MOL   H16112397   1.069   4.839   0.144 -1.5610 -0.4735 -1.4112
   39MOL   C16212398   0.918   4.699   0.213 -0.4078  0.0532  0.2830
   39MOL   C16312399   0.810   4.676   0.324  0.0232  0.1898  0.1823
   39MOL   C16412400   0.764   4.784   0.405 -0.1694  0.1822 -0.3281
   39MOL   C16512401   0.654   4.766   0.495 -0.0708  0.3099 -0.5353
   39MOL   C16612402   0.580   4.641   0.494 -0.5264  0.2286  0.0700
   39MOL   F16712403   0.467   4.610   0.571  0.1962  0.1875 -0.0329
   39MOL   C16812404   0.635   4.542   0.415  0.1078 -0.1199 -0.3359
   39MOL   C16912405   0.743   4.553   0.327 -0.0617 -0.5021  0.0817
   39MOL   C17012406   0.847   4.702   0.074  0.1248 -0.2972 -0.1836
   39MOL   H17112407   0.979   4.609   0.207 -0.8115 -0.1649 -0.6724
   39MOL   H17212408   0.803   4.885   0.405 -0.8830  0.4649 -1.3956
   39MOL   H17312409   0.621   4.852   0.551  2.3787  1.2722 -0.5110
   39MOL   H17412410   0.600   4.441   0.431 -1.1710  0.3839  0.1547
   39MOL   H17512411   0.774   4.474   0.261  1.6906 -0.3020  0.6494
   39MOL   H17612412   0.771   4.624   0.074 -1.3005  0.9963  2.2349
   39MOL   H17712413   0.782   4.790   0.080  2.1252  1.2668 -1.1362
   39MOL   C17812414   0.933   4.712   8.180  0.4871 -0.1516 -0.0037
   39MOL   C17912415   1.029   4.593   8.170  0.4322  0.2225  0.3195
   39MOL   C18012416   0.982   4.456   8.167 -0.9258 -1.0578  0.1134
   39MOL   C18112417   1.081   4.353   8.175  0.3174  0.7851 -0.1179
   39MOL   C18212418   1.220   4.387   8.189 -0.0549 -0.6242 -0.1116
   39MOL   F18312419   1.313   4.295   8.207 -0.6300 -0.4313  0.2934
   39MOL   C18412420   1.263   4.517   8.187 -0.0225  0.6656  0.7160
   39MOL   C18512421   1.166   4.614   8.188  0.4365 -0.7351  0.9098
   39MOL   C18612422   0.852   4.737   8.059  0.8330  0.2536 -0.3795
   39MOL   H18712423   0.996   4.801   8.186 -0.0449  0.2367 -0.2176
   39MOL   H18812424   0.877   4.436   8.156 -1.2477  0.5735 -0.0243
   39MOL   H18912425   1.047   4.250   8.178 -1.2455  1.2625 -0.5582
   39MOL   H19012426   1.362   4.551   8.213  0.9457 -0.3501 -1.5544
   39MOL   H19112427   1.202   4.716   8.198 -1.0936 -0.1363  0.4507
   39MOL   H19212428   0.755   4.690   8.071  1.5208 -0.7886  1.3220
   39MOL   H19312429   0.820   4.841   8.068 -3.0476 -1.0400  1.7381
   39MOL   C19412430   0.915   4.718   7.914  0.2673  0.4791 -0.3795
   39MOL   C19512431   0.889   4.581   7.860 -0.6061  0.6251 -0.2301
   39MOL   C19612432   0.766   4.522   7.842 -0.3761 -0.2101  0.2388
   39MOL   C19712433   0.749   4.392   7.788  0.2084  0.2364 -0.2255
   39MOL   C19812434   0.860   4.323   7.747  0.5129 -0.3702 -0.7470
   39MOL   F19912435   0.848   4.197   7.695  0.2385  0.4626 -0.6328
   39MOL   C20012436   0.985   4.372   7.782 -0.2356  0.4557  0.2163
   39MOL   C20112437   1.004   4.504   7.825  0.4648  0.1052 -0.5947
   39MOL   C20212438   0.873   4.823   7.814  0.4898  0.0372  0.3200
   39MOL   H20312439   1.022   4.732   7.929  0.5341 -0.1230 -1.7021
   39MOL   H20412440   0.679   4.575   7.879  0.7476  1.9557 -0.1520
   39MOL   H20512441   0.652   4.354   7.759 -0.2071  0.2709  1.1084
   39MOL   H20612442   1.074   4.314   7.764  0.5318  2.5404 -3.2600
   39MOL   H20712443   1.103   4.540   7.849  0.6000 -0.9273  0.4282
   39MOL   H20812444   0.765   4.830   7.819  0.1574 -2.3796 -2.5370
   39MOL   H20912445   0.909   4.920   7.851 -1.7740  1.1020 -0.2305
   39MOL   C21012446   0.917   4.809   7.666 -0.3337  0.3361 -0.6996
   39MOL   C21112447   0.803   4.763   7.581  0.2422  0.0654 -0.4921
   39MOL   C21212448   0.811   4.636   7.525  0.2436  0.1730 -0.7611
   39MOL   C21312449   0.700   4.581   7.459 -0.5300  0.4572 -0.4330
   39MOL   C21412450   0.582   4.655   7.443 -0.1835 -0.1241  0.0716
   39MOL   F21512451   0.470   4.605   7.376  0.4778 -0.1104  0.1950
   39MOL   C21612452   0.577   4.783   7.502 -0.8566 -0.6043 -0.0732
   39MOL   C21712453   0.690   4.836   7.573  0.4724 -0.0016  0.0065
   39MOL   C21812454   0.981   4.936   7.607 -0.4764 -0.5739  0.0411
   39MOL   H21912455   0.994   4.731   7.662 -1.7366 -1.0285 -1.6015
   39MOL   H22012456   0.895   4.571   7.545 -0.2053 -0.6104 -1.4124
   39MOL   H22112457   0.705   4.479   7.422  0.5031  1.2671 -2.6073
   39MOL   H22212458   0.488   4.844   7.492  0.3782  1.2193 -0.2422
   39MOL   H22312459   0.687   4.931   7.625  0.7300 -0.4904  0.9275
   39MOL   H22412460   0.914   5.022   7.601  0.2451 -0.0822 -1.0442
   39MOL   H22512461   1.061   4.970   7.672 -0.2342  0.2046 -0.6456
   39MOL   C22612462   1.043   4.952   7.470  0.5041 -0.8492 -0.5176
   39MOL   C22712463   1.048   5.098   7.419  0.5118  1.1079  0.1045
   39MOL   C22812464   1.154   5.177   7.461 -0.5401  0.9142  0.3231
   39MOL   C22912465   1.167   5.312   7.415 -0.3805  0.5938 -0.0498
   39MOL   C23012466   1.077   5.371   7.334  0.3057  0.4161  0.3216
   39MOL   F23112467   1.096   5.491   7.288 -0.4393 -0.4767  0.3490
   39MOL   C23212468   0.962   5.293   7.300 -0.4268  0.2120  0.6899
   39MOL   C23312469   0.953   5.155   7.329 -0.1907  0.0309  1.1601
   39MOL   C23412470   1.176   4.874   7.459  0.1148 -0.0377  0.2374
   39MOL   H23512471   0.976   4.909   7.395  1.1411 -1.7942 -0.5621
   39MOL   H23612472   1.226   5.139   7.533 -1.1476 -2.1224 -0.5910
   39MOL   H23712473   1.244   5.376   7.454 -0.7771  0.9300  0.1819
   39MOL   H23812474   0.882   5.341   7.246 -0.2624 -1.2112 -0.8462
   39MOL   H23912475   0.864   5.099   7.303 -0.0607  0.7691 -1.0241
   39MOL   H24012476   1.242   4.883   7.545 -1.2257 -2.0391  1.5224
   39MOL   H24112477   1.166   4.766   7.454  1.8131 -0.1863 -0.3432
   39MOL   C24212478   1.271   4.898   7.331 -0.3108 -0.6723 -0.1283
   39MOL   C24312479   1.409   4.894   7.384 -0.1214  0.0477  0.0740
   39MOL   C24412480   1.463   4.770   7.441  0.0496  0.0108 -0.7708
   39MOL   C24512481   1.600   4.764   7.483 -0.0756 -0.3700  0.1563
   39MOL   C24612482   1.679   4.881   7.464  0.2478  0.4144 -0.5142
   39MOL   F24712483   1.804   4.869   7.487 -0.4393  0.6128 -0.6980
   39MOL   C24812484   1.634   4.999   7.412  1.1355 -0.2365  0.4529
   39MOL   C24912485   1.495   5.004   7.374 -0.9519 -0.7652  0.2795
   39MOL   C25012486   1.246   4.813   7.204  0.9205  0.0825  0.0908
   39MOL   H25112487   1.243   4.999   7.299 -1.5973 -0.6280  1.0673
   39MOL   H25212488   1.400   4.682   7.439  0.6686 -0.5704  2.4472
   39MOL   H25312489   1.653   4.678   7.523 -0.1745  0.2161  1.5678
   39MOL   H25412490   1.695   5.086   7.394 -1.8381  1.8279 -0.2024
   39MOL   H25512491   1.472   5.095   7.322  3.8077  0.4581  0.0743
   39MOL   H25612492   1.337   4.782   7.152  0.5503  1.9176 -1.7387
   39MOL   H25712493   1.207   4.716   7.233 -2.0528  1.6810  1.7382
   39MOL   C25812494   1.154   4.878   7.089  0.6451 -0.3365  0.0415
   39MOL   C25912495   1.211   5.007   7.039 -0.3987 -0.2436  0.2527
   39MOL   C26012496   1.122   5.119   7.032 -0.2680 -0.1443  0.1702
   39MOL   C26112497   1.173   5.245   6.994 -0.2984  0.1534  0.2804
   39MOL   C26212498   1.309   5.260   6.956  0.3015 -0.6660  0.9961
   39MOL   F26312499   1.356   5.375   6.915 -0.0849 -0.6341 -0.0830
   39MOL   C26412500   1.393   5.156   6.959 -0.1341  0.5987  0.1462
   39MOL   C26512501   1.344   5.022   6.988  1.0754  0.3513 -0.0566
   39MOL   C26612502   1.131   4.783   6.964  0.3218 -0.3349 -0.1448
   39MOL   H26712503   1.060   4.902   7.138  0.8660  2.6551 -0.8641
   39MOL   H26812504   1.020   5.109   7.064  0.0014 -0.6534  0.8805
   39MOL   H26912505   1.107   5.331   6.989 -0.4609  0.0424  0.5181
   39MOL   H27012506   1.497   5.162   6.929 -0.5802  1.9653 -1.1736
   39MOL   H27112507   1.406   4.935   6.975 -0.6540 -1.0430  0.8537
   39MOL   H27212508   1.112   4.845   6.877  0.1484 -0.3925 -0.1467
   39MOL   H27312509   1.224   4.733   6.935  0.3242  0.6880 -1.9870
   39MOL   C27412510   1.025   4.682   6.979 -0.4631 -0.3495  0.4203
   39MOL   C27512511   0.891   4.754   6.992  0.4612  0.4185 -0.2069
   39MOL   C27612512   0.832   4.759   7.119 -0.0116  0.2240 -0.4297
   39MOL   C27712513   0.701   4.814   7.137  0.1004 -0.3506  0.8932
   39MOL   C27812514   0.626   4.844   7.024  0.0095 -0.1806 -0.3344
   39MOL   F27912515   0.498   4.891   7.029 -0.0830  0.0638 -0.2895
   39MOL   C28012516   0.680   4.831   6.896 -0.0422  0.2996  0.0500
   39MOL   C28112517   0.809   4.785   6.876 -0.4691  0.2239 -0.3930
   39MOL   C28212518   1.032   4.582   6.863 -0.5233 -0.6703 -0.4016
   39MOL   H28312519   1.058   4.627   7.068 -1.8753 -0.6893  0.7429
   39MOL   H28412520   0.898   4.736   7.201  1.7226 -0.2117 -1.8928
   39MOL   H28512521   0.663   4.833   7.236  0.9013 -0.1299  1.1616
   39MOL   H28612522   0.621   4.852   6.808  1.6522 -0.3447 -1.2678
   39MOL   H28712523   0.850   4.789   6.777 -1.6126  0.6434 -0.8597
   39MOL   H28812524   0.999   4.639   6.776  1.6731  0.8070 -0.2872
   39MOL   H28912525   1.135   4.552   6.845 -0.4297 -1.3323  1.1140
   39MOL   C29012526   0.938   4.453   6.872  0.6223 -0.2791 -0.0506
   39MOL   C29112527   0.948   4.375   6.741  0.4541 -0.1531  0.1098
   39MOL   C29212528   0.833   4.360   6.666  0.5969  0.0190  0.4363
   39MOL   C29312529   0.834   4.314   6.535  0.1897  0.5447 -0.5280
   39MOL   C29412530   0.959   4.266   6.479 -0.3939 -0.8058 -0.3932
   39MOL   F29512531   0.967   4.231   6.351 -0.0360 -0.6843 -0.3051
   39MOL   C29612532   1.074   4.274   6.553 -0.9482  0.2015 -0.6291
   39MOL   C29712533   1.068   4.330   6.686  0.3948  0.3945 -0.5572
   39MOL   C29812534   0.967   4.357   6.996 -0.0864  0.2303 -0.7752
   39MOL   H29912535   0.837   4.494   6.882  0.6755  0.0048 -0.6982
   39MOL   H30012536   0.744   4.403   6.711 -0.4412  1.4282 -2.8377
   39MOL   H30112537   0.743   4.299   6.477 -1.2678 -1.9629  2.2543
   39MOL   H30212538   1.164   4.237   6.505 -1.2049 -1.1840 -0.0366
   39MOL   H30312539   1.156   4.336   6.748  0.9319 -0.0943 -1.2720
   39MOL   H30412540   1.065   4.316   6.972 -0.0006  0.8511 -1.4883
   39MOL   H30512541   0.980   4.426   7.079  0.0786 -0.5281 -0.1673
   39MOL   C30612542   0.873   4.243   7.018 -0.1459 -0.1315  0.2925
   39MOL   C30712543   0.932   4.143   7.116 -0.3491  0.1685  0.1949
   39MOL   C30812544   0.994   4.178   7.236  0.5245 -0.0511 -0.3982
   39MOL   C30912545   1.036   4.081   7.328 -0.2673  0.3690 -0.0588
   39MOL   C31012546   1.013   3.946   7.303 -0.5479  0.4953 -0.0489
   39MOL   F31112547   1.079   3.852   7.376 -0.3530 -0.5587 -0.1022
   39MOL   C31212548   0.942   3.911   7.181 -0.5705 -0.0192  0.1228
   39MOL   C31312549   0.904   4.006   7.088 -0.4059  1.1978  0.7217
   39MOL   C31412550   0.733   4.283   7.058 -0.7957  0.2001  0.3350
   39MOL   H31512551   0.868   4.193   6.921 -0.1853 -0.8435  0.6562
   39MOL   H31612552   0.998   4.284   7.260 -3.2635  0.0517  0.0992
   39MOL   H31712553   1.087   4.102   7.421  0.3532 -0.4766 -0.1957
   39MOL   H31812554   0.912   3.809   7.163  1.6878 -0.3516 -2.0122
   39MOL   H31912555   0.860   3.978   6.993 -0.3692 -2.7692  1.7756
   39MOL   H32012556   0.729   4.323   7.159 -0.3123  1.3069 -0.0829
   39MOL   H32112557   0.688   4.363   6.999  1.0771  1.0691  0.0757
   39MOL   H32212558   0.664   4.198   7.061 -1.7338  0.9367  0.0518
   40MOL     C112559   3.354   3.095   3.291  0.2173  0.0202 -0.2140
   40MOL     C212560   3.247   3.112   3.398 -0.3744 -0.2325 -0.4244
   40MOL     C312561   3.220   3.000   3.475  0.2984  0.3611  0.4320
   40MOL     C412562   3.118   3.003   3.575 -0.2112 -0.1773 -0.6251
   40MOL     C512563   3.058   3.128   3.602 -0.4434 -0.2111  0.8668
   40MOL     F612564   2.985   3.136   3.708 -0.2246 -0.0406  0.1302
   40MOL     C712565   3.087   3.251   3.528 -0.1017  1.1549 -0.1829
   40MOL     C812566   3.183   3.235   3.423  0.2280 -0.0605 -0.1641
   40MOL     C912567   3.491   3.073   3.361  0.4440  0.5491 -0.8149
   40MOL    H1012568   3.354   3.189   3.235  0.4034 -0.0562 -0.3424
   40MOL    H1112569   3.272   2.909   3.450 -0.9366 -0.3182  0.3175
   40MOL    H1212570   3.082   2.914   3.626 -0.8787 -1.5571 -3.4287
   40MOL    H1312571   3.044   3.345   3.557  0.7212  1.1993  0.9334
   40MOL    H1412572   3.205   3.324   3.366  0.6830 -1.5770 -2.4597
   40MOL    H1512573   3.505   3.156   3.430 -1.6357 -1.7299  2.5112
   40MOL    H1612574   3.480   2.981   3.418  1.6612  1.1289  0.4029
   40MOL    H1712575   3.311   3.018   3.227 -2.7894  1.9677 -0.6510
   40MOL    C1812576   3.610   3.067   3.257 -0.3706  0.7466  0.0444
   40MOL    C1912577   3.634   3.201   3.191 -0.4706  0.3371 -0.5971
   40MOL    C2012578   3.704   3.297   3.269  0.0421  0.6152  0.6008
   40MOL    C2112579   3.748   3.414   3.205 -0.2838  0.1070  0.5733
   40MOL    C2212580   3.715   3.435   3.075 -0.8879 -0.1372 -0.0371
   40MOL    F2312581   3.768   3.548   3.020 -0.2183 -0.0146 -0.7492
   40MOL    C2412582   3.627   3.352   3.002  0.5313 -0.3229 -0.6948
   40MOL    C2512583   3.584   3.232   3.067 -0.2529 -0.0644  0.6493
   40MOL    C2612584   3.735   2.983   3.295  0.0513 -0.5952  0.2558
   40MOL    H2712585   3.560   3.008   3.180  1.2766  1.3149 -1.4947
   40MOL    H2812586   3.730   3.285   3.373 -0.4068 -0.8268  0.5519
   40MOL    H2912587   3.802   3.488   3.262  2.1258 -1.3509  0.2335
   40MOL    H3012588   3.603   3.378   2.900 -2.7857 -0.2537  0.0433
   40MOL    H3112589   3.521   3.158   3.020  0.0263 -0.1053  0.3373
   40MOL    H3212590   3.754   3.015   3.398  1.7647 -0.7123 -0.0180
   40MOL    H3312591   3.692   2.883   3.289 -1.1154 -0.0138 -1.5820
   40MOL    C3412592   3.865   3.006   3.213 -0.5428  0.9114  0.2137
   40MOL    C3512593   3.993   2.969   3.286  0.0603  0.1778  0.1066
   40MOL    C3612594   3.989   2.855   3.372 -0.1194  0.0633  0.9425
   40MOL    C3712595   4.108   2.815   3.429 -0.2458  0.0189 -0.0895
   40MOL    C3812596   4.232   2.882   3.394  0.3958  0.3002  0.0002
   40MOL    F3912597   4.353   2.829   3.429  0.0976  0.3929  0.0415
   40MOL    C4012598   4.230   3.001   3.319  0.7761  0.3581  0.5585
   40MOL    C4112599   4.108   3.037   3.266  0.1836 -0.6304 -0.2238
   40MOL    C4212600   3.859   2.934   3.076  0.2931 -0.1582  0.5765
   40MOL    H4312601   3.866   3.114   3.201  1.8102  0.8645 -0.1081
   40MOL    H4412602   3.899   2.796   3.372 -1.7037  2.2583 -3.0421
   40MOL    H4512603   4.110   2.723   3.486 -2.4616 -0.1007 -0.1610
   40MOL    H4612604   4.314   3.062   3.291  1.9451 -1.8687 -0.9409
   40MOL    H4712605   4.114   3.127   3.206  2.5976  0.8194  2.1040
   40MOL    H4812606   3.867   2.826   3.089  0.7022 -0.3786 -1.3382
   40MOL    H4912607   3.766   2.960   3.024  0.9424 -1.9733 -1.5239
   40MOL    C5012608   3.965   2.987   2.972 -0.4497  0.0144  0.4198
   40MOL    C5112609   3.980   2.889   2.858 -0.0304 -0.3920  0.2329
   40MOL    C5212610   3.874   2.870   2.776 -0.2556  0.3124 -0.0216
   40MOL    C5312611   3.891   2.796   2.660  0.1921  0.0676  0.0155
   40MOL    C5412612   4.013   2.721   2.642  0.4032 -0.0812 -0.3508
   40MOL    F5512613   4.035   2.646   2.528 -0.1051 -0.1012  0.5673
   40MOL    C5612614   4.119   2.734   2.735  0.0196 -0.2871 -0.4857
   40MOL    C5712615   4.102   2.813   2.845 -0.2617  0.0118 -0.2900
   40MOL    C5812616   3.933   3.131   2.919 -0.8370  0.9403 -1.1917
   40MOL    H5912617   4.069   2.997   3.003 -0.1853  1.0878 -0.7395
   40MOL    H6012618   3.783   2.926   2.790 -0.8676 -0.7293  0.2015
   40MOL    H6112619   3.805   2.797   2.595 -0.4130  1.0472  0.8045
   40MOL    H6212620   4.208   2.675   2.717  0.4038  0.6633 -1.7438
   40MOL    H6312621   4.188   2.833   2.908 -0.1646 -0.4576 -0.2770
   40MOL    H6412622   3.827   3.126   2.896 -1.2697 -0.9835  1.1203
   40MOL    H6512623   3.941   3.202   3.002 -1.8499  0.3822 -0.6121
   40MOL    C6612624   4.010   3.182   2.796  0.4810  0.2317  0.0623
   40MOL    C6712625   3.941   3.304   2.735 -0.0134 -0.2193  0.3760
   40MOL    C6812626   3.958   3.437   2.787  1.2409 -0.6720  0.1493
   40MOL    C6912627   3.896   3.550   2.718 -0.6909  0.5297  0.5039
   40MOL    C7012628   3.814   3.526   2.606 -0.4180 -0.1090 -0.3308
   40MOL    F7112629   3.752   3.627   2.550  0.0339 -0.6756  0.0242
   40MOL    C7212630   3.788   3.395   2.559 -0.2352 -0.0614 -0.3209
   40MOL    C7312631   3.854   3.284   2.623 -0.5815  0.3178  0.1013
   40MOL    C7412632   4.155   3.205   2.832  0.7839  0.6974  0.0770
   40MOL    H7512633   3.998   3.106   2.719 -2.3913  1.5585 -0.8470
   40MOL    H7612634   4.006   3.456   2.882 -0.3190  2.4801  0.3789
   40MOL    H7712635   3.901   3.647   2.764  0.7362  0.8791 -0.3578
   40MOL    H7812636   3.728   3.388   2.469 -0.2921  0.5877 -0.3334
   40MOL    H7912637   3.838   3.184   2.588 -1.0194  0.0786  0.9732
   40MOL    H8012638   4.171   3.288   2.901 -0.5575  0.3601  0.8054
   40MOL    H8112639   4.188   3.122   2.893  0.9130  0.8556  0.2242
   40MOL    C8212640   4.250   3.240   2.717 -0.6584  0.3154 -0.3948
   40MOL    C8312641   4.377   3.291   2.779  0.3942 -0.0240 -0.2671
   40MOL    C8412642   4.447   3.207   2.867 -0.0551  0.1850 -0.0343
   40MOL    C8512643   4.582   3.235   2.902  0.5575  1.2341  0.9403
   40MOL    C8612644   4.641   3.356   2.861  0.0426  0.0355 -0.3419
   40MOL    F8712645   4.779   3.382   2.876  0.3292 -0.4683  0.3496
   40MOL    C8812646   4.566   3.446   2.787  0.0226  0.8328 -0.0176
   40MOL    C8912647   4.431   3.417   2.750 -0.5513 -0.0185 -0.8312
   40MOL    C9012648   4.286   3.124   2.623  0.3295  0.4378  0.4180
   40MOL    H9112649   4.208   3.327   2.666 -1.8605  0.0756  0.1562
   40MOL    H9212650   4.401   3.114   2.894 -0.3907  0.5170  0.5330
   40MOL    H9312651   4.644   3.167   2.959 -1.3655 -1.5143 -0.1425
   40MOL    H9412652   4.625   3.533   2.761  0.5319  0.0908 -1.3803
   40MOL    H9512653   4.376   3.482   2.684  1.7115  1.3834 -1.4334
   40MOL    H9612654   4.307   3.038   2.685 -0.4093 -0.3971 -0.4685
   40MOL    H9712655   4.196   3.088   2.573 -0.2882  0.4507  1.5045
   40MOL    C9812656   4.402   3.146   2.522 -0.1912  0.2661 -0.1537
   40MOL    C9912657   4.463   3.008   2.466  0.1643  0.0786  0.4143
   40MOL   C10012658   4.600   3.008   2.429  0.4495 -0.2668 -0.3864
   40MOL   C10112659   4.654   2.889   2.377  0.1854 -0.6363 -0.1895
   40MOL   C10212660   4.572   2.777   2.355 -0.4146  0.0377 -0.0845
   40MOL   F10312661   4.619   2.663   2.294 -0.1228 -0.7199 -0.5143
   40MOL   C10412662   4.446   2.775   2.410 -0.3180 -0.3002 -0.1312
   40MOL   C10512663   4.386   2.892   2.465  1.0585 -0.4739  0.2230
   40MOL   C10612664   4.372   3.248   2.412  0.0552 -0.1803 -0.4578
   40MOL   H10712665   4.483   3.175   2.589 -2.1409  0.1708  2.3220
   40MOL   H10812666   4.663   3.092   2.457 -0.6390  0.0213  1.3244
   40MOL   H10912667   4.761   2.884   2.364  0.0558 -1.0461 -1.1125
   40MOL   H11012668   4.391   2.682   2.406 -0.5159 -0.1367 -1.4479
   40MOL   H11112669   4.287   2.875   2.504 -0.0386 -1.3418 -2.8120
   40MOL   H11212670   4.372   3.338   2.473 -0.0242 -0.2897 -0.2972
   40MOL   H11312671   4.465   3.240   2.355 -0.0431 -1.8104 -0.4223
   40MOL   C11412672   4.249   3.258   2.316 -1.2776  0.1902  0.2106
   40MOL   C11512673   4.223   3.406   2.287  0.0525 -0.1871 -1.2455
   40MOL   C11612674   4.094   3.468   2.319  0.1776  0.0193 -0.7215
   40MOL   C11712675   4.076   3.605   2.304  0.8130 -0.5062 -0.0652
   40MOL   C11812676   4.179   3.681   2.247 -0.2290  0.1144  0.5889
   40MOL   F11912677   4.143   3.806   2.225  0.5254 -0.0354  0.1432
   40MOL   C12012678   4.305   3.631   2.210 -0.5266  0.4335  0.2559
   40MOL   C12112679   4.328   3.491   2.238  0.2178  0.3678 -0.0680
   40MOL   C12212680   4.268   3.182   2.185 -0.4710  0.1690 -0.8913
   40MOL   H12312681   4.164   3.215   2.370  0.5065 -0.6129  2.4638
   40MOL   H12412682   4.014   3.409   2.362  0.0589  0.4814 -0.3098
   40MOL   H12512683   3.982   3.655   2.325  0.0014 -2.0332 -0.0247
   40MOL   H12612684   4.380   3.700   2.173 -1.3216  1.6563  0.9027
   40MOL   H12712685   4.418   3.447   2.197  0.4569  0.1392  0.6920
   40MOL   H12812686   4.287   3.260   2.111 -0.2943  0.3037 -0.7048
   40MOL   H12912687   4.356   3.119   2.192 -2.1570 -1.9647  3.0694
   40MOL   C13012688   4.154   3.090   2.140  0.3263 -1.1082  0.0377
   40MOL   C13112689   4.009   3.143   2.147  0.2771 -0.1319 -0.5113
   40MOL   C13212690   3.971   3.246   2.059  0.4416 -0.8233 -0.1303
   40MOL   C13312691   3.843   3.312   2.082 -0.8470 -0.1259 -0.1020
   40MOL   C13412692   3.754   3.274   2.184  0.1018 -0.2480  0.6609
   40MOL   F13512693   3.636   3.337   2.189  0.0551 -0.2811 -0.1108
   40MOL   C13612694   3.789   3.163   2.266  0.5116 -0.4389  0.3803
   40MOL   C13712695   3.917   3.104   2.252 -0.6439  0.3501 -0.1283
   40MOL   C13812696   4.187   3.031   2.008 -0.6825  0.0677  0.1100
   40MOL   H13912697   4.154   3.012   2.215  0.5252  0.8000  2.0835
   40MOL   H14012698   4.035   3.285   1.982  2.1170  0.8588  2.0568
   40MOL   H14112699   3.825   3.398   2.019 -1.3798  1.3747  2.0763
   40MOL   H14212700   3.719   3.125   2.339  1.5113 -3.4944 -0.1804
   40MOL   H14312701   3.947   3.020   2.313 -0.2813 -0.3846 -1.3049
   40MOL   H14412702   4.163   3.099   1.927 -0.0498 -1.1936 -1.1620
   40MOL   H14512703   4.293   3.008   2.004 -1.1347 -2.6496  1.8316
   40MOL   C14612704   4.126   2.894   1.989  0.6287 -0.4760  0.3430
   40MOL   C14712705   3.991   2.896   1.923 -0.3835 -0.3303  0.3779
   40MOL   C14812706   3.981   2.932   1.787 -0.3557  0.0177 -0.1970
   40MOL   C14912707   3.853   2.921   1.731 -0.1724 -1.1204  0.2408
   40MOL   C15012708   3.740   2.876   1.795 -1.0583  0.4341  0.2828
   40MOL   F15112709   3.625   2.869   1.726 -0.1234 -0.0229  0.5604
   40MOL   C15212710   3.749   2.848   1.934 -0.2792  0.6669 -0.2812
   40MOL   C15312711   3.875   2.866   1.999  0.0242  0.5368 -0.2937
   40MOL   C15412712   4.223   2.799   1.922 -0.9050  0.2589 -0.3020
   40MOL   H15512713   4.125   2.845   2.087  1.0198 -0.1600  0.5066
   40MOL   H15612714   4.068   2.962   1.731  0.0291  0.8766  0.8427
   40MOL   H15712715   3.841   2.949   1.628 -0.3595  0.5729  0.7090
   40MOL   H15812716   3.662   2.809   1.984  1.9039  0.5297  3.6119
   40MOL   H15912717   3.880   2.831   2.101 -2.3554  1.8405  0.2989
   40MOL   H16012718   4.257   2.833   1.824 -0.0005 -2.1711 -0.8544
   40MOL   H16112719   4.317   2.794   1.976 -0.2165 -4.6020 -1.7594
   40MOL   C16212720   4.187   2.644   1.916 -0.0055 -0.3498 -0.1043
   40MOL   C16312721   4.188   2.573   2.052  0.9147  0.1114  0.2690
   40MOL   C16412722   4.073   2.571   2.136  0.4545 -0.2573 -0.2588
   40MOL   C16512723   4.076   2.519   2.268  0.5800  0.0869  0.2403
   40MOL   C16612724   4.199   2.472   2.320 -0.4112  0.1918  0.6088
   40MOL   F16712725   4.196   2.409   2.443 -0.6166  0.2431  0.0976
   40MOL   C16812726   4.317   2.475   2.239 -0.8291 -0.4223  0.2086
   40MOL   C16912727   4.310   2.522   2.104 -0.1989 -0.6420 -0.6899
   40MOL   C17012728   4.074   2.602   1.817 -0.2195 -0.4595  0.3481
   40MOL   H17112729   4.274   2.592   1.877  0.7844  1.2156 -0.4745
   40MOL   H17212730   3.982   2.610   2.092 -1.0268 -2.6036  0.6297
   40MOL   H17312731   3.987   2.521   2.328  2.2958 -0.9808  2.8849
   40MOL   H17412732   4.403   2.432   2.287 -1.8861 -1.6856  1.0353
   40MOL   H17512733   4.390   2.525   2.031  0.7217 -3.8002  0.1384
   40MOL   H17612734   3.978   2.637   1.855 -0.6389  1.6969 -2.4991
   40MOL   H17712735   4.085   2.655   1.723 -0.5608  0.6596  0.9365
   40MOL   C17812736   4.051   2.450   1.784  1.5559 -0.6579  0.3319
   40MOL   C17912737   3.906   2.409   1.805  0.1341  0.9560  0.4947
   40MOL   C18012738   3.872   2.307   1.902 -0.6468 -0.5380 -0.1888
   40MOL   C18112739   3.736   2.285   1.934  0.1139  0.4870  0.1191
   40MOL   C18212740   3.637   2.352   1.863  0.3364  0.5811 -0.5938
   40MOL   F18312741   3.511   2.332   1.901 -0.1138  0.3469  0.7019
   40MOL   C18412742   3.672   2.450   1.761 -0.4486  0.1558 -0.5572
   40MOL   C18512743   3.805   2.485   1.742 -0.1479  0.1353  0.4462
   40MOL   C18612744   4.115   2.399   1.646 -0.1501 -0.2443  0.4724
   40MOL   H18712745   4.100   2.394   1.864  2.0055 -0.4630  0.1967
   40MOL   H18812746   3.958   2.269   1.956 -1.0700  2.8679  3.0377
   40MOL   H18912747   3.705   2.213   2.009  0.3600 -0.5542 -0.7670
   40MOL   H19012748   3.601   2.511   1.709  0.3023  2.0730  0.6154
   40MOL   H19112749   3.828   2.568   1.677  0.0517  1.0607  1.6822
   40MOL   H19212750   4.097   2.292   1.632  3.7962 -0.5262 -3.6937
   40MOL   H19312751   4.051   2.446   1.571 -0.2164 -0.8699  0.1289
   40MOL   C19412752   4.269   2.436   1.627 -0.1442 -0.3753  0.0959
   40MOL   C19512753   4.368   2.347   1.708  0.4563 -0.4112  0.4227
   40MOL   C19612754   4.349   2.207   1.698  0.1863  0.8040  0.1529
   40MOL   C19712755   4.422   2.121   1.778 -1.1695 -0.2845  0.2672
   40MOL   C19812756   4.516   2.177   1.873  0.5775 -0.9603 -0.0092
   40MOL   F19912757   4.560   2.100   1.967 -0.3506 -0.1396  0.8012
   40MOL   C20012758   4.536   2.318   1.877 -0.2132  0.0645 -0.2581
   40MOL   C20112759   4.461   2.400   1.797 -0.1539  0.2956  0.6182
   40MOL   C20212760   4.318   2.411   1.479 -0.0016  0.3163 -0.2854
   40MOL   H20312761   4.292   2.540   1.648  3.0747 -1.0778  0.3234
   40MOL   H20412762   4.288   2.171   1.616  1.8145  0.9197 -1.1566
   40MOL   H20512763   4.410   2.014   1.775  0.4756 -0.5312  1.7047
   40MOL   H20612764   4.609   2.359   1.944  0.1379 -0.1573 -0.5001
   40MOL   H20712765   4.467   2.508   1.799  1.4278  0.2420 -0.3664
   40MOL   H20812766   4.427   2.421   1.479  0.0654 -0.0771 -2.7776
   40MOL   H20912767   4.300   2.308   1.450 -1.6115  1.0677 -2.0449
   40MOL   C21012768   4.266   2.500   1.368 -0.5867  0.2411 -0.2912
   40MOL   C21112769   4.279   2.644   1.407 -0.0200 -0.0972 -0.0755
   40MOL   C21212770   4.165   2.722   1.441 -0.1636  0.0488 -0.1919
   40MOL   C21312771   4.176   2.855   1.476  0.5654  0.1639  0.2321
   40MOL   C21412772   4.301   2.915   1.484  0.2461 -0.1555  0.1789
   40MOL   F21512773   4.307   3.046   1.521 -0.1568 -0.2430  0.0594
   40MOL   C21612774   4.418   2.842   1.444  0.5736  0.0121 -0.3130
   40MOL   C21712775   4.403   2.710   1.402 -0.8699  0.5648 -0.9711
   40MOL   C21812776   4.312   2.460   1.224  0.3653 -0.1180 -0.4687
   40MOL   H21912777   4.158   2.495   1.362 -0.6195  0.9244 -0.3552
   40MOL   H22012778   4.072   2.671   1.463 -0.2476  0.7665  1.2408
   40MOL   H22112779   4.084   2.905   1.504 -1.2898 -2.5466 -0.8848
   40MOL   H22212780   4.513   2.891   1.433 -0.0809  0.7023 -3.2153
   40MOL   H22312781   4.486   2.662   1.354 -0.1918  2.2188 -1.4934
   40MOL   H22412782   4.418   2.486   1.222  0.5217 -0.7302 -0.2877
   40MOL   H22512783   4.305   2.351   1.224 -0.7971 -0.0521 -0.8338
   40MOL   C22612784   4.218   2.525   1.106  0.4623 -0.0130 -0.2890
   40MOL   C22712785   4.263   2.674   1.078  0.1837  0.0779  0.4067
   40MOL   C22812786   4.172   2.774   1.121 -0.1301  0.0699  0.7939
   40MOL   C22912787   4.206   2.908   1.095 -0.1330  0.2343 -0.0619
   40MOL   C23012788   4.326   2.947   1.027  0.0630 -0.5146 -0.3863
   40MOL   F23112789   4.361   3.079   1.003 -0.6369 -0.1545 -0.4859
   40MOL   C23212790   4.414   2.845   0.992  0.0333  0.2138 -0.3224
   40MOL   C23312791   4.384   2.709   1.010  1.4484 -0.0359  0.5157
   40MOL   C23412792   4.221   2.438   0.972  0.1754  0.3826  0.0132
   40MOL   H23512793   4.117   2.526   1.146  0.2580  1.8882 -0.8381
   40MOL   H23612794   4.078   2.743   1.165  0.1904 -3.0847 -0.5809
   40MOL   H23712795   4.129   2.980   1.119 -0.3985  0.5371 -1.7342
   40MOL   H23812796   4.510   2.874   0.953 -0.0550  1.0961  0.1133
   40MOL   H23912797   4.448   2.636   0.963 -1.4215 -1.8067 -0.7151
   40MOL   H24012798   4.174   2.498   0.894  0.5773 -1.6707 -1.8271
   40MOL   H24112799   4.326   2.426   0.945  1.1650  1.2338  3.2508
   40MOL   C24212800   4.141   2.302   0.962  0.0746 -0.1316 -0.0007
   40MOL   C24312801   3.996   2.319   1.017  0.2976  0.2666  0.7042
   40MOL   C24412802   3.965   2.296   1.154  0.1938  0.4374 -0.0390
   40MOL   C24512803   3.840   2.330   1.204 -0.2915 -0.5535  0.4159
   40MOL   C24612804   3.737   2.375   1.115  0.0769  0.6789  0.7434
   40MOL   F24712805   3.621   2.410   1.169 -0.0419 -0.4464 -0.0130
   40MOL   C24812806   3.757   2.379   0.979  0.3267 -0.1057  0.0088
   40MOL   C24912807   3.889   2.367   0.927  0.0050  0.9820 -0.1310
   40MOL   C25012808   4.146   2.252   0.815  0.5307  0.0027  0.2338
   40MOL   H25112809   4.179   2.216   1.018 -0.2907  0.6503  1.4834
   40MOL   H25212810   4.046   2.263   1.219 -0.9998  1.9071  2.2758
   40MOL   H25312811   3.813   2.323   1.308 -0.1103  2.0179  0.6548
   40MOL   H25412812   3.676   2.403   0.912  2.2154  1.3935 -1.7967
   40MOL   H25512813   3.917   2.377   0.823  1.0604  0.9639  0.1417
   40MOL   H25612814   4.079   2.167   0.799  0.6942 -0.0759 -0.0406
   40MOL   H25712815   4.100   2.329   0.753  1.9210  0.6390 -0.0153
   40MOL   C25812816   4.289   2.216   0.750 -0.9376  0.2288  0.0719
   40MOL   C25912817   4.355   2.103   0.829  0.2236  0.0811 -0.6748
   40MOL   C26012818   4.304   1.978   0.858 -0.2593  0.4715 -0.6586
   40MOL   C26112819   4.375   1.883   0.936  0.2441 -0.2262  0.5434
   40MOL   C26212820   4.499   1.911   0.990  0.0864  0.8250 -0.1259
   40MOL   F26312821   4.566   1.824   1.073 -0.1208 -0.9483 -0.3850
   40MOL   C26412822   4.556   2.040   0.965 -0.3189 -1.0599 -0.0131
   40MOL   C26512823   4.486   2.127   0.882  0.1128 -0.2801  0.8440
   40MOL   C26612824   4.264   2.183   0.598  0.3089 -0.6623 -0.1880
   40MOL   H26712825   4.349   2.307   0.755 -1.0180  0.2242  1.2769
   40MOL   H26812826   4.206   1.936   0.840  0.3069 -0.9959 -0.3570
   40MOL   H26912827   4.325   1.793   0.968 -1.7341  0.4172 -0.6760
   40MOL   H27012828   4.651   2.066   1.009 -0.8570  0.6736  0.1378
   40MOL   H27112829   4.540   2.220   0.872 -2.0584  0.8553 -0.6457
   40MOL   H27212830   4.196   2.099   0.586 -1.0347  0.4997 -0.8855
   40MOL   H27312831   4.214   2.258   0.538  2.1351  2.1625  1.6528
   40MOL   C27412832   4.392   2.147   0.514  0.2637 -0.3128  0.4303
   40MOL   C27512833   4.508   2.253   0.518  0.5308 -0.1627  0.3460
   40MOL   C27612834   4.643   2.229   0.557  0.2098  0.1637  0.0847
   40MOL   C27712835   4.736   2.340   0.571 -0.5388 -0.0050 -0.7603
   40MOL   C27812836   4.694   2.471   0.545 -0.3430  0.7895  0.3859
   40MOL   F27912837   4.776   2.579   0.554 -0.6542  0.6114 -0.4364
   40MOL   C28012838   4.565   2.489   0.499  0.3047 -0.5425 -0.3447
   40MOL   C28112839   4.471   2.387   0.487 -0.4308  0.4259 -0.7351
   40MOL   C28212840   4.442   1.999   0.550 -0.1425 -0.8170 -0.3201
   40MOL   H28312841   4.358   2.139   0.411  1.5929  1.3520 -0.1657
   40MOL   H28412842   4.679   2.131   0.582  2.0340  1.0217  0.9295
   40MOL   H28512843   4.833   2.324   0.615 -0.6317  1.2875 -0.0471
   40MOL   H28612844   4.533   2.590   0.477 -0.5518 -0.5326  0.8918
   40MOL   H28712845   4.376   2.407   0.440 -0.3499 -0.2312 -1.1919
   40MOL   H28812846   4.507   2.002   0.638  1.9088  0.4230 -1.8422
   40MOL   H28912847   4.358   1.938   0.585  1.0526 -1.7493  0.9960
   40MOL   C29012848   4.531   1.927   0.445 -0.0181 -0.6873  0.6566
   40MOL   C29112849   4.635   1.845   0.522 -0.9108 -0.0563 -1.1536
   40MOL   C29212850   4.776   1.867   0.493 -0.8105  0.2765 -0.1538
   40MOL   C29312851   4.872   1.795   0.567  0.2125  0.3911 -1.5033
   40MOL   C29412852   4.836   1.696   0.663  0.0169 -0.2633 -0.1792
   40MOL   F29512853   4.925   1.617   0.725 -0.6623  0.0132 -0.4280
   40MOL   C29612854   4.705   1.676   0.696  0.8122  0.0783  0.4369
   40MOL   C29712855   4.601   1.740   0.619  0.0022 -0.5563  0.0723
   40MOL   C29812856   4.441   1.844   0.356  0.5091 -0.0180  0.3363
   40MOL   H29912857   4.580   2.001   0.382 -3.3151  1.8511  0.9323
   40MOL   H30012858   4.809   1.943   0.424  0.8982 -0.2186  0.0974
   40MOL   H30112859   4.974   1.818   0.543  0.7083 -0.4818 -0.2775
   40MOL   H30212860   4.679   1.595   0.763  1.0732  0.4474  0.9913
   40MOL   H30312861   4.497   1.723   0.643 -0.3217 -0.6629 -1.3435
   40MOL   H30412862   4.409   1.757   0.413  0.7996  0.6551  1.5476
   40MOL   H30512863   4.351   1.901   0.334 -1.6017 -3.0875  0.6386
   40MOL   C30612864   4.506   1.784   0.223  0.2050  0.4971  0.4991
   40MOL   C30712865   4.400   1.713   0.139  0.0355  0.4517 -0.2429
   40MOL   C30812866   4.370   1.576   0.178 -0.8000 -0.6641  0.3867
   40MOL   C30912867   4.277   1.507   0.096  0.0876 -0.5810  0.7927
   40MOL   C31012868   4.217   1.566   8.218  0.4479  0.0000 -1.0747
   40MOL   F31112869   4.129   1.494   8.148 -0.5899  0.3807 -0.2782
   40MOL   C31212870   4.239   1.702   8.194  0.2386  0.5781 -0.3465
   40MOL   C31312871   4.337   1.776   0.028 -0.0041  0.6389 -0.4305
   40MOL   C31412872   4.583   1.886   0.140  0.3954 -0.1213  0.7324
   40MOL   H31512873   4.587   1.717   0.250 -2.0796 -2.2831  0.6371
   40MOL   H31612874   4.425   1.531   0.260  0.7349  0.5595  0.0525
   40MOL   H31712875   4.245   1.405   0.110 -3.0052 -0.3274 -3.3245
   40MOL   H31812876   4.188   1.755   8.114 -2.0792 -1.4573 -0.2831
   40MOL   H31912877   4.366   1.872   8.225  2.3949 -0.1343 -0.6645
   40MOL   H32012878   4.612   1.846   0.043 -1.6062  0.9449 -0.3410
   40MOL   H32112879   4.523   1.976   0.131  0.6852  0.2650  2.4830
   40MOL   H32212880   4.681   1.914   0.179  1.2515  1.8249 -2.6513
   41MOL     C112881   7.595   2.878   8.150 -0.8721  0.2900 -0.5444
   41MOL     C212882   7.645   2.785   0.028  0.4509 -0.9370 -0.5654
   41MOL     C312883   7.547   2.725   0.108  0.4370  0.5458 -0.2180
   41MOL     C412884   7.583   2.656   0.227 -0.3690  0.9711 -0.7286
   41MOL     C512885   7.718   2.667   0.272 -0.1532  0.0368  0.0158
   41MOL     F612886   7.748   2.606   0.386  0.0704 -0.0146  0.0043
   41MOL     C712887   7.812   2.731   0.194  0.2982  0.5435  0.2604
   41MOL     C812888   7.782   2.786   0.066  0.0799  0.1457  0.4418
   41MOL     C912889   7.649   3.021   8.174  0.8734 -0.9729  0.4696
   41MOL    H1012890   7.486   2.878   8.142 -1.2505 -1.0907  3.6321
   41MOL    H1112891   7.442   2.747   0.090  0.0052 -1.4401 -0.2449
   41MOL    H1212892   7.515   2.614   0.300  0.1435  1.0846 -0.1817
   41MOL    H1312893   7.914   2.747   0.226  0.8286 -0.7843 -0.7221
   41MOL    H1412894   7.859   2.832   0.006 -0.1852  1.4202  1.0399
   41MOL    H1512895   7.612   3.066   0.031  0.2670 -0.9055  0.1933
   41MOL    H1612896   7.757   3.017   8.187  0.9009 -0.1179  0.5428
   41MOL    H1712897   7.635   2.844   8.054 -0.3364  0.2180 -0.2997
   41MOL    C1812898   7.625   3.112   8.052 -0.0958 -1.1605  0.2445
   41MOL    C1912899   7.473   3.129   8.028 -0.3162  0.3449  0.0969
   41MOL    C2012900   7.414   3.094   7.910  0.1978  0.4773 -0.0237
   41MOL    C2112901   7.280   3.117   7.891  0.3964  0.1308 -0.0431
   41MOL    C2212902   7.198   3.176   7.994 -0.0193 -0.0157 -0.1663
   41MOL    F2312903   7.067   3.196   7.980  0.3851 -0.7503  0.0988
   41MOL    C2412904   7.254   3.203   8.119 -0.1993  0.0876 -0.0681
   41MOL    C2512905   7.391   3.182   8.130 -0.8748 -0.2679 -0.8982
   41MOL    C2612906   7.697   3.251   8.056 -0.0132  0.3767  0.2322
   41MOL    H2712907   7.650   3.059   7.961 -1.7197 -2.7715  0.7026
   41MOL    H2812908   7.474   3.059   7.828  0.3980  0.7617  0.0011
   41MOL    H2912909   7.234   3.098   7.796  2.4854 -0.4249 -0.9744
   41MOL    H3012910   7.195   3.231   8.204  0.1242  0.0945  0.1542
   41MOL    H3112911   7.439   3.197   8.226  2.1492 -1.4641 -2.1796
   41MOL    H3212912   7.681   3.309   7.965 -0.6630  1.2942  0.9214
   41MOL    H3312913   7.662   3.301   8.146 -0.5990  1.5189 -0.6186
   41MOL    C3412914   7.852   3.237   8.052 -0.3947 -0.2732  0.5844
   41MOL    C3512915   7.898   3.180   7.915  0.3155  0.4185  0.6598
   41MOL    C3612916   7.885   3.259   7.793 -0.7559 -0.4725 -0.1634
   41MOL    C3712917   7.936   3.207   7.663 -0.6457  0.9469 -0.7060
   41MOL    C3812918   7.980   3.075   7.663  0.1937  0.2263  0.7434
   41MOL    F3912919   8.018   3.013   7.548  0.2437 -0.0721  0.0734
   41MOL    C4012920   7.989   2.998   7.785 -0.5483 -0.7214  0.0264
   41MOL    C4112921   7.957   3.052   7.909 -0.2167  0.2314 -0.0701
   41MOL    C4212922   7.915   3.377   8.080  0.0012  0.9315  0.0315
   41MOL    H4312923   7.894   3.160   8.118  1.0640 -0.5936 -0.6853
   41MOL    H4412924   7.857   3.364   7.794  0.8670  0.0362 -2.6266
   41MOL    H4512925   7.932   3.271   7.576  2.6656 -0.1619 -1.7556
   41MOL    H4612926   8.029   2.898   7.775 -0.8101 -0.8637  0.4288
   41MOL    H4712927   7.974   2.990   7.996  0.7363 -0.9396 -1.0682
   41MOL    H4812928   8.014   3.401   8.040  0.1876  0.1974  0.0421
   41MOL    H4912929   7.858   3.460   8.038 -0.0090  0.7036 -0.4034
   41MOL    C5012930   7.917   3.413   8.231  0.5847  0.2125  0.3526
   41MOL    C5112931   7.975   3.297   0.084 -0.6417 -0.9281 -0.5646
   41MOL    C5212932   8.108   3.258   0.077  0.4559  0.0955 -0.1334
   41MOL    C5312933   8.156   3.155   0.161  0.1382  0.1193 -0.2694
   41MOL    C5412934   8.075   3.098   0.255 -0.2088 -0.1744 -0.1007
   41MOL    F5512935   8.118   3.001   0.338  0.3669  0.5827 -0.5783
   41MOL    C5612936   7.941   3.137   0.263 -0.7560 -0.0749  0.3473
   41MOL    C5712937   7.893   3.242   0.179 -0.2856  0.5000  0.2290
   41MOL    C5812938   7.988   3.547   0.025 -0.3605 -0.0970 -0.0782
   41MOL    H5912939   7.813   3.423   0.027 -0.5253  0.5645 -3.2444
   41MOL    H6012940   8.175   3.309   0.009  2.7193 -1.8789  0.5504
   41MOL    H6112941   0.026   3.134   0.148 -0.2128 -1.4131 -0.7430
   41MOL    H6212942   7.875   3.084   0.329 -1.9227 -0.7315 -1.3203
   41MOL    H6312943   7.791   3.266   0.205  1.0097  2.7596  3.5570
   41MOL    H6412944   8.095   3.537   0.041 -0.3639  0.7511  0.5219
   41MOL    H6512945   7.981   3.613   8.173 -4.9653 -1.1823 -0.6589
   41MOL    C6612946   7.934   3.622   0.154 -0.1996 -0.1054 -0.4658
   41MOL    C6712947   8.042   3.728   0.198 -0.4880 -0.6390  0.2836
   41MOL    C6812948   8.027   3.859   0.144  0.0424 -0.6753  0.2632
   41MOL    C6912949   8.130   3.955   0.176  0.3909 -0.2978 -0.2784
   41MOL    C7012950   0.001   3.930   0.272  0.1373  0.0157 -0.4143
   41MOL    F7112951   0.080   4.030   0.307  0.3429 -0.0333  0.6794
   41MOL    C7212952   0.015   3.797   0.312 -0.1325  0.4124 -0.5566
   41MOL    C7312953   8.154   3.699   0.275 -0.0854  0.2811 -0.5544
   41MOL    C7412954   7.784   3.671   0.150 -0.6497 -0.6406  0.4767
   41MOL    H7512955   7.934   3.555   0.240 -0.6130 -0.1931 -0.5353
   41MOL    H7612956   7.939   3.889   0.090 -1.3240 -0.6581  2.4577
   41MOL    H7712957   8.107   4.057   0.149  2.7036  0.4174  0.3368
   41MOL    H7812958   0.095   3.772   0.379 -0.5635 -2.2199 -0.9721
   41MOL    H7912959   8.163   3.598   0.313 -0.6350  0.4198 -0.0452
   41MOL    H8012960   7.779   3.745   0.070 -0.0320 -3.3470 -2.1412
   41MOL    H8112961   7.714   3.598   0.110 -0.7880  0.3676 -1.1635
   41MOL    C8212962   7.730   3.735   0.286 -0.7731  0.2907 -0.4423
   41MOL    C8312963   7.603   3.807   0.259  0.2307  0.4614 -0.2618
   41MOL    C8412964   7.605   3.942   0.270  0.0750  0.0302 -0.1189
   41MOL    C8512965   7.495   4.025   0.247  0.2855  0.5908  0.6627
   41MOL    C8612966   7.376   3.959   0.206  0.0025  0.1278 -0.8886
   41MOL    F8712967   7.270   4.037   0.162 -0.0416 -0.1491  0.4644
   41MOL    C8812968   7.366   3.815   0.204  0.4416 -0.1703  0.3081
   41MOL    C8912969   7.482   3.737   0.239  0.5710 -0.4161  0.0482
   41MOL    C9012970   7.715   3.630   0.404  0.0626  0.6242  0.0935
   41MOL    H9112971   7.809   3.802   0.318 -1.9077  1.9462 -1.0726
   41MOL    H9212972   7.692   4.004   0.282  0.1319  0.5147 -2.6631
   41MOL    H9312973   7.499   4.132   0.238 -0.3313  0.4792 -1.1999
   41MOL    H9412974   7.271   3.769   0.181  1.0400 -1.5794  0.5504
   41MOL    H9512975   7.470   3.630   0.241 -0.6044 -0.3426 -1.6428
   41MOL    H9612976   7.653   3.548   0.370  1.0974  0.7931 -2.2984
   41MOL    H9712977   7.813   3.584   0.419  1.0277  2.8698  0.9335
   41MOL    C9812978   7.653   3.681   0.542  0.4102 -0.0323 -0.0666
   41MOL    C9912979   7.623   3.564   0.634 -0.0336 -0.1846 -0.0919
   41MOL   C10012980   7.485   3.537   0.666 -0.1039  0.5289  0.1639
   41MOL   C10112981   7.457   3.448   0.775 -0.4152  0.4338 -0.3591
   41MOL   C10212982   7.560   3.383   0.846  0.3311 -0.4125  0.1081
   41MOL   F10312983   7.537   3.294   0.942  0.1305  0.3333  0.5652
   41MOL   C10412984   7.688   3.417   0.811  0.4057 -0.2924  0.1501
   41MOL   C10512985   7.724   3.504   0.706  0.0873  0.5463 -0.0551
   41MOL   C10612986   7.728   3.794   0.613 -0.2688  0.4304  0.1627
   41MOL   H10712987   7.556   3.725   0.520  0.6037  1.3176  1.7051
   41MOL   H10812988   7.397   3.577   0.618 -1.4245 -0.0824  2.0167
   41MOL   H10912989   7.353   3.425   0.794 -0.1254  1.2466  2.3573
   41MOL   H11012990   7.769   3.370   0.865  1.9466  1.8303 -0.2264
   41MOL   H11112991   7.828   3.515   0.678  0.1871  0.6710  0.3589
   41MOL   H11212992   7.818   3.741   0.645 -2.6416 -3.5185  0.5630
   41MOL   H11312993   7.746   3.861   0.529  0.3545 -2.7137 -2.3394
   41MOL   C11412994   7.636   3.864   0.722 -0.4535  0.0381 -0.2711
   41MOL   C11512995   7.718   3.902   0.848 -0.1955 -0.8451  0.2669
   41MOL   C11612996   7.759   4.037   0.875 -1.1525  0.5287 -0.0844
   41MOL   C11712997   7.825   4.070   0.991  0.5058 -0.2942  0.8496
   41MOL   C11812998   7.847   3.975   1.090 -0.1760 -1.0077 -0.0942
   41MOL   F11912999   7.904   4.005   1.207  0.4279 -0.0803  0.0146
   41MOL   C12013000   7.807   3.839   1.067  0.3904 -0.2235  0.3637
   41MOL   C12113001   7.745   3.804   0.947  0.4929  0.2901 -0.9344
   41MOL   C12213002   7.552   3.977   0.651 -0.3428  0.1608 -0.1079
   41MOL   H12313003   7.565   3.789   0.757  0.4496  0.4519  2.5830
   41MOL   H12413004   7.740   4.124   0.814 -2.1759  1.9357  2.1722
   41MOL   H12513005   7.855   4.173   1.001  0.2423 -0.1920  0.6192
   41MOL   H12613006   7.817   3.772   1.151 -0.9102  0.2653  0.9281
   41MOL   H12713007   7.705   3.706   0.929 -0.2224  0.8474 -2.5314
   41MOL   H12813008   7.619   4.059   0.626 -0.0555  0.4261  1.4366
   41MOL   H12913009   7.510   3.942   0.557 -1.1234 -1.4490  0.8103
   41MOL   C13013010   7.436   4.041   0.739  0.6005 -0.2784 -0.0951
   41MOL   C13113011   7.383   4.159   0.657  0.3868 -0.2204  0.1609
   41MOL   C13213012   7.330   4.141   0.529  0.2859 -0.4454 -0.8939
   41MOL   C13313013   7.291   4.251   0.454 -0.4956 -0.5021  0.3342
   41MOL   C13413014   7.312   4.381   0.506 -0.1659 -0.1900  0.0017
   41MOL   F13513015   7.286   4.493   0.430  0.2257 -0.5665 -0.0988
   41MOL   C13613016   7.356   4.397   0.637  0.5231  0.0056 -0.1146
   41MOL   C13713017   7.401   4.286   0.713  0.0672  0.3670 -0.2579
   41MOL   C13813018   7.319   3.937   0.778 -0.5427  0.2704 -0.6870
   41MOL   H13913019   7.464   4.085   0.834  0.2586 -0.7947  0.2476
   41MOL   H14013020   7.302   4.039   0.505  0.0531 -0.6757  0.3261
   41MOL   H14113021   7.249   4.238   0.355 -1.9848 -0.4983  0.9438
   41MOL   H14213022   7.369   4.497   0.674  0.9172  0.5381 -1.6427
   41MOL   H14313023   7.448   4.318   0.806  1.0202  1.2269 -1.0189
   41MOL   H14413024   7.292   3.879   0.689 -0.6239 -1.7993  0.6391
   41MOL   H14513025   7.357   3.856   0.840  0.2794  0.0367 -1.4804
   41MOL   C14613026   7.180   3.995   0.812 -1.0595 -0.3328  0.3898
   41MOL   C14713027   7.070   3.892   0.806 -0.1265 -0.4878 -0.4990
   41MOL   C14813028   7.044   3.803   0.913  0.1436  0.4229 -0.3346
   41MOL   C14913029   6.948   3.707   0.908  0.2691  0.0835 -0.1991
   41MOL   C15013030   6.873   3.690   0.789 -0.2753  0.0302  0.1011
   41MOL   F15113031   6.777   3.599   0.786  0.5665 -0.1299  0.3456
   41MOL   C15213032   6.895   3.769   0.676 -0.3397 -1.4130 -0.0461
   41MOL   C15313033   6.990   3.877   0.684  0.6528 -0.3236  0.3150
   41MOL   C15413034   7.159   4.086   0.936 -0.1732  0.4825 -0.0064
   41MOL   H15513035   7.155   4.062   0.730 -0.4727  2.1040  2.1063
   41MOL   H15613036   7.109   3.802   0.999  2.6155 -1.1383 -2.1609
   41MOL   H15713037   6.942   3.649   0.999  0.0902 -1.7358 -1.3287
   41MOL   H15813038   6.832   3.748   0.591 -1.4381  0.6053  0.2310
   41MOL   H15913039   7.015   3.941   0.600  1.9007  2.3982  2.6449
   41MOL   H16013040   7.180   4.023   1.023 -0.1828  1.6958  0.8900
   41MOL   H16113041   7.238   4.161   0.938 -1.2019  1.5805 -0.0544
   41MOL   C16213042   7.018   4.153   0.963 -0.4945  0.1116  0.0196
   41MOL   C16313043   7.028   4.213   1.098  0.1161 -0.2199 -0.2494
   41MOL   C16413044   7.107   4.326   1.119 -0.3301  0.0593 -0.3469
   41MOL   C16513045   7.108   4.391   1.239 -0.4604 -0.3263  0.0563
   41MOL   C16613046   7.034   4.333   1.346  0.9867 -0.0671 -0.2582
   41MOL   F16713047   7.048   4.386   1.466 -0.1556  0.2098 -0.0874
   41MOL   C16813048   6.957   4.223   1.327  0.4941  0.0115  0.5612
   41MOL   C16913049   6.956   4.165   1.205  0.2052 -0.0088 -0.1856
   41MOL   C17013050   6.967   4.252   0.849  0.1273  0.0666 -0.8422
   41MOL   H17113051   6.955   4.064   0.956  1.3693 -1.3331  0.8816
   41MOL   H17213052   7.152   4.374   1.034 -1.2252 -0.3902 -1.0790
   41MOL   H17313053   7.169   4.480   1.252 -2.5459  1.1546 -0.0012
   41MOL   H17413054   6.900   4.181   1.408  1.2630 -0.6886  0.7339
   41MOL   H17513055   6.888   4.083   1.188  0.0436 -0.2995  1.7752
   41MOL   H17613056   7.028   4.342   0.851  0.3457 -0.0853 -0.3590
   41MOL   H17713057   6.995   4.202   0.757  1.0146  1.3033 -1.2521
   41MOL   C17813058   6.824   4.273   0.844  0.8489  0.3831  0.3222
   41MOL   C17913059   6.720   4.162   0.811  0.3081  0.2694  0.5428
   41MOL   C18013060   6.649   4.167   0.685 -0.5613 -0.7480 -0.2639
   41MOL   C18113061   6.561   4.064   0.649  0.0465  0.2384 -0.8114
   41MOL   C18213062   6.540   3.957   0.734 -0.4564 -0.6390  0.1620
   41MOL   F18313063   6.458   3.859   0.689  0.4109  0.6577 -0.0269
   41MOL   C18413064   6.605   3.953   0.862 -0.1524 -0.3358  0.1803
   41MOL   C18513065   6.698   4.051   0.903 -0.4290  0.2755  0.1415
   41MOL   C18613066   6.771   4.365   0.960 -0.4889  0.3456 -0.3295
   41MOL   H18713067   6.817   4.339   0.757 -0.5622 -1.5649 -1.0708
   41MOL   H18813068   6.670   4.247   0.615  4.4733  0.9538  2.8907
   41MOL   H18913069   6.512   4.065   0.552 -1.4163 -0.3930 -0.0988
   41MOL   H19013070   6.578   3.878   0.934 -2.3123 -0.5966 -0.8818
   41MOL   H19113071   6.744   4.045   1.001  3.0868 -0.1314 -1.4659
   41MOL   H19213072   6.779   4.315   1.056  1.4310  1.8113  0.3109
   41MOL   H19313073   6.839   4.446   0.987  0.8214 -1.4667  2.0045
   41MOL   C19413074   6.622   4.413   0.953 -0.0948  0.0073  0.2606
   41MOL   C19513075   6.589   4.503   1.071 -0.0832 -0.7745  0.2665
   41MOL   C19613076   6.496   4.473   1.165 -0.2779  0.2403  0.0712
   41MOL   C19713077   6.467   4.561   1.273  0.1659  0.4333  0.1901
   41MOL   C19813078   6.522   4.683   1.281  0.1241  0.0352  0.5370
   41MOL   F19913079   6.486   4.771   1.376 -0.1980  0.1697 -0.6245
   41MOL   C20013080   6.624   4.721   1.191 -0.2265 -0.1721  0.6605
   41MOL   C20113081   6.657   4.629   1.089  0.2915  0.4954  0.6166
   41MOL   C20213082   6.587   4.489   0.820 -0.1760 -0.5877  0.3473
   41MOL   H20313083   6.560   4.323   0.958 -0.0078 -0.0048  1.2417
   41MOL   H20413084   6.453   4.374   1.167  0.6923 -0.1789  2.5815
   41MOL   H20513085   6.402   4.529   1.353  0.5425 -0.5155  0.1154
   41MOL   H20613086   6.680   4.813   1.201  1.0393 -0.6109 -1.9056
   41MOL   H20713087   6.738   4.652   1.020 -0.3570 -1.8469 -0.9978
   41MOL   H20813088   6.660   4.569   0.808  0.1951 -0.7174  1.7060
   41MOL   H20913089   6.587   4.431   0.728  1.1187 -1.9915  1.2126
   41MOL   C21013090   6.448   4.555   0.819 -0.2034 -0.1709  0.0469
   41MOL   C21113091   6.443   4.662   0.712  0.7281  0.7114  0.1508
   41MOL   C21213092   6.459   4.797   0.735 -0.5372 -0.1433 -0.0561
   41MOL   C21313093   6.447   4.884   0.628  0.1841 -0.0449  0.2149
   41MOL   C21413094   6.436   4.844   0.494  0.1165  0.2549 -0.1313
   41MOL   F21513095   6.443   4.931   0.392  0.0735  0.0105  0.4768
   41MOL   C21613096   6.423   4.704   0.474  0.9907 -0.2416 -0.3020
   41MOL   C21713097   6.425   4.612   0.579  0.0535  0.3085 -0.4630
   41MOL   C21813098   6.328   4.456   0.829  0.0285  0.1703 -0.8997
   41MOL   H21913099   6.441   4.611   0.912 -1.7053  2.1183 -1.3833
   41MOL   H22013100   6.456   4.833   0.837  1.3223 -1.6801  0.5710
   41MOL   H22113101   6.450   4.991   0.637 -0.3396 -0.0814  0.8374
   41MOL   H22213102   6.416   4.673   0.371  0.9979 -0.2678 -0.2943
   41MOL   H22313103   6.426   4.506   0.559  1.4098  0.2359 -0.0315
   41MOL   H22413104   6.287   4.422   0.734  1.6523 -2.0797 -0.8460
   41MOL   H22513105   6.363   4.361   0.871 -1.4759 -0.6874 -1.5410
   41MOL   C22613106   6.216   4.504   0.920 -0.2715 -0.9022  0.6013
   41MOL   C22713107   6.164   4.641   0.876 -0.0942  0.3145  0.3481
   41MOL   C22813108   6.113   4.672   0.750 -0.1749  0.2828  0.9159
   41MOL   C22913109   6.052   4.797   0.726  0.4429  0.1473 -0.2454
   41MOL   C23013110   6.057   4.897   0.823  0.2346  0.2011  0.3615
   41MOL   F23113111   6.027   5.024   0.796  0.0502 -0.3601  0.0173
   41MOL   C23213112   6.107   4.867   0.949  0.0083 -0.5621  0.4884
   41MOL   C23313113   6.161   4.741   0.972  0.4469 -0.1443  0.3513
   41MOL   C23413114   6.106   4.392   0.921 -0.3708  0.0976  0.7080
   41MOL   H23513115   6.267   4.515   1.016 -1.7928 -2.8671  1.6691
   41MOL   H23613116   6.105   4.594   0.675  1.3423  1.5478 -0.5933
   41MOL   H23713117   6.006   4.819   0.631 -2.8079  1.6092  1.5663
   41MOL   H23813118   6.106   4.941   1.028 -1.3946  0.7544 -0.7181
   41MOL   H23913119   6.199   4.715   1.069 -0.6351 -1.0841  0.5328
   41MOL   H24013120   6.047   4.401   0.830 -0.2082  0.2121  0.6148
   41MOL   H24113121   6.154   4.294   0.915  1.9984  1.2173  0.8287
   41MOL   C24213122   6.000   4.378   1.036  0.9882 -0.0047 -0.2354
   41MOL   C24313123   6.067   4.327   1.164 -0.3992  0.1450 -1.0111
   41MOL   C24413124   6.124   4.196   1.164 -0.3020 -0.3459 -0.8452
   41MOL   C24513125   6.197   4.145   1.277  0.1195 -0.8542 -0.0672
   41MOL   C24613126   6.202   4.217   1.402  0.7017 -0.2979  0.0637
   41MOL   F24713127   6.254   4.162   1.512  0.1560 -0.2530 -0.0648
   41MOL   C24813128   6.146   4.348   1.402  0.8075  0.2289 -0.3005
   41MOL   C24913129   6.083   4.408   1.286 -0.6691 -0.5971  0.7084
   41MOL   C25013130   5.925   4.517   1.050  0.2465 -0.3422  0.3789
   41MOL   H25113131   5.932   4.303   0.995 -0.0339  2.0797 -2.5045
   41MOL   H25213132   6.119   4.131   1.078 -0.5068 -1.1240 -0.2479
   41MOL   H25313133   6.254   4.054   1.272  0.4430 -0.7751  1.6451
   41MOL   H25413134   6.145   4.404   1.495 -0.1986  0.5380 -0.4918
   41MOL   H25513135   6.035   4.504   1.303  2.1273  0.8247  1.0189
   41MOL   H25613136   5.983   4.585   1.112 -1.3838  0.6997  0.8070
   41MOL   H25713137   5.923   4.576   0.958 -1.6132 -0.2840  0.4324
   41MOL   C25813138   5.789   4.509   1.125 -0.2188  0.0665 -0.1698
   41MOL   C25913139   5.748   4.633   1.209  0.1738  0.0443 -0.3455
   41MOL   C26013140   5.738   4.614   1.352 -0.1494  0.4949  0.2908
   41MOL   C26113141   5.699   4.720   1.438 -0.1520  0.2994  0.2616
   41MOL   C26213142   5.653   4.839   1.379 -0.5452  0.3777 -0.0563
   41MOL   F26313143   5.606   4.942   1.454 -0.1134  0.0510  0.1692
   41MOL   C26413144   5.655   4.849   1.239 -0.6209 -0.7877 -0.7031
   41MOL   C26513145   5.701   4.749   1.151 -0.2175  0.2668  0.3823
   41MOL   C26613146   5.679   4.469   1.023 -0.4023 -0.0088  0.5241
   41MOL   H26713147   5.790   4.428   1.197  0.9363 -1.0461 -1.4009
   41MOL   H26813148   5.757   4.516   1.393 -0.8079 -0.5795 -1.9101
   41MOL   H26913149   5.699   4.710   1.546  0.1167  1.4551  0.3687
   41MOL   H27013150   5.626   4.940   1.187  1.2448  0.8806  1.0557
   41MOL   H27113151   5.695   4.767   1.044  1.2910 -1.6243 -0.0361
   41MOL   H27213152   5.668   4.542   0.943  3.0179  0.6366  0.5457
   41MOL   H27313153   5.719   4.386   0.965 -0.2389  1.1139 -1.0029
   41MOL   C27413154   5.543   4.435   1.086 -0.0774 -0.2047 -0.2250
   41MOL   C27513155   5.433   4.453   0.987 -0.3255 -0.1602 -0.2658
   41MOL   C27613156   5.419   4.379   0.865 -0.6729 -0.1413 -0.5317
   41MOL   C27713157   5.328   4.416   0.767  0.0757  0.8115  0.3436
   41MOL   C27813158   5.236   4.518   0.792 -0.3721  0.4853  0.2833
   41MOL   F27913159   5.135   4.541   0.705 -0.5588 -0.4039  0.0563
   41MOL   C28013160   5.253   4.592   0.907  0.3427  0.2214 -0.1786
   41MOL   C28113161   5.346   4.559   1.004  0.2000 -1.3834  0.3172
   41MOL   C28213162   5.542   4.284   1.145 -0.4301 -0.2645 -0.3317
   41MOL   H28313163   5.518   4.506   1.165 -2.6708 -1.1389 -0.1679
   41MOL   H28413164   5.493   4.303   0.842 -0.6084  0.3601 -1.9789
   41MOL   H28513165   5.327   4.363   0.673  0.9034  0.9193  0.2700
   41MOL   H28613166   5.191   4.681   0.910 -0.1967 -0.1762  0.9377
   41MOL   H28713167   5.354   4.625   1.089 -1.3745 -0.7947  0.0157
   41MOL   H28813168   5.556   4.217   1.060 -1.5759  0.6149 -1.2427
   41MOL   H28913169   5.628   4.264   1.209 -1.6366 -0.2981  1.3034
   41MOL   C29013170   5.413   4.235   1.203  0.1785  0.0797 -0.8718
   41MOL   C29113171   5.344   4.133   1.113  0.4047 -0.3738  0.2476
   41MOL   C29213172   5.211   4.160   1.059 -0.4726  0.0768 -0.6529
   41MOL   C29313173   5.160   4.063   0.970 -0.1292  0.0502 -0.7413
   41MOL   C29413174   5.232   3.947   0.925  0.0913 -0.1854 -0.2971
   41MOL   F29513175   5.189   3.870   0.821  0.4846 -0.0553 -0.0922
   41MOL   C29613176   5.355   3.919   0.986 -0.0518  0.1481 -0.6076
   41MOL   C29713177   5.406   4.013   1.077  0.2528  0.5983  0.3961
   41MOL   C29813178   5.418   4.176   1.344 -0.2176 -0.4741  0.4319
   41MOL   H29913179   5.337   4.312   1.206 -2.3521 -2.3598  1.3573
   41MOL   H30013180   5.157   4.253   1.071  0.3156  0.4800 -0.2400
   41MOL   H30113181   5.062   4.073   0.926 -0.7074 -0.3510  0.4085
   41MOL   H30213182   5.426   3.842   0.957  0.2971  1.7147 -4.1332
   41MOL   H30313183   5.504   3.986   1.114  0.6713  0.4995 -0.7794
   41MOL   H30413184   5.348   4.093   1.357 -1.3389  0.6115  1.4004
   41MOL   H30513185   5.516   4.136   1.370 -1.0540 -0.0912  4.3762
   41MOL   C30613186   5.392   4.263   1.463  0.1667 -0.2714 -0.6284
   41MOL   C30713187   5.381   4.194   1.601 -0.3797  0.3194  0.6227
   41MOL   C30813188   5.501   4.146   1.662  0.2566  0.0460 -0.6810
   41MOL   C30913189   5.497   4.087   1.791  0.4859  0.1685 -1.2916
   41MOL   C31013190   5.370   4.077   1.854  0.4580 -0.1932 -0.0077
   41MOL   F31113191   5.368   4.030   1.983  0.4332  0.0027  0.2154
   41MOL   C31213192   5.253   4.119   1.786  0.5970 -0.6304  0.8438
   41MOL   C31313193   5.256   4.177   1.653 -0.7684 -0.0911  0.0238
   41MOL   C31413194   5.490   4.382   1.470 -0.3852  0.5993  0.1482
   41MOL   H31513195   5.295   4.310   1.445 -1.5157 -3.0651  0.6389
   41MOL   H31613196   5.592   4.165   1.607  0.0768  0.1209 -0.9540
   41MOL   H31713197   5.579   4.062   1.858 -2.6609 -3.5025  1.4089
   41MOL   H31813198   5.157   4.104   1.832  0.1644 -0.4273  0.0023
   41MOL   H31913199   5.167   4.207   1.600  0.6957  1.5193 -1.5552
   41MOL   H32013200   5.588   4.335   1.485 -1.9061 -1.5930  4.2483
   41MOL   H32113201   5.490   4.444   1.381 -0.8073 -0.2145 -0.4232
   41MOL   H32213202   5.466   4.446   1.555 -0.3799  0.3550  0.3339
   42MOL     C113203   6.025   7.381   0.950 -0.3492  0.1501 -0.1579
   42MOL     C213204   6.143   7.359   1.038  0.5048  0.2675 -0.0078
   42MOL     C313205   6.276   7.363   0.982  0.5409 -0.4009 -0.2835
   42MOL     C413206   6.388   7.351   1.063  0.4870 -0.3436 -0.6808
   42MOL     C513207   6.374   7.328   1.201  0.8556 -0.0629 -0.4360
   42MOL     F613208   6.486   7.308   1.282  0.0224  0.0077  0.5932
   42MOL     C713209   6.244   7.331   1.264 -0.8536  0.6108  0.4133
   42MOL     C813210   6.134   7.350   1.177 -0.5889  0.4690  0.1307
   42MOL     C913211   5.991   7.526   0.940 -0.0433  0.5384  0.6138
   42MOL    H1013212   5.942   7.330   0.999 -0.6505  0.4745 -0.3235
   42MOL    H1113213   6.309   7.375   0.880 -2.1553 -0.7861 -1.2481
   42MOL    H1213214   6.487   7.357   1.020  0.6987  1.1148  0.0131
   42MOL    H1313215   6.241   7.321   1.372  2.5163  2.5303  0.7429
   42MOL    H1413216   6.034   7.353   1.219 -0.6459  0.0365  0.0296
   42MOL    H1513217   5.986   7.585   1.032  0.5922  1.9537 -0.2418
   42MOL    H1613218   6.061   7.570   0.869 -1.2322  0.3320 -0.7197
   42MOL    H1713219   6.035   7.340   0.849  0.2888  2.3076 -1.0184
   42MOL    C1813220   5.856   7.554   0.876 -0.9360  0.4751  0.1804
   42MOL    C1913221   5.742   7.521   0.968 -0.1901 -0.4883 -0.2726
   42MOL    C2013222   5.699   7.610   1.068  0.0751 -0.3427  0.1159
   42MOL    C2113223   5.586   7.571   1.140 -0.0802 -0.0178 -0.1615
   42MOL    C2213224   5.522   7.447   1.125  0.3643 -0.2263 -0.0424
   42MOL    F2313225   5.415   7.427   1.202 -0.2912  0.2990 -0.4158
   42MOL    C2413226   5.576   7.354   1.030  0.3584  0.3111 -0.5968
   42MOL    C2513227   5.673   7.403   0.946  0.1054 -0.2576  0.4817
   42MOL    C2613228   5.849   7.706   0.823 -0.2420  0.2356 -0.3329
   42MOL    H2713229   5.846   7.500   0.781  3.3383  1.4929 -0.9754
   42MOL    H2813230   5.751   7.702   1.089 -1.3938  0.3626  0.7307
   42MOL    H2913231   5.535   7.647   1.197  1.8520  0.9257  0.3200
   42MOL    H3013232   5.524   7.263   1.008 -0.5150 -0.0638  2.7295
   42MOL    H3113233   5.700   7.327   0.873 -1.3434  0.7708 -1.1875
   42MOL    H3213234   5.862   7.777   0.905  1.0529 -0.8636  0.4598
   42MOL    H3313235   5.939   7.720   0.762 -0.0468 -1.6047 -0.5151
   42MOL    C3413236   5.721   7.747   0.749 -0.5553  0.3777 -0.2039
   42MOL    C3513237   5.728   7.896   0.720 -0.4028  0.2972  0.2836
   42MOL    C3613238   5.662   7.982   0.813 -0.2944 -0.0731 -0.1114
   42MOL    C3713239   5.667   8.119   0.798 -0.3815 -0.6076  0.6039
   42MOL    C3813240   5.731   8.180   0.682  0.1338  0.1393 -0.0677
   42MOL    F3913241   5.729   0.078   0.667 -0.4182  0.1302  0.2568
   42MOL    C4013242   5.804   8.097   0.600 -0.1757  0.8824  0.0788
   42MOL    C4113243   5.815   7.956   0.621 -0.0226 -0.9554  0.4939
   42MOL    C4213244   5.689   7.675   0.617  0.7942  0.2259 -0.0745
   42MOL    H4313245   5.632   7.732   0.810 -0.2846 -1.1421 -0.1696
   42MOL    H4413246   5.607   7.938   0.895 -0.6500 -0.4115 -0.5345
   42MOL    H4513247   5.623   8.188   0.868 -2.1853 -0.7549 -0.3369
   42MOL    H4613248   5.838   8.146   0.510 -1.8616  0.0756 -1.0321
   42MOL    H4713249   5.869   7.890   0.555  0.0607 -1.1958  0.8010
   42MOL    H4813250   5.765   7.699   0.543 -1.2500  0.1270 -2.2776
   42MOL    H4913251   5.702   7.569   0.641 -0.9620  0.3474  1.4789
   42MOL    C5013252   5.544   7.702   0.568  0.5487  0.0274  0.1219
   42MOL    C5113253   5.532   7.833   0.486 -0.2989  0.3077 -0.0856
   42MOL    C5213254   5.454   7.941   0.528 -0.1610 -0.3306  1.3977
   42MOL    C5313255   5.435   8.053   0.448  1.1036 -0.2695  0.1049
   42MOL    C5413256   5.506   8.062   0.325  0.4088  1.2166 -0.8710
   42MOL    F5513257   5.490   8.168   0.240  0.1636  0.0566  0.0545
   42MOL    C5613258   5.586   7.957   0.287  0.0410 -0.2311  0.1453
   42MOL    C5713259   5.599   7.840   0.367 -0.7543 -0.1191 -0.2075
   42MOL    C5813260   5.482   7.581   0.486 -0.6955  0.0746  0.0180
   42MOL    H5913261   5.477   7.714   0.654  1.0347  0.6135  0.4175
   42MOL    H6013262   5.407   7.941   0.626 -2.0892  1.0275  0.5182
   42MOL    H6113263   5.374   8.138   0.476  2.2139  0.5190  0.1629
   42MOL    H6213264   5.632   7.948   0.189  2.0020 -0.2758  1.0388
   42MOL    H6313265   5.645   7.749   0.334  0.6562 -0.0275  1.4419
   42MOL    H6413266   5.384   7.602   0.442 -0.7190 -0.4586 -0.1828
   42MOL    H6513267   5.550   7.546   0.409 -0.4286  1.7002 -0.5071
   42MOL    C6613268   5.456   7.454   0.571 -0.2008  0.1895 -0.3064
   42MOL    C6713269   5.336   7.479   0.665 -0.0028 -0.3307 -0.1272
   42MOL    C6813270   5.364   7.497   0.805 -0.1930  0.2343 -0.2111
   42MOL    C6913271   5.255   7.527   0.895  0.0097  0.4969  0.0793
   42MOL    C7013272   5.124   7.535   0.845 -0.7584 -0.2318 -0.5115
   42MOL    F7113273   5.019   7.560   0.936 -0.2686  0.3624 -0.2883
   42MOL    C7213274   5.101   7.505   0.713 -0.1016 -0.4289  0.8515
   42MOL    C7313275   5.208   7.490   0.624  0.7699  0.0022  0.5094
   42MOL    C7413276   5.450   7.320   0.495  0.1417 -0.5104  0.6133
   42MOL    H7513277   5.541   7.449   0.639 -0.0480  1.6128 -0.3593
   42MOL    H7613278   5.468   7.498   0.833  0.2175 -1.3472 -1.5960
   42MOL    H7713279   5.281   7.545   0.998 -2.2569 -1.9040  1.1255
   42MOL    H7813280   5.000   7.483   0.682 -0.4942  2.0011  0.2898
   42MOL    H7913281   5.191   7.473   0.519 -0.6982 -0.3482  0.7901
   42MOL    H8013282   5.408   7.250   0.567  0.0663  0.3438  1.4042
   42MOL    H8113283   5.372   7.334   0.420 -0.6141 -0.6327  1.3751
   42MOL    C8213284   5.590   7.266   0.441 -0.3759  0.3524 -0.5874
   42MOL    C8313285   5.685   7.225   0.566 -0.4007 -0.2348  0.5689
   42MOL    C8413286   5.632   7.144   0.667 -0.3203 -0.5378 -0.1695
   42MOL    C8513287   5.716   7.095   0.771  0.6545 -0.4876 -0.3814
   42MOL    C8613288   5.853   7.125   0.771 -0.1898 -0.7626 -0.5232
   42MOL    F8713289   5.928   7.073   0.872 -0.3500  0.4554 -0.8262
   42MOL    C8813290   5.905   7.202   0.664 -0.1432  1.0996  0.1054
   42MOL    C8913291   5.823   7.255   0.561  0.0082 -0.0698 -0.0955
   42MOL    C9013292   5.571   7.158   0.339  0.3715  0.1665  0.2496
   42MOL    H9113293   5.644   7.345   0.387  4.5418 -1.8575  0.8074
   42MOL    H9213294   5.528   7.116   0.660  0.0659 -1.8217 -0.8664
   42MOL    H9313295   5.666   7.039   0.850  2.2501 -1.1180  0.2007
   42MOL    H9413296   6.011   7.221   0.656  0.0102  1.2051  2.2504
   42MOL    H9513297   5.875   7.299   0.477  0.4025 -1.4017 -0.5642
   42MOL    H9613298   5.669   7.128   0.303 -0.1212  1.7749 -2.6193
   42MOL    H9713299   5.526   7.078   0.398 -2.5707  1.1780 -0.5388
   42MOL    C9813300   5.501   7.181   0.201 -0.2448  0.7440  0.5189
   42MOL    C9913301   5.552   7.310   0.133  0.6975  0.5876  0.2557
   42MOL   C10013302   5.685   7.329   0.095 -0.9116 -0.1891  0.1110
   42MOL   C10113303   5.721   7.444   0.033 -0.1515  0.2597 -0.3711
   42MOL   C10213304   5.636   7.552   0.010 -0.2470  0.9282 -0.9509
   42MOL   F10313305   5.679   7.669   8.188  0.3408 -0.4649  0.0505
   42MOL   C10413306   5.503   7.542   0.046  0.4450 -0.0420  0.8413
   42MOL   C10513307   5.459   7.415   0.100 -1.1141  0.1702 -0.7835
   42MOL   C10613308   5.509   7.053   0.113 -0.5489  0.6005 -0.1075
   42MOL   H10713309   5.395   7.202   0.220  0.1532  2.7257  0.6629
   42MOL   H10813310   5.761   7.254   0.111 -0.4099  0.1665 -0.6004
   42MOL   H10913311   5.824   7.446   8.232 -0.2764 -2.3532 -1.0277
   42MOL   H11013312   5.423   7.610   0.021 -0.6472 -1.0246  1.6369
   42MOL   H11113313   5.356   7.413   0.131 -0.8520  1.1293  0.1770
   42MOL   H11213314   5.475   7.076   0.012 -1.1239 -1.4478 -0.4008
   42MOL   H11313315   5.614   7.037   0.092 -0.4113  2.0972 -0.6420
   42MOL   C11413316   5.441   6.930   0.170 -0.4010 -0.2576 -0.3588
   42MOL   C11513317   5.294   6.943   0.128  0.4126 -0.4478 -0.0857
   42MOL   C11613318   5.242   6.917   0.000  0.4232 -0.0041 -0.3009
   42MOL   C11713319   5.102   6.935   8.215  0.0842  0.8605  0.4572
   42MOL   C11813320   5.022   6.996   0.076  0.2449  0.4851  0.1767
   42MOL   F11913321   4.892   7.005   0.046 -0.0986 -0.2652  0.6059
   42MOL   C12013322   5.074   7.029   0.200 -0.1838 -0.2064  0.0367
   42MOL   C12113323   5.214   7.000   0.223  0.4744 -0.1950  0.3877
   42MOL   C12213324   5.502   6.792   0.121  0.4455  0.4086 -0.1095
   42MOL   H12313325   5.452   6.921   0.278  0.9999  2.4115 -0.2245
   42MOL   H12413326   5.295   6.858   8.161 -1.1178 -2.1448  0.2316
   42MOL   H12513327   5.067   6.912   8.116  3.0077  1.1536 -0.6867
   42MOL   H12613328   5.007   7.077   0.270  0.8496  2.2687 -0.6310
   42MOL   H12713329   5.255   7.026   0.319  0.8633 -0.8681  0.4054
   42MOL   H12813330   5.443   6.711   0.166  0.6086 -1.2193 -2.7535
   42MOL   H12913331   5.483   6.795   0.014 -1.4325  0.1535  0.1976
   42MOL   C13013332   5.650   6.768   0.164  0.3636  0.5138  0.4120
   42MOL   C13113333   5.670   6.766   0.311  0.0134  0.8715 -0.8600
   42MOL   C13213334   5.587   6.684   0.390  0.4174  0.2092  0.1223
   42MOL   C13313335   5.596   6.670   0.531  0.0816 -0.0121 -0.1197
   42MOL   C13413336   5.689   6.755   0.596 -0.3128 -0.0915 -0.9987
   42MOL   F13513337   5.689   6.746   0.731  0.3793 -0.0403  0.1941
   42MOL   C13613338   5.768   6.841   0.521 -0.0597  0.6849  0.1407
   42MOL   C13713339   5.756   6.855   0.379  0.2169  0.1678  0.0229
   42MOL   C13813340   5.719   6.643   0.096  0.3745  0.9357  0.5939
   42MOL   H13913341   5.712   6.855   0.142 -0.7600  0.8232 -1.7032
   42MOL   H14013342   5.513   6.619   0.346  0.0298  0.2747  0.6630
   42MOL   H14113343   5.533   6.595   0.576  1.5536 -1.6642 -0.7113
   42MOL   H14213344   5.835   6.902   0.578 -1.4824 -0.9201  3.6526
   42MOL   H14313345   5.811   6.927   0.321 -0.2960 -0.8784 -1.8172
   42MOL   H14413346   5.821   6.625   0.129 -0.3404 -5.2751  0.0474
   42MOL   H14513347   5.672   6.552   0.134  0.6682  0.6401  0.2539
   42MOL   C14613348   5.723   6.643   8.174  0.8051  0.5016  0.0102
   42MOL   C14713349   5.780   6.775   8.116 -0.4892  0.3736 -0.7126
   42MOL   C14813350   5.923   6.783   8.100 -0.6960 -0.2910  0.8906
   42MOL   C14913351   5.981   6.894   8.032 -0.2328  0.0235 -0.3706
   42MOL   C15013352   5.901   6.995   7.974  0.0182 -0.1812 -0.0752
   42MOL   F15113353   5.964   7.076   7.886 -0.3104  0.3368 -0.1585
   42MOL   C15213354   5.762   6.985   7.990  0.3865 -0.1337 -0.5976
   42MOL   C15313355   5.705   6.881   8.063 -0.2035 -1.0658  0.0292
   42MOL   C15413356   5.793   6.514   8.106  0.7221  0.1721 -0.5839
   42MOL   H15513357   5.619   6.649   8.140  0.9055  0.0772 -0.3711
   42MOL   H15613358   5.989   6.705   8.136  1.6101 -1.3362 -5.1431
   42MOL   H15713359   6.084   6.897   8.003 -0.8879 -1.2533 -2.9835
   42MOL   H15813360   5.693   7.058   7.949  0.3214  0.5886  0.7698
   42MOL   H15913361   5.598   6.892   8.076 -0.0872  1.1117 -0.5792
   42MOL   H16013362   5.897   6.517   8.139  0.3315  0.0766  0.6627
   42MOL   H16113363   5.747   6.421   8.138 -1.2552 -0.2810 -4.4859
   42MOL   C16213364   5.792   6.520   7.950  0.2863 -0.0527 -0.5564
   42MOL   C16313365   5.918   6.453   7.900  0.3375  0.5096 -0.2654
   42MOL   C16413366   5.951   6.314   7.899  0.6050 -0.7333 -0.7947
   42MOL   C16513367   6.080   6.272   7.856  0.1977  0.0518  0.3372
   42MOL   C16613368   6.180   6.369   7.827  0.8819 -0.2415  0.0050
   42MOL   F16713369   6.299   6.328   7.789  0.1252 -0.1453  0.5235
   42MOL   C16813370   6.149   6.505   7.826  0.2079 -0.1269 -0.4751
   42MOL   C16913371   6.020   6.542   7.861 -0.2438  0.1617 -0.3399
   42MOL   C17013372   5.673   6.442   7.889  0.1889 -0.5444  0.0057
   42MOL   H17113373   5.782   6.623   7.916 -0.6186 -0.1680 -0.6395
   42MOL   H17213374   5.875   6.247   7.938  1.8524 -1.2833  0.7330
   42MOL   H17313375   6.100   6.166   7.857 -2.1306 -0.4119  1.6561
   42MOL   H17413376   6.222   6.581   7.801  0.7251 -0.6061 -0.4118
   42MOL   H17513377   5.990   6.646   7.861 -0.6315  0.0567 -1.7119
   42MOL   H17613378   5.688   6.423   7.783 -1.9868 -1.8334 -0.1016
   42MOL   H17713379   5.662   6.340   7.925 -0.2921  0.1498  1.8833
   42MOL   C17813380   5.527   6.500   7.900 -0.9098  0.9233  0.3437
   42MOL   C17913381   5.509   6.640   7.847 -1.0725  0.4023  0.3148
   42MOL   C18013382   5.437   6.735   7.922  0.2874  0.0472  0.6487
   42MOL   C18113383   5.411   6.867   7.876  0.2820 -0.5019  0.0316
   42MOL   C18213384   5.462   6.903   7.753 -0.6616 -0.7794 -0.1651
   42MOL   F18313385   5.443   7.031   7.717 -0.0605  0.7072  0.3483
   42MOL   C18413386   5.538   6.811   7.674  0.0256 -0.1501  0.4037
   42MOL   C18513387   5.561   6.681   7.725 -0.1859  0.0456  0.4823
   42MOL   C18613388   5.417   6.406   7.851 -0.1985 -0.5592 -0.2951
   42MOL   H18713389   5.510   6.509   8.007  2.9606 -1.6961  1.2714
   42MOL   H18813390   5.388   6.712   8.015  0.5483 -0.6138  0.6207
   42MOL   H18913391   5.356   6.937   7.937  2.8722 -0.1764  2.1215
   42MOL   H19013392   5.572   6.836   7.574 -0.8452  0.7243  0.3100
   42MOL   H19113393   5.630   6.621   7.668 -2.2301 -1.5252 -0.3851
   42MOL   H19213394   5.331   6.468   7.826  0.2272 -0.1263 -0.7064
   42MOL   H19313395   5.441   6.358   7.756 -1.3769  1.6427 -1.7419
   42MOL   C19413396   5.370   6.302   7.960  1.4012  0.1455 -0.3631
   42MOL   C19513397   5.317   6.374   8.087  0.1982  0.2876 -0.0651
   42MOL   C19613398   5.198   6.460   8.074 -0.2368  0.4855 -0.2425
   42MOL   C19713399   5.147   6.519   8.190 -0.9128 -0.9522  0.0427
   42MOL   C19813400   5.206   6.500   0.074 -0.3724 -0.7662  0.7090
   42MOL   F19913401   5.150   6.567   0.179  0.3778 -0.2538 -0.0431
   42MOL   C20013402   5.330   6.426   0.090  0.6013  0.2401 -0.8477
   42MOL   C20113403   5.382   6.363   8.211 -0.1791  0.1775 -0.3654
   42MOL   C20213404   5.259   6.212   7.909  0.4990  0.8480 -0.5061
   42MOL   H20313405   5.453   6.245   8.002 -1.5618 -1.5993  3.3985
   42MOL   H20413406   5.142   6.478   7.984 -1.1238  0.2997  0.2670
   42MOL   H20513407   5.067   6.592   8.190  1.1381  1.4212  2.9689
   42MOL   H20613408   5.381   6.424   0.185 -0.4654 -0.5267 -0.2857
   42MOL   H20713409   5.478   6.314   8.218  0.3755  0.8540 -2.6558
   42MOL   H20813410   5.176   6.272   7.869 -0.8445  0.0390  1.0340
   42MOL   H20913411   5.302   6.151   7.830  0.0504 -0.8619  0.5535
   42MOL   C21013412   5.192   6.108   8.011  0.1053 -0.1081 -0.0640
   42MOL   C21113413   5.067   6.043   7.950  0.0690  0.2625  0.3453
   42MOL   C21213414   4.940   6.046   8.023  0.6580  0.6623 -0.1819
   42MOL   C21313415   4.830   5.991   7.955 -0.0434 -0.2296 -0.0532
   42MOL   C21413416   4.837   5.927   7.829  0.7674 -0.3698  0.5829
   42MOL   F21513417   4.729   5.865   7.772 -0.0758  0.0169  0.1109
   42MOL   C21613418   4.959   5.932   7.760 -0.9456  0.1211 -0.0683
   42MOL   C21713419   5.069   5.992   7.820 -1.2082  0.0934 -0.7105
   42MOL   C21813420   5.289   6.003   8.063 -0.0539 -0.0421  0.2383
   42MOL   H21913421   5.162   6.166   8.098 -0.2011 -2.7121  1.5963
   42MOL   H22013422   4.931   6.090   8.121  0.1555  2.8778 -1.1841
   42MOL   H22113423   4.729   5.999   7.992 -1.0248  0.4303 -2.7114
   42MOL   H22213424   4.966   5.884   7.664 -0.0631 -1.9602  1.0026
   42MOL   H22313425   5.165   5.977   7.773  0.3803  2.1910  1.7337
   42MOL   H22413426   5.320   5.957   7.969  4.4477 -1.3920  2.2440
   42MOL   H22513427   5.377   6.038   8.118 -0.7789 -1.5032  2.4102
   42MOL   C22613428   5.226   5.895   8.150  0.2811 -0.6016 -0.1922
   42MOL   C22713429   5.306   5.769   8.140 -0.1072  0.6510  0.0903
   42MOL   C22813430   5.431   5.751   8.205 -0.0071  0.1474 -0.1953
   42MOL   C22913431   5.506   5.633   8.182  0.4134 -0.0742 -0.1774
   42MOL   C23013432   5.455   5.522   8.110  0.0680  0.0974 -0.5852
   42MOL   F23113433   5.521   5.405   8.111  0.0249  0.1107  0.1253
   42MOL   C23213434   5.344   5.546   8.033  0.1691 -0.0610 -0.2612
   42MOL   C23313435   5.267   5.667   8.049  0.0144  0.1515 -0.0821
   42MOL   C23413436   5.207   5.938   0.058 -0.3596  0.0145  0.3108
   42MOL   H23513437   5.129   5.867   8.110 -0.3431  2.2710 -0.8379
   42MOL   H23613438   5.469   5.830   0.033 -0.8594  1.3233 -1.1446
   42MOL   H23713439   5.598   5.622   0.004  0.7276 -2.3984 -1.1051
   42MOL   H23813440   5.316   5.476   7.957  0.7539  0.8569 -1.3321
   42MOL   H23913441   5.178   5.686   7.990 -0.0238 -1.9084 -0.7501
   42MOL   H24013442   5.299   5.971   0.105  1.2600 -1.2024 -1.9124
   42MOL   H24113443   5.149   6.028   0.040 -0.4112  0.0637  0.7218
   42MOL   C24213444   5.116   5.847   0.145 -0.5918 -0.4649 -0.6074
   42MOL   C24313445   5.208   5.752   0.216  0.2926  0.1134  0.4075
   42MOL   C24413446   5.179   5.614   0.201  0.5774 -0.0256 -0.7429
   42MOL   C24513447   5.251   5.520   0.279 -0.4699  0.2581  0.1421
   42MOL   C24613448   5.350   5.571   0.361 -0.1879 -0.3492  0.0924
   42MOL   F24713449   5.414   5.475   0.425  0.0889 -0.0364 -0.5257
   42MOL   C24813450   5.374   5.702   0.377 -0.3369 -0.0507  0.2080
   42MOL   C24913451   5.305   5.798   0.303  0.3288 -0.3603  0.0303
   42MOL   C25013452   5.026   5.923   0.242  0.4014  0.0701 -0.3638
   42MOL   H25113453   5.051   5.794   0.076  1.0564 -0.5809 -2.1053
   42MOL   H25213454   5.106   5.570   0.134 -1.1380  2.5771 -0.6537
   42MOL   H25313455   5.232   5.415   0.262  1.7956 -0.1139 -0.3885
   42MOL   H25413456   5.452   5.724   0.449  1.4064 -1.5956 -1.1332
   42MOL   H25513457   5.327   5.903   0.313  1.3295 -0.6441  0.9599
   42MOL   H25613458   5.080   5.982   0.316 -2.9249  1.4911  1.0708
   42MOL   H25713459   4.980   5.999   0.179 -2.6012  0.3069  1.9967
   42MOL   C25813460   4.915   5.853   0.312  0.2435  0.2809  0.2324
   42MOL   C25913461   4.829   5.770   0.215  0.2940  0.2755  0.6797
   42MOL   C26013462   4.781   5.819   0.091 -0.6079  0.4745  0.1005
   42MOL   C26113463   4.694   5.745   0.006  0.1847  0.7312  0.3606
   42MOL   C26213464   4.667   5.607   0.039  0.0775 -1.3028  0.4668
   42MOL   F26313465   4.592   5.526   8.190  0.1707 -0.2824 -0.0085
   42MOL   C26413466   4.716   5.555   0.159  0.3019 -0.4592 -0.0042
   42MOL   C26513467   4.791   5.636   0.246  0.1901  0.9228  0.0757
   42MOL   C26613468   4.972   5.766   0.436  0.2340  0.2498 -0.1316
   42MOL   H26713469   4.846   5.932   0.342 -0.0986  0.2252 -0.3988
   42MOL   H26813470   4.802   5.921   0.061  0.2583  0.7835  1.7311
   42MOL   H26913471   4.658   5.786   8.147  1.2684 -1.0601 -0.8851
   42MOL   H27013472   4.683   5.457   0.191 -0.8682  0.1969  0.8127
   42MOL   H27113473   4.818   5.601   0.344  2.5988 -1.7921 -1.4845
   42MOL   H27213474   5.009   5.670   0.401  0.3830 -0.3903  1.7313
   42MOL   H27313475   5.065   5.815   0.464  0.0755 -0.2874  1.3444
   42MOL   C27413476   4.899   5.764   0.573  0.1819 -0.0617  0.1882
   42MOL   C27513477   4.751   5.729   0.561 -0.5840  0.1651  0.2679
   42MOL   C27613478   4.707   5.596   0.574 -0.5779 -0.6060 -0.7615
   42MOL   C27713479   4.565   5.573   0.566 -0.3077  0.7615  0.4362
   42MOL   C27813480   4.475   5.672   0.521  0.0314  0.3909 -0.3204
   42MOL   F27913481   4.344   5.646   0.524  0.1824 -0.0403  0.3729
   42MOL   C28013482   4.524   5.800   0.497 -0.3843 -0.9556 -0.4076
   42MOL   C28113483   4.663   5.831   0.521  1.1239  0.0528 -0.2309
   42MOL   C28213484   4.973   5.677   0.672  0.3727  0.3703 -0.0886
   42MOL   H28313485   4.903   5.869   0.603  2.0009 -0.1017  0.1191
   42MOL   H28413486   4.760   5.509   0.610  0.3456  0.4104  0.3545
   42MOL   H28513487   4.536   5.469   0.576 -1.0728  0.7579 -1.7058
   42MOL   H28613488   4.456   5.882   0.478  0.5788  0.4862  2.1299
   42MOL   H28713489   4.697   5.930   0.497 -1.7568  0.5822 -2.4374
   42MOL   H28813490   4.919   5.667   0.766 -0.5737 -0.3535 -0.6880
   42MOL   H28913491   4.984   5.577   0.630 -1.3112 -0.1947  0.7726
   42MOL   C29013492   5.114   5.713   0.716 -0.4092 -0.3636  0.3403
   42MOL   C29113493   5.113   5.852   0.780 -0.3219  0.2613 -0.2566
   42MOL   C29213494   5.042   5.876   0.905 -0.6939 -0.1731 -0.0218
   42MOL   C29313495   5.066   5.998   0.968 -0.1348 -1.0424  0.4451
   42MOL   C29413496   5.148   6.090   0.905  0.0680  0.1294  0.3481
   42MOL   F29513497   5.182   6.193   0.989  0.1832 -0.1618  0.5984
   42MOL   C29613498   5.203   6.074   0.784 -0.1156  0.5528  0.3721
   42MOL   C29713499   5.186   5.953   0.714 -0.3856  0.6244  0.3577
   42MOL   C29813500   5.173   5.605   0.809 -0.2445 -0.1949  0.2202
   42MOL   H29913501   5.178   5.707   0.628  0.1482 -0.1180  0.7292
   42MOL   H30013502   4.981   5.803   0.955 -1.0481 -0.4421 -0.8401
   42MOL   H30113503   5.036   6.028   1.068  1.3014  0.6555  0.3708
   42MOL   H30213504   5.263   6.154   0.745 -0.9377  0.9706 -0.0425
   42MOL   H30313505   5.236   5.946   0.619 -0.2295  2.4082  0.2801
   42MOL   H30413506   5.111   5.576   0.894 -1.5103  2.8236  0.4059
   42MOL   H30513507   5.194   5.515   0.753  0.3353  0.6282 -0.8966
   42MOL   C30613508   5.317   5.644   0.858  0.8773  0.6289  0.0760
   42MOL   C30713509   5.309   5.710   0.993 -0.2740 -0.1274  0.3440
   42MOL   C30813510   5.372   5.835   1.018 -0.0001  0.0832  0.3284
   42MOL   C30913511   5.364   5.890   1.148 -0.3198  0.1993 -0.1416
   42MOL   C31013512   5.301   5.815   1.252 -1.5053 -0.5449  0.0135
   42MOL   F31113513   5.301   5.867   1.377  0.3525 -0.1080  0.2386
   42MOL   C31213514   5.243   5.689   1.222 -0.3484  0.6600 -0.1513
   42MOL   C31313515   5.250   5.635   1.094  0.4578 -0.0274 -0.4976
   42MOL   C31413516   5.423   5.536   0.855  0.1209  0.4985  0.2245
   42MOL   H31513517   5.356   5.721   0.792  2.0745 -0.2788 -0.3006
   42MOL   H31613518   5.415   5.889   0.935  0.0194  1.4764  1.2264
   42MOL   H31713519   5.405   5.990   1.154 -0.1944  0.0052  2.5643
   42MOL   H31813520   5.193   5.640   1.304 -1.2539 -1.6345 -2.0526
   42MOL   H31913521   5.208   5.536   1.088 -0.5986  0.4246 -0.6690
   42MOL   H32013522   5.443   5.492   0.757 -2.5393 -0.8646  0.2568
   42MOL   H32113523   5.513   5.587   0.890  0.6626  1.6505 -2.7113
   42MOL   H32213524   5.408   5.451   0.921  0.7259 -0.9908 -1.5300
   43MOL     C113525   6.752   7.979   6.255 -0.8562 -0.2687  0.4918
   43MOL     C213526   6.672   8.097   6.295 -0.3157 -0.0993 -0.3626
   43MOL     C313527   6.536   8.112   6.268  0.3761 -0.5283 -0.8226
   43MOL     C413528   6.468   8.220   6.321 -0.3088 -0.7431  0.2381
   43MOL     C513529   6.537   0.080   6.398 -0.1660  0.5357 -0.0534
   43MOL     F613530   6.473   0.186   6.442  0.1303  0.3551  0.4301
   43MOL     C713531   6.675   0.065   6.432  0.4471  0.6880 -0.5125
   43MOL     C813532   6.742   8.198   6.368 -0.1273 -0.4383  0.8384
   43MOL     C913533   6.736   7.871   6.362 -0.4035 -0.3177 -0.0172
   43MOL    H1013534   6.857   8.005   6.242 -0.5757  0.6460  3.9983
   43MOL    H1113535   6.481   8.042   6.208 -1.5849  0.9686 -0.8159
   43MOL    H1213536   6.365   0.007   6.294 -1.7149 -4.8183  1.8705
   43MOL    H1313537   6.738   0.137   6.483  2.4345 -0.0481 -1.8813
   43MOL    H1413538   6.848   8.192   6.388  0.3182  2.2145 -0.5662
   43MOL    H1513539   6.795   7.891   6.451 -0.5186  3.7357 -0.7691
   43MOL    H1613540   6.630   7.877   6.390 -0.3181  0.8049  0.0664
   43MOL    H1713541   6.707   7.939   6.165  0.5010 -1.1820  0.2068
   43MOL    C1813542   6.745   7.719   6.329 -0.1474 -0.0044  0.1501
   43MOL    C1913543   6.881   7.670   6.279  0.6804  0.5473 -0.2802
   43MOL    C2013544   6.890   7.584   6.166  0.4599 -1.2273 -0.0554
   43MOL    C2113545   7.019   7.543   6.116  0.3372 -0.1151  0.2739
   43MOL    C2213546   7.134   7.584   6.184 -0.3113 -0.0015  0.1449
   43MOL    F2313547   7.258   7.547   6.131 -0.4848  0.3795 -0.3783
   43MOL    C2413548   7.126   7.666   6.304  0.0770  0.3309 -0.4405
   43MOL    C2513549   7.000   7.708   6.351  0.4233 -0.5233 -0.4702
   43MOL    C2613550   6.707   7.618   6.446  0.4338  0.4482  0.2432
   43MOL    H2713551   6.679   7.701   6.244  0.9455 -0.1699 -0.6794
   43MOL    H2813552   6.804   7.560   6.105 -0.3111  0.9977  0.1162
   43MOL    H2913553   7.021   7.472   6.035  4.3289  1.5721 -1.2003
   43MOL    H3013554   7.220   7.682   6.354  0.3953  0.3927 -1.0458
   43MOL    H3113555   6.998   7.773   6.437 -0.5403 -0.4742 -0.5280
   43MOL    H3213556   6.693   7.519   6.403  1.5095  0.2954  0.2506
   43MOL    H3313557   6.783   7.607   6.523 -1.8703 -3.6984  2.1295
   43MOL    C3413558   6.573   7.655   6.511  0.4471  0.2973  0.5512
   43MOL    C3513559   6.457   7.650   6.411  0.6535  0.3348  0.3433
   43MOL    C3613560   6.418   7.525   6.362 -0.5268 -0.4092  0.2953
   43MOL    C3713561   6.320   7.510   6.261 -0.0646 -0.2319 -0.4997
   43MOL    C3813562   6.253   7.626   6.219  0.3257 -0.2182  0.3685
   43MOL    F3913563   6.153   7.609   6.125  0.2106 -0.0493  0.5466
   43MOL    C4013564   6.280   7.755   6.279  0.2538 -0.1536  0.5567
   43MOL    C4113565   6.387   7.766   6.372 -0.1376  0.4369  0.6236
   43MOL    C4213566   6.549   7.568   6.631 -0.7603 -0.7192  0.0220
   43MOL    H4313567   6.583   7.756   6.550  2.4110 -0.2042  1.3760
   43MOL    H4413568   6.465   7.436   6.399  1.0861 -0.8901 -2.7231
   43MOL    H4513569   6.287   7.411   6.233 -0.6715 -0.4258  0.8642
   43MOL    H4613570   6.218   7.839   6.253  1.5250  0.3671 -0.9194
   43MOL    H4713571   6.408   7.862   6.418  2.8237 -0.3365  0.9763
   43MOL    H4813572   6.442   7.580   6.647 -0.4653  1.1695  0.6277
   43MOL    H4913573   6.555   7.460   6.622  0.7204 -0.7021  0.6901
   43MOL    C5013574   6.635   7.615   6.748 -0.4738 -0.4006 -0.4739
   43MOL    C5113575   6.593   7.752   6.795 -0.1117 -0.4423  0.3758
   43MOL    C5213576   6.676   7.861   6.754  0.1245  0.5398  0.2185
   43MOL    C5313577   6.644   7.996   6.775 -0.2961  0.3276  0.4002
   43MOL    C5413578   6.528   8.020   6.858 -0.0377 -0.3258  0.0949
   43MOL    F5513579   6.505   8.151   6.876  0.3587 -0.5664  0.1093
   43MOL    C5613580   6.443   7.916   6.895 -0.5503 -0.0495 -0.6557
   43MOL    C5713581   6.469   7.781   6.857 -0.2645  0.9726 -0.8226
   43MOL    C5813582   6.640   7.514   6.864  0.8805  0.0555 -0.1565
   43MOL    H5913583   6.738   7.632   6.716 -1.0401 -0.9027 -2.6284
   43MOL    H6013584   6.777   7.849   6.716 -0.9923 -1.4949 -2.2078
   43MOL    H6113585   6.719   8.071   6.757  1.0320 -0.8149  1.0801
   43MOL    H6213586   6.359   7.941   6.958 -1.0154 -1.0393 -0.8759
   43MOL    H6313587   6.405   7.695   6.864 -0.5436  0.9193 -3.5240
   43MOL    H6413588   6.708   7.545   6.943 -1.3230 -0.4733  2.0177
   43MOL    H6513589   6.542   7.504   6.912  0.5696 -0.8656 -0.9766
   43MOL    C6613590   6.691   7.371   6.842  0.2706  0.5010  0.0974
   43MOL    C6713591   6.785   7.358   6.723  0.2387  0.4735  0.0015
   43MOL    C6813592   6.911   7.428   6.731  0.4054  0.3853 -0.1461
   43MOL    C6913593   7.010   7.416   6.628 -0.1045 -0.0876 -0.8142
   43MOL    C7013594   6.981   7.328   6.519 -0.8007  0.7671  0.1923
   43MOL    F7113595   7.077   7.310   6.427  0.7768  0.0444 -0.3578
   43MOL    C7213596   6.858   7.264   6.506  0.3064 -0.0041 -0.7340
   43MOL    C7313597   6.758   7.277   6.611 -0.5285 -0.6313  0.5444
   43MOL    C7413598   6.755   7.321   6.968 -0.8149  0.4656  0.2686
   43MOL    H7513599   6.612   7.299   6.821  1.2501 -0.6723  0.3638
   43MOL    H7613600   6.926   7.499   6.811  2.7659 -1.8255  1.4663
   43MOL    H7713601   7.104   7.466   6.642 -1.2400  1.3903  1.9187
   43MOL    H7813602   6.828   7.192   6.432  0.5407  0.7748 -1.5975
   43MOL    H7913603   6.666   7.222   6.597 -0.5006  0.0513 -2.8337
   43MOL    H8013604   6.788   7.219   6.946 -1.3759  0.2985  0.2014
   43MOL    H8113605   6.846   7.373   6.998 -0.1791 -0.2052 -0.4529
   43MOL    C8213606   6.665   7.299   7.096 -0.4012  0.2934 -0.0541
   43MOL    C8313607   6.546   7.213   7.056  0.7532  0.0355 -0.0816
   43MOL    C8413608   6.419   7.263   7.026  0.5931 -0.3703  0.7249
   43MOL    C8513609   6.315   7.189   6.974 -0.4356  0.7452  0.4065
   43MOL    C8613610   6.336   7.052   6.942 -0.2945 -0.1674 -0.1341
   43MOL    F8713611   6.242   6.976   6.875  0.2821 -0.0911 -0.6030
   43MOL    C8813612   6.467   7.001   6.971 -0.4493  0.7140 -0.3655
   43MOL    C8913613   6.570   7.078   7.024  0.3193 -0.0024  0.9453
   43MOL    C9013614   6.726   7.266   7.235  0.4873 -0.3961  0.3327
   43MOL    H9113615   6.618   7.395   7.121  0.9647  0.5651  1.5149
   43MOL    H9213616   6.396   7.368   7.038  0.4215 -0.3885  0.5512
   43MOL    H9313617   6.211   7.218   6.966 -0.6582 -0.5311 -1.6153
   43MOL    H9413618   6.490   6.905   6.929  0.6387  0.4415  0.8392
   43MOL    H9513619   6.665   7.027   7.037  0.4551 -0.1591 -0.4985
   43MOL    H9613620   6.644   7.265   7.307 -0.6385  2.0927 -0.8345
   43MOL    H9713621   6.773   7.169   7.227  3.4102  0.8853  1.4006
   43MOL    C9813622   6.830   7.366   7.285 -0.2984 -0.0792  0.2027
   43MOL    C9913623   6.778   7.494   7.349 -0.0266  0.2454 -0.3240
   43MOL   C10013624   6.826   7.617   7.299  0.1146 -0.4426 -0.5679
   43MOL   C10113625   6.790   7.736   7.367  0.7621  0.8497 -0.0020
   43MOL   C10213626   6.711   7.735   7.488  0.2434 -0.4635 -0.2757
   43MOL   F10313627   6.675   7.849   7.556 -0.2029  0.1817 -0.2667
   43MOL   C10413628   6.669   7.607   7.535  0.3110 -0.9836 -0.0054
   43MOL   C10513629   6.698   7.492   7.465  0.3081  0.3378  0.4300
   43MOL   C10613630   6.934   7.298   7.380  0.6880 -0.4050 -0.5730
   43MOL   H10713631   6.903   7.390   7.207  0.0698 -0.3995  0.4412
   43MOL   H10813632   6.887   7.621   7.210  0.5875  1.9893 -0.1680
   43MOL   H10913633   6.823   7.832   7.329 -0.8614  0.6715 -1.9656
   43MOL   H11013634   6.615   7.596   7.628 -0.5565  1.7023 -0.1306
   43MOL   H11113635   6.657   7.397   7.493 -0.2127 -0.1954 -2.0238
   43MOL   H11213636   7.012   7.368   7.412  0.1364 -0.6502  1.4103
   43MOL   H11313637   6.885   7.274   7.475  0.4579  0.1000 -0.5650
   43MOL   C11413638   7.015   7.173   7.335  0.7382 -0.3530 -1.0607
   43MOL   C11513639   7.067   7.186   7.195  1.0674 -0.3343 -0.2122
   43MOL   C11613640   7.024   7.092   7.097 -0.3979 -0.7231  0.2567
   43MOL   C11713641   7.073   7.113   6.967 -0.2826  0.4102  0.3849
   43MOL   C11813642   7.138   7.226   6.924  0.3491 -0.0322 -0.1627
   43MOL   F11913643   7.164   7.234   6.795 -0.1494 -0.1919  0.3472
   43MOL   C12013644   7.186   7.321   7.019  0.4194  0.8977  0.6238
   43MOL   C12113645   7.150   7.287   7.151 -1.2486  0.7705 -0.2078
   43MOL   C12213646   7.125   7.132   7.436 -0.1788 -0.6668  0.4497
   43MOL   H12313647   6.947   7.088   7.338 -1.3245  1.3390  3.3007
   43MOL   H12413648   6.949   7.019   7.123 -0.3055 -0.9107 -0.0008
   43MOL   H12513649   7.039   7.050   6.886  0.0785  0.4073  0.2363
   43MOL   H12613650   7.260   7.394   6.987 -0.0046  1.2473  0.4427
   43MOL   H12713651   7.183   7.355   7.227 -0.5034 -0.3597  0.5011
   43MOL   H12813652   7.193   7.057   7.394  0.7812 -0.8410  2.2698
   43MOL   H12913653   7.196   7.211   7.459 -0.3087 -0.3708 -0.1436
   43MOL   C13013654   7.080   7.065   7.566  0.1270  0.1743  0.7416
   43MOL   C13113655   7.007   6.936   7.548  0.8180 -0.1556  0.1042
   43MOL   C13213656   6.867   6.936   7.574 -0.2615 -0.4559  0.1567
   43MOL   C13313657   6.795   6.811   7.574 -0.1708  0.0125 -0.4865
   43MOL   C13413658   6.862   6.694   7.537 -0.4466  0.3254  0.5532
   43MOL   F13513659   6.800   6.572   7.543  0.0770 -0.0350  0.2099
   43MOL   C13613660   6.992   6.701   7.488  0.3231 -0.2194 -0.4219
   43MOL   C13713661   7.064   6.822   7.493  0.1581  0.6588 -0.2398
   43MOL   C13813662   7.198   7.037   7.664  0.0315  0.0173  0.5956
   43MOL   H13913663   7.004   7.123   7.619  1.9039  1.1564  2.2880
   43MOL   H14013664   6.802   7.014   7.609  0.9626  0.9067 -0.5513
   43MOL   H14113665   6.696   6.805   7.616  0.2857 -0.4522  0.5521
   43MOL   H14213666   7.040   6.612   7.451 -0.2674 -1.0982  0.8825
   43MOL   H14313667   7.163   6.838   7.454  0.3475  0.3444  0.1049
   43MOL   H14413668   7.169   6.954   7.728 -1.4759 -0.3501 -0.5413
   43MOL   H14513669   7.293   7.003   7.621 -0.5406 -0.6901 -0.1184
   43MOL   C14613670   7.232   7.167   7.745 -0.3379  0.3129 -0.0210
   43MOL   C14713671   7.105   7.239   7.804 -0.6706 -0.0725 -0.0958
   43MOL   C14813672   7.022   7.172   7.893  0.5318  0.3786  0.0062
   43MOL   C14913673   6.901   7.224   7.929 -0.0769  0.4066  0.7709
   43MOL   C15013674   6.862   7.351   7.883 -0.2039 -0.2850 -0.5258
   43MOL   F15113675   6.736   7.403   7.912 -0.3290  0.3569 -0.4470
   43MOL   C15213676   6.941   7.423   7.797 -0.2959 -0.0112 -1.0091
   43MOL   C15313677   7.068   7.367   7.759  0.2288 -0.0163 -0.0043
   43MOL   C15413678   7.352   7.133   7.841 -0.3188  0.6839 -0.2333
   43MOL   H15513679   7.280   7.242   7.682  0.1114 -1.3694 -1.7036
   43MOL   H15613680   7.047   7.070   7.920 -2.1165 -1.2729 -3.3687
   43MOL   H15713681   6.834   7.173   7.997 -1.0592  0.0534 -0.4626
   43MOL   H15813682   6.911   7.521   7.763 -0.3851  0.1467 -0.4782
   43MOL   H15913683   7.120   7.429   7.687 -0.7246 -0.5260 -1.1604
   43MOL   H16013684   7.326   7.052   7.909  1.7799 -0.0326 -0.2455
   43MOL   H16113685   7.426   7.085   7.776  0.2531  1.0524  0.1418
   43MOL   C16213686   7.422   7.248   7.916 -0.8430  0.6320 -0.3297
   43MOL   C16313687   7.325   7.305   8.020 -0.0823  0.0818 -0.0978
   43MOL   C16413688   7.272   7.222   8.125 -0.1487  0.2238  0.3867
   43MOL   C16513689   7.188   7.275   8.224 -0.3949 -0.0879 -0.3766
   43MOL   C16613690   7.137   7.410   8.207 -0.5270 -0.1767  0.2381
   43MOL   F16713691   7.049   7.451   0.062  0.1591  0.1791  0.3412
   43MOL   C16813692   7.195   7.491   8.104  0.0145  0.6139  0.0151
   43MOL   C16913693   7.286   7.440   8.009  0.6985  0.2960 -0.0205
   43MOL   C17013694   7.563   7.220   7.977  0.2768 -0.0911  0.4122
   43MOL   H17113695   7.440   7.334   7.851 -0.7321 -0.0051 -1.1613
   43MOL   H17213696   7.300   7.118   8.139 -2.7757 -0.4221  1.1257
   43MOL   H17313697   7.152   7.217   0.073  1.1072  1.7683  1.6500
   43MOL   H17413698   7.165   7.595   8.103  2.2972  1.2940  0.2957
   43MOL   H17513699   7.316   7.509   7.932  0.8919  0.9325  0.6190
   43MOL   H17613700   7.553   7.131   8.039 -0.8913 -0.1230  0.1997
   43MOL   H17713701   7.630   7.187   7.897  0.8698  0.4235  0.6962
   43MOL   C17813702   7.634   7.337   8.050  0.5292  0.3465  0.4257
   43MOL   C17913703   7.618   7.337   8.196  0.7690  0.1906 -0.5120
   43MOL   C18013704   7.533   7.430   0.022  0.3483 -0.9957  0.0597
   43MOL   C18113705   7.486   7.410   0.153  0.0418  0.6753  0.1215
   43MOL   C18213706   7.534   7.303   0.239 -0.1721  0.3943  0.7948
   43MOL   F18313707   7.484   7.292   0.362 -0.2795 -0.2247  0.1877
   43MOL   C18413708   7.633   7.218   0.185 -0.1625 -0.1072  0.1913
   43MOL   C18513709   7.670   7.235   0.048  0.4618 -0.0893 -0.2307
   43MOL   C18613710   7.787   7.334   8.020  0.0204  0.0404 -0.0703
   43MOL   H18713711   7.600   7.431   8.005 -0.2162 -0.7050 -1.2648
   43MOL   H18813712   7.482   7.505   8.197 -1.0349 -1.8148  0.1927
   43MOL   H18913713   7.397   7.465   0.180  0.9401  1.5868  1.2682
   43MOL   H19013714   7.672   7.133   0.239  2.9143  0.9192 -0.3135
   43MOL   H19113715   7.739   7.161   0.011  1.9684  0.5600  1.1893
   43MOL   H19213716   7.843   7.397   8.089  0.9710  1.2405 -1.8990
   43MOL   H19313717   7.825   7.233   8.035  0.8113  0.3965  0.3397
   43MOL   C19413718   7.825   7.370   7.875  0.3350  0.2395 -0.7032
   43MOL   C19513719   7.774   7.506   7.835  0.2308  0.1044  0.7389
   43MOL   C19613720   7.801   7.619   7.917  0.1814  0.0501  0.6595
   43MOL   C19713721   7.738   7.744   7.892 -0.2523 -0.1229 -0.6610
   43MOL   C19813722   7.657   7.755   7.782 -0.3115 -0.8351 -0.2125
   43MOL   F19913723   7.585   7.868   7.754  0.0224 -0.4310  0.0788
   43MOL   C20013724   7.631   7.642   7.698 -0.4289 -0.1362 -0.2073
   43MOL   C20113725   7.689   7.517   7.726  0.4328 -0.5060  0.0566
   43MOL   C20213726   7.967   7.340   7.843 -0.5373 -0.1293  0.0281
   43MOL   H20313727   7.765   7.302   7.815 -1.2602 -1.4536  2.6420
   43MOL   H20413728   7.865   7.607   8.003  2.5732 -0.4831 -1.1263
   43MOL   H20513729   7.746   7.836   7.947 -0.6354 -0.2343 -0.4128
   43MOL   H20613730   7.571   7.652   7.608 -0.3159 -0.6972 -0.3481
   43MOL   H20713731   7.668   7.433   7.660  0.1574 -0.1969 -0.2501
   43MOL   H20813732   8.023   7.406   7.910 -0.6839  0.1979 -0.1693
   43MOL   H20913733   7.981   7.233   7.857 -1.3436 -0.2798 -0.2703
   43MOL   C21013734   8.001   7.370   7.692  0.5026 -0.3923  0.3303
   43MOL   C21113735   8.153   7.389   7.672  0.4671  0.1977  0.9022
   43MOL   C21213736   0.005   7.278   7.670 -0.2846 -0.4278 -0.1387
   43MOL   C21313737   0.140   7.289   7.636 -0.2728 -0.0206 -0.4267
   43MOL   C21413738   0.188   7.420   7.612 -0.2799 -0.9102  0.5542
   43MOL   F21513739   0.319   7.436   7.582 -0.3491 -0.3349 -0.2205
   43MOL   C21613740   0.103   7.533   7.623 -0.3932  0.2312  0.4103
   43MOL   C21713741   8.199   7.517   7.641 -0.0168 -0.6547 -0.4036
   43MOL   C21813742   7.956   7.265   7.580 -0.1683 -0.4415  0.0979
   43MOL   H21913743   7.968   7.470   7.664  2.3900 -0.8116 -3.7599
   43MOL   H22013744   8.196   7.181   7.688 -0.3944 -0.4037 -0.2722
   43MOL   H22113745   0.204   7.202   7.643  0.8798  0.8948  0.5997
   43MOL   H22213746   0.152   7.629   7.618 -0.4378  0.2669  0.6847
   43MOL   H22313747   8.138   7.606   7.647  0.3521 -0.5138  1.3783
   43MOL   H22413748   7.975   7.162   7.611  0.4877 -0.3183  0.1061
   43MOL   H22513749   7.847   7.261   7.576 -0.1124 -0.8649 -1.3163
   43MOL   C22613750   8.017   7.282   7.439  0.0838 -0.7021 -0.6485
   43MOL   C22713751   7.998   7.154   7.365 -0.3516  0.8663  0.2694
   43MOL   C22813752   8.104   7.070   7.334 -0.5492  0.8120  0.8476
   43MOL   C22913753   8.089   6.953   7.261  0.3730  0.3118  0.1313
   43MOL   C23013754   7.961   6.907   7.227 -0.3026  0.5536  0.6988
   43MOL   F23113755   7.952   6.803   7.142 -0.1288 -0.3859 -0.4341
   43MOL   C23213756   7.849   6.982   7.259  0.3018  0.3054 -0.4084
   43MOL   C23313757   7.862   7.103   7.337 -0.7518  0.3874 -0.2330
   43MOL   C23413758   7.973   7.410   7.363 -0.7451  0.5663 -0.8857
   43MOL   H23513759   8.125   7.291   7.443 -0.0807  1.4759 -0.5710
   43MOL   H23613760   8.206   7.102   7.353  0.0149 -0.5531  0.2319
   43MOL   H23713761   8.174   6.898   7.224 -0.4199 -0.2619 -0.8869
   43MOL   H23813762   7.757   6.949   7.213 -1.1764  1.4030  1.7204
   43MOL   H23913763   7.779   7.162   7.374  0.2296  1.5313  0.1921
   43MOL   H24013764   7.866   7.395   7.344 -0.6518  2.4685 -3.0889
   43MOL   H24113765   7.991   7.502   7.418 -0.5144  0.0962 -0.1715
   43MOL   C24213766   8.044   7.427   7.226 -0.1030 -0.2746  0.0728
   43MOL   C24313767   7.955   7.370   7.113 -0.0825  0.3698  0.4831
   43MOL   C24413768   7.830   7.428   7.090 -0.3841  0.4178  0.2500
   43MOL   C24513769   7.756   7.388   6.979  0.1860 -0.5372 -0.1132
   43MOL   C24613770   7.799   7.286   6.897 -0.3658 -0.0497  0.5906
   43MOL   F24713771   7.740   7.255   6.784 -0.3312  0.3476  0.3768
   43MOL   C24813772   7.926   7.223   6.920  0.1936 -0.4205  0.0117
   43MOL   C24913773   8.006   7.269   7.030 -0.0450  0.1139  0.3149
   43MOL   C25013774   8.093   7.575   7.194 -0.1256 -0.1394 -0.5168
   43MOL   H25113775   8.129   7.360   7.237  0.4443  0.5768  1.0453
   43MOL   H25213776   7.797   7.502   7.162 -1.0865 -1.1185  1.5669
   43MOL   H25313777   7.658   7.430   6.962 -0.0119 -0.8548  0.2312
   43MOL   H25413778   7.972   7.158   6.847 -0.8382 -0.2160 -0.8402
   43MOL   H25513779   8.101   7.231   7.063 -0.1242 -0.3924 -0.0434
   43MOL   H25613780   8.003   7.634   7.214 -0.9863 -1.8822  0.8649
   43MOL   H25713781   8.157   7.601   7.278 -0.6925 -0.5528  0.0438
   43MOL   C25813782   8.127   7.626   7.059  0.3687  0.2921 -0.6782
   43MOL   C25913783   8.139   7.782   7.056 -0.0490  0.4591 -0.4683
   43MOL   C26013784   8.048   7.867   6.993  0.3912  0.3534 -0.0280
   43MOL   C26113785   8.062   8.008   7.000 -0.3677  0.2861  0.1789
   43MOL   C26213786   8.177   8.064   7.058  0.3768  0.3835  0.1390
   43MOL   F26313787   8.191   8.197   7.063  0.1859  0.1211  0.3128
   43MOL   C26413788   0.036   7.978   7.120 -0.0027  0.2133  0.0563
   43MOL   C26513789   0.017   7.840   7.121 -0.0859  0.1147  0.4107
   43MOL   C26613790   0.012   7.554   6.995 -0.2306  0.0389 -0.3978
   43MOL   H26713791   8.038   7.600   7.002  0.2131 -0.7207 -0.0013
   43MOL   H26813792   7.969   7.814   6.943 -0.7324  1.0845  0.9412
   43MOL   H26913793   7.987   8.060   6.943  0.7279  0.3160 -1.3005
   43MOL   H27013794   0.125   8.010   7.171  0.5635  0.6357 -1.1635
   43MOL   H27113795   0.087   7.780   7.178 -0.2285  0.2597  0.7436
   43MOL   H27213796   0.107   7.594   7.033  0.2972 -0.7051 -0.9102
   43MOL   H27313797   0.007   7.455   7.041  0.6534 -0.8853 -2.2555
   43MOL   C27413798   0.023   7.562   6.845  0.9682  0.4165 -0.2173
   43MOL   C27513799   0.163   7.521   6.800  0.3414 -0.2881  0.2126
   43MOL   C27613800   0.247   7.626   6.741 -1.1889 -0.2358  0.8460
   43MOL   C27713801   0.379   7.589   6.701  0.0829 -0.3930 -0.2037
   43MOL   C27813802   0.412   7.457   6.701  0.4063  0.0184 -0.1539
   43MOL   F27913803   0.526   7.421   6.634  0.0115 -0.2775  0.2170
   43MOL   C28013804   0.340   7.363   6.770  0.1486 -0.1398  0.3999
   43MOL   C28113805   0.214   7.393   6.816  0.6511 -0.0735  0.5626
   43MOL   C28213806   8.155   7.471   6.770 -0.4712  0.1238  0.5791
   43MOL   H28313807   0.006   7.665   6.812 -0.5214 -0.3525 -1.9262
   43MOL   H28413808   0.202   7.721   6.717 -1.1037  0.3752  2.9968
   43MOL   H28513809   0.439   7.656   6.641  1.2366 -0.6442  0.6409
   43MOL   H28613810   0.377   7.261   6.765  1.0335  0.1642  0.7163
   43MOL   H28713811   0.148   7.316   6.853  0.4515  0.0750  0.5147
   43MOL   H28813812   8.179   7.367   6.790  1.2797  0.6658  1.4834
   43MOL   H28913813   8.059   7.483   6.820 -2.1028 -0.7892 -2.2831
   43MOL   C29013814   8.155   7.485   6.615  0.0999 -0.1250  0.1968
   43MOL   C29113815   8.074   7.381   6.538 -0.9997 -0.1273  0.3545
   43MOL   C29213816   8.141   7.290   6.455 -0.0242  0.2026  0.6180
   43MOL   C29313817   8.064   7.187   6.400 -0.0480 -0.1865  0.0195
   43MOL   C29413818   7.924   7.177   6.427  0.3651  0.0210 -0.5109
   43MOL   F29513819   7.844   7.080   6.384 -0.2161 -0.2463 -0.3481
   43MOL   C29613820   7.862   7.272   6.511 -0.0973 -0.4889  0.7900
   43MOL   C29713821   7.936   7.371   6.569  0.2361 -0.5000 -0.0038
   43MOL   C29813822   8.107   7.619   6.565 -0.7238  0.1755 -0.5444
   43MOL   H29913823   0.023   7.464   6.583 -0.4142 -0.5344 -1.2539
   43MOL   H30013824   0.013   7.304   6.445  0.0902  1.4925  3.3503
   43MOL   H30113825   8.098   7.112   6.331 -2.8599 -1.2377 -0.2867
   43MOL   H30213826   7.759   7.251   6.534 -0.9085  2.5547  0.2594
   43MOL   H30313827   7.886   7.434   6.640 -1.0024 -2.3938  0.8614
   43MOL   H30413828   7.999   7.624   6.551 -0.5634  0.0398 -1.9190
   43MOL   H30513829   8.116   7.683   6.653 -1.4951 -1.6509  0.8862
   43MOL   C30613830   8.188   7.681   6.454 -0.4004  0.4038 -0.7553
   43MOL   C30713831   8.183   7.602   6.325 -0.1903  0.5890 -0.0958
   43MOL   C30813832   0.066   7.574   6.255  0.1072  0.3847 -0.2490
   43MOL   C30913833   0.052   7.503   6.129 -0.7756  0.4069  0.0776
   43MOL   C31013834   8.158   7.457   6.087 -0.2880 -0.1148  0.5494
   43MOL   F31113835   8.159   7.372   5.979  0.0513 -0.3176 -0.2827
   43MOL   C31213836   8.044   7.489   6.153 -0.4597 -0.2278 -0.0962
   43MOL   C31313837   8.055   7.567   6.270  0.1481  0.2481  0.1450
   43MOL   C31413838   8.140   7.825   6.424 -0.3920 -0.2813 -0.6652
   43MOL   H31513839   0.057   7.692   6.488 -0.9860  0.6255  0.9768
   43MOL   H31613840   0.162   7.586   6.303  0.0279 -2.0384  0.5591
   43MOL   H31713841   0.139   7.467   6.078 -0.7757  0.0678  0.3183
   43MOL   H31813842   7.945   7.458   6.124 -0.2900 -0.1923 -0.7358
   43MOL   H31913843   7.964   7.600   6.316 -0.1605 -2.9160  1.9437
   43MOL   H32013844   8.044   7.832   6.372 -1.8105 -3.3204  1.4238
   43MOL   H32113845   8.138   7.876   6.521  0.2702 -1.3471 -0.0871
   43MOL   H32213846   8.210   7.870   6.354  1.1452 -3.4820 -1.2552
   44MOL     C113847   4.838   2.073   7.222 -0.3213 -0.0061 -0.0879
   44MOL     C213848   4.704   2.136   7.177 -0.1891 -0.4353  0.4307
   44MOL     C313849   4.597   2.062   7.125 -0.6344  0.4391 -0.3039
   44MOL     C413850   4.475   2.127   7.088 -0.2264 -0.2960  0.1437
   44MOL     C513851   4.461   2.266   7.100  0.2520  0.4367 -0.4996
   44MOL     F613852   4.343   2.335   7.079  0.6596 -0.1188 -0.4441
   44MOL     C713853   4.570   2.336   7.151  0.3684 -0.3562 -0.0272
   44MOL     C813854   4.690   2.276   7.189 -0.0975 -0.5367 -0.4064
   44MOL     C913855   4.894   1.976   7.120 -0.0904 -0.2137  0.0116
   44MOL    H1013856   4.827   2.030   7.322  1.7453  0.3535  0.3124
   44MOL    H1113857   4.595   1.954   7.118 -0.9262  0.5038 -1.2807
   44MOL    H1213858   4.387   2.077   7.052  0.7519  0.3758 -3.3404
   44MOL    H1313859   4.558   2.442   7.171  0.1820 -0.5331  0.8395
   44MOL    H1413860   4.751   2.345   7.245  1.0235 -0.4040 -1.7887
   44MOL    H1513861   4.983   1.925   7.156  0.6697  1.0915  0.0167
   44MOL    H1613862   4.820   1.898   7.103  0.1748 -0.5452  0.3735
   44MOL    H1713863   4.906   2.154   7.246  0.9751 -0.9633 -0.4818
   44MOL    C1813864   4.923   2.040   6.983 -0.3836 -0.1306  0.2270
   44MOL    C1913865   5.004   2.169   6.995 -0.4900 -0.5113  0.8439
   44MOL    C2013866   4.955   2.294   6.948  0.2776 -0.2481  0.2571
   44MOL    C2113867   5.041   2.412   6.956 -0.0477  0.2399 -0.4988
   44MOL    C2213868   5.166   2.399   7.022 -0.1730  0.7529 -0.5336
   44MOL    F2313869   5.241   2.503   7.047 -0.0028 -0.2643  0.4516
   44MOL    C2413870   5.211   2.272   7.059 -0.0479  0.0014  0.2126
   44MOL    C2513871   5.134   2.153   7.048  0.2884 -0.0153  0.5447
   44MOL    C2613872   4.985   1.940   6.880 -0.0647  0.0045 -0.7391
   44MOL    H2713873   4.826   2.061   6.938 -0.2185  4.8656  1.8517
   44MOL    H2813874   4.857   2.291   6.904  1.4654 -1.3594 -2.4085
   44MOL    H2913875   5.004   2.504   6.913  0.2556 -0.1394 -1.5777
   44MOL    H3013876   5.308   2.262   7.106 -0.0609 -1.3081 -0.0251
   44MOL    H3113877   5.176   2.061   7.088  0.1934 -0.8787 -1.2957
   44MOL    H3213878   5.001   2.003   6.793  0.0120  1.3687  0.2408
   44MOL    H3313879   5.082   1.912   6.921 -0.5617  0.2622  0.6305
   44MOL    C3413880   4.920   1.806   6.846 -0.2300 -0.1450  1.0719
   44MOL    C3513881   4.773   1.829   6.799  0.0731  0.2107 -0.1862
   44MOL    C3613882   4.661   1.805   6.884  0.2476  0.2948 -0.0991
   44MOL    C3713883   4.526   1.821   6.829  0.4151 -0.1102  0.4422
   44MOL    C3813884   4.510   1.866   6.697  0.1521  0.5725  0.0915
   44MOL    F3913885   4.384   1.868   6.646 -0.7314  0.7985 -0.1290
   44MOL    C4013886   4.620   1.903   6.621  0.4954 -0.4342  0.5262
   44MOL    C4113887   4.747   1.887   6.670 -0.5225  0.0318 -0.2937
   44MOL    C4213888   4.998   1.712   6.750  0.1595 -0.0557 -0.0790
   44MOL    H4313889   4.910   1.752   6.939  0.2280 -2.5488 -0.2418
   44MOL    H4413890   4.676   1.764   6.983 -3.7035 -1.9528 -0.3045
   44MOL    H4513891   4.438   1.788   6.883  0.8626  0.3486  1.4708
   44MOL    H4613892   4.609   1.936   6.519  0.4997  1.1163  1.0190
   44MOL    H4713893   4.830   1.902   6.603  1.0163  0.5857  1.6762
   44MOL    H4813894   4.938   1.622   6.732 -1.9755  1.5119 -0.9697
   44MOL    H4913895   4.998   1.766   6.656 -3.1519 -0.2494 -0.2454
   44MOL    C5013896   5.137   1.682   6.798  0.0256 -1.3347  0.4028
   44MOL    C5113897   5.143   1.605   6.925 -0.1420  0.1399  0.3799
   44MOL    C5213898   5.224   1.659   7.032 -0.7706 -0.1807 -0.0776
   44MOL    C5313899   5.241   1.585   7.152 -0.5496 -0.8156  0.0289
   44MOL    C5413900   5.187   1.456   7.163 -0.5818  0.2459  0.2083
   44MOL    F5513901   5.206   1.390   7.280  0.0377  0.0389 -0.4289
   44MOL    C5613902   5.098   1.407   7.061 -0.1295 -0.5527  0.0005
   44MOL    C5713903   5.071   1.483   6.949  0.1064 -0.0893  0.3078
   44MOL    C5813904   5.212   1.615   6.681  0.0216  0.2363  0.2417
   44MOL    H5913905   5.192   1.774   6.817  1.8166 -2.1420 -0.7481
   44MOL    H6013906   5.275   1.754   7.031  0.0208 -0.5083  2.9810
   44MOL    H6113907   5.304   1.615   7.234 -1.0051 -1.0572  0.4712
   44MOL    H6213908   5.064   1.304   7.066  0.1158 -0.6546 -0.4641
   44MOL    H6313909   4.997   1.455   6.875 -0.7943 -1.3303  1.6677
   44MOL    H6413910   5.143   1.551   6.626 -0.0466 -1.6962  2.5130
   44MOL    H6513911   5.224   1.697   6.611 -1.8945  1.9352  1.8577
   44MOL    C6613912   5.343   1.542   6.712 -0.1746  0.2408  0.0260
   44MOL    C6713913   5.389   1.457   6.592  0.3219 -0.2024 -0.9781
   44MOL    C6813914   5.397   1.323   6.608  0.1385  0.4786 -0.0812
   44MOL    C6913915   5.428   1.239   6.495 -0.1238 -0.9594 -0.3160
   44MOL    C7013916   5.461   1.295   6.373  0.0427  0.4164  0.3422
   44MOL    F7113917   5.513   1.217   6.272 -0.1867  0.2249 -0.6781
   44MOL    C7213918   5.450   1.436   6.356  0.3092 -0.2877 -0.1389
   44MOL    C7313919   5.411   1.516   6.469 -0.0597 -0.2142 -0.4034
   44MOL    C7413920   5.451   1.643   6.751  0.5636  0.0762  0.1514
   44MOL    H7513921   5.328   1.481   6.801 -1.8743  1.4190  0.5809
   44MOL    H7613922   5.373   1.269   6.698 -3.3115  2.4476  0.2430
   44MOL    H7713923   5.453   1.133   6.497 -1.0189 -1.1565  0.6126
   44MOL    H7813924   5.453   1.475   6.255  1.2466  3.4789  1.2989
   44MOL    H7913925   5.383   1.618   6.447  1.4158 -0.0950 -1.8964
   44MOL    H8013926   5.499   1.678   6.660  0.9373  2.3679  1.1993
   44MOL    H8113927   5.404   1.727   6.801  1.2824  1.2060 -1.0414
   44MOL    C8213928   5.558   1.591   6.843 -0.8333  0.2349  0.4062
   44MOL    C8313929   5.656   1.494   6.774 -0.2665  0.0729  0.3165
   44MOL    C8413930   5.695   1.375   6.840  0.1115 -0.1062 -0.2962
   44MOL    C8513931   5.776   1.283   6.770  0.8180  0.0462 -0.0835
   44MOL    C8613932   5.833   1.318   6.646  0.1397  0.5058  0.5742
   44MOL    F8713933   5.923   1.231   6.585  0.0163 -0.3739  0.5778
   44MOL    C8813934   5.803   1.442   6.588 -0.2529 -0.2459  0.3316
   44MOL    C8913935   5.720   1.532   6.655  0.4651 -0.1075 -0.2350
   44MOL    C9013936   5.628   1.701   6.926 -0.5056 -0.0278  0.4625
   44MOL    H9113937   5.504   1.536   6.920 -0.9970 -0.1715  0.0086
   44MOL    H9213938   5.649   1.354   6.936  3.1840 -0.9887  1.0432
   44MOL    H9313939   5.789   1.184   6.812 -0.8902  0.1719  0.7892
   44MOL    H9413940   5.847   1.466   6.492  1.2576 -0.7576  0.8782
   44MOL    H9513941   5.704   1.632   6.618 -2.1555  0.0684  1.2754
   44MOL    H9613942   5.700   1.740   6.854 -1.1261 -0.3332 -0.3324
   44MOL    H9713943   5.564   1.787   6.946  1.7751  1.8439 -0.0238
   44MOL    C9813944   5.704   1.666   7.053 -0.8487 -0.9074 -0.3082
   44MOL    C9913945   5.778   1.786   7.105  0.6976  0.1982  0.1583
   44MOL   C10013946   5.696   1.889   7.156  0.5820 -0.1435 -0.2625
   44MOL   C10113947   5.748   2.010   7.206 -0.2697  0.1609 -0.5755
   44MOL   C10213948   5.888   2.018   7.221 -0.6696 -0.1360 -0.3057
   44MOL   F10313949   5.941   2.133   7.269 -0.1857 -0.1822  0.6368
   44MOL   C10413950   5.971   1.918   7.167  0.5635 -0.3081  0.0582
   44MOL   C10513951   5.919   1.803   7.104  0.1908 -0.1373 -0.3102
   44MOL   C10613952   5.614   1.608   7.169  0.4563 -0.1422  0.0628
   44MOL   H10713953   5.776   1.586   7.035  1.1677  1.1503 -1.5397
   44MOL   H10813954   5.590   1.870   7.152  0.8017 -1.2576 -1.1420
   44MOL   H10913955   5.683   2.083   7.252  1.4586  0.7517  0.9798
   44MOL   H11013956   6.077   1.917   7.189 -0.0071  2.0489  3.2384
   44MOL   H11113957   5.976   1.717   7.071 -2.2083 -0.7535 -3.1427
   44MOL   H11213958   5.523   1.663   7.191  1.9458  1.1782  3.3854
   44MOL   H11313959   5.567   1.519   7.127  0.0608 -0.6815  1.6213
   44MOL   C11413960   5.676   1.569   7.297  0.0625 -0.1912 -0.6398
   44MOL   C11513961   5.565   1.558   7.402 -0.3851 -0.1230  0.1371
   44MOL   C11613962   5.557   1.666   7.493 -0.5836  0.4453  0.2099
   44MOL   C11713963   5.467   1.661   7.602 -0.2197  0.8146  0.2861
   44MOL   C11813964   5.380   1.555   7.614  0.5773 -0.1146 -0.0992
   44MOL   F11913965   5.281   1.552   7.712 -0.4946  0.1534  0.3477
   44MOL   C12013966   5.382   1.450   7.521  0.1564  0.2781 -0.1162
   44MOL   C12113967   5.479   1.442   7.426  0.5265  0.3842  0.4376
   44MOL   C12213968   5.763   1.445   7.283  0.4449  0.1821  0.0413
   44MOL   H12313969   5.738   1.648   7.340  2.3653 -2.1594 -0.1897
   44MOL   H12413970   5.623   1.752   7.490 -0.2457  0.1285 -1.3527
   44MOL   H12513971   5.462   1.747   7.667  0.5242  1.3140 -0.3089
   44MOL   H12613972   5.323   1.360   7.527  2.1504 -0.9838  1.1526
   44MOL   H12713973   5.485   1.350   7.369  0.6606  0.6434  0.0330
   44MOL   H12813974   5.699   1.358   7.293  2.0213 -0.8706  1.3355
   44MOL   H12913975   5.812   1.433   7.186 -1.1217 -0.2980 -0.6969
   44MOL   C13013976   5.879   1.438   7.380 -0.0960  0.4877  0.0999
   44MOL   C13113977   5.982   1.553   7.368 -0.2482 -0.2335 -0.5683
   44MOL   C13213978   5.981   1.673   7.444  0.1537  0.0383 -0.3041
   44MOL   C13313979   6.086   1.767   7.454  0.0589 -0.1466  0.3362
   44MOL   C13413980   6.196   1.741   7.374 -0.3030  0.6244 -0.3817
   44MOL   F13513981   6.298   1.834   7.380  0.2651  0.1809 -0.1217
   44MOL   C13613982   6.208   1.626   7.297 -0.1176  0.1669 -0.2454
   44MOL   C13713983   6.101   1.534   7.291 -0.0308 -0.2699  0.2841
   44MOL   C13813984   5.838   1.417   7.531  0.1611 -0.3920  0.0109
   44MOL   H13913985   5.926   1.341   7.364 -1.0701 -0.3092  1.9662
   44MOL   H14013986   5.899   1.686   7.514  1.7470  1.5036  1.3459
   44MOL   H14113987   6.078   1.858   7.512  0.3330 -1.2433  2.1283
   44MOL   H14213988   6.301   1.600   7.250 -0.2012  0.0039 -0.3218
   44MOL   H14313989   6.117   1.450   7.224  0.4539  0.2062 -0.2054
   44MOL   H14413990   5.778   1.501   7.566 -1.6721 -1.8011  0.3432
   44MOL   H14513991   5.757   1.345   7.545  0.7313 -0.9841  0.2543
   44MOL   C14613992   5.959   1.393   7.626  0.6371  0.1508 -0.0974
   44MOL   C14713993   5.954   1.478   7.755  0.5345  0.2848 -0.6401
   44MOL   C14813994   5.854   1.454   7.851 -0.2337 -0.3503 -0.7558
   44MOL   C14913995   5.845   1.527   7.972 -0.0939 -0.2314  0.0352
   44MOL   C15013996   5.942   1.624   7.994 -0.3120 -0.6174 -0.3701
   44MOL   F15113997   5.934   1.683   8.116 -0.2421 -1.0395  0.0085
   44MOL   C15213998   6.041   1.654   7.899  0.6601 -0.5223 -0.4776
   44MOL   C15313999   6.042   1.578   7.776  1.3140 -0.9683  0.4360
   44MOL   C15414000   5.971   1.246   7.660 -0.0316 -0.2864  0.0658
   44MOL   H15514001   6.050   1.422   7.573  1.7580 -2.7535  0.1795
   44MOL   H15614002   5.779   1.377   7.844  0.3089 -0.7521 -2.2458
   44MOL   H15714003   5.768   1.510   8.046 -0.0615  1.2174  0.4039
   44MOL   H15814004   6.106   1.739   7.907 -1.2540  1.2871 -3.4183
   44MOL   H15914005   6.121   1.597   7.704  0.4681 -0.3722 -0.3348
   44MOL   H16014006   6.045   1.226   7.738 -0.3767 -0.0013  0.4694
   44MOL   H16114007   5.879   1.210   7.706 -0.7578  0.2078 -1.0026
   44MOL   C16214008   6.020   1.149   7.556 -0.5560 -0.1333  0.1348
   44MOL   C16314009   6.160   1.174   7.502  0.2713 -0.4420  0.0500
   44MOL   C16414010   6.189   1.212   7.368  0.0590 -0.2650  0.0829
   44MOL   C16514011   6.321   1.242   7.325  0.8331 -0.4161  0.9094
   44MOL   C16614012   6.421   1.243   7.418  0.8736  0.3919 -0.0874
   44MOL   F16714013   6.548   1.286   7.393 -0.2599 -0.4051  0.4530
   44MOL   C16814014   6.405   1.190   7.547  0.2846 -0.4131 -0.2074
   44MOL   C16914015   6.273   1.149   7.587 -0.5252 -0.2019  0.2883
   44MOL   C17014016   5.993   1.007   7.606 -0.0515  0.0395  0.4518
   44MOL   H17114017   5.954   1.167   7.471 -0.2578  0.1067 -0.0468
   44MOL   H17214018   6.105   1.228   7.301 -1.7655 -1.6636  1.9522
   44MOL   H17314019   6.334   1.305   7.238  2.9073 -0.5415  1.1066
   44MOL   H17414020   6.485   1.184   7.620 -1.4746 -0.8528  1.7357
   44MOL   H17514021   6.253   1.111   7.686  1.3253 -0.4938  0.5601
   44MOL   H17614022   6.055   0.932   7.558 -0.8436 -0.0043 -0.5276
   44MOL   H17714023   6.015   1.002   7.712  1.1094 -0.3446  0.1949
   44MOL   C17814024   5.844   0.970   7.570  0.9304 -0.0140 -1.1861
   44MOL   C17914025   5.807   0.957   7.416 -0.2533 -0.0752 -0.7425
   44MOL   C18014026   5.742   1.064   7.354 -0.3024  0.6640 -0.0925
   44MOL   C18114027   5.716   1.064   7.219 -0.0990 -0.4844 -0.1140
   44MOL   C18214028   5.750   0.951   7.145  0.5908 -0.7497 -0.3353
   44MOL   F18314029   5.726   0.950   7.010 -0.1443 -0.5854  0.2025
   44MOL   C18414030   5.807   0.837   7.210 -0.0068  0.2591  0.1678
   44MOL   C18514031   5.847   0.842   7.345  0.0930 -0.7110  0.0225
   44MOL   C18614032   5.798   0.842   7.650  0.5501  0.3187  0.1938
   44MOL   H18714033   5.788   1.051   7.616  0.4069 -2.2871  2.3214
   44MOL   H18814034   5.719   1.152   7.413 -1.0397  0.9615 -0.8100
   44MOL   H18914035   5.682   1.151   7.165  0.1335 -1.6741 -2.2665
   44MOL   H19014036   5.831   0.751   7.150  0.5118 -0.5066  1.4433
   44MOL   H19114037   5.912   0.767   7.386 -1.5533 -1.5640  1.1287
   44MOL   H19214038   5.754   0.771   7.580  3.0704  1.3664 -2.5280
   44MOL   H19314039   5.881   0.789   7.696 -0.1376 -1.2499 -0.3203
   44MOL   C19414040   5.685   0.873   7.757  0.1941  0.3451 -0.0864
   44MOL   C19514041   5.621   0.741   7.799  0.1098  0.4442 -0.3520
   44MOL   C19614042   5.500   0.699   7.743  0.4386 -0.3821 -0.7826
   44MOL   C19714043   5.439   0.575   7.779  0.3851 -0.7663  0.6809
   44MOL   C19814044   5.501   0.485   7.867  0.1329  0.5068 -0.6314
   44MOL   F19914045   5.439   0.366   7.897  0.0605 -0.2885 -0.5037
   44MOL   C20014046   5.629   0.519   7.914  0.0200  0.1004 -0.4167
   44MOL   C20114047   5.685   0.648   7.892  0.2122  0.3997 -0.9149
   44MOL   C20214048   5.725   0.964   7.876  0.2045  0.3462 -0.3867
   44MOL   H20314049   5.616   0.923   7.689  0.7040 -0.0533 -0.9003
   44MOL   H20414050   5.453   0.771   7.677 -0.6320 -0.1200  0.2639
   44MOL   H20514051   5.339   0.565   7.739  0.3294 -2.0684  1.1076
   44MOL   H20614052   5.672   0.456   7.991  2.2355 -1.4746 -2.8666
   44MOL   H20714053   5.782   0.675   7.931  0.2554  0.5375 -1.1179
   44MOL   H20814054   5.800   0.903   7.928  1.4104  1.7496 -0.4574
   44MOL   H20914055   5.780   1.048   7.836 -2.4218  2.1386 -0.3305
   44MOL   C21014056   5.610   1.007   7.971 -0.4516 -0.3669  0.2924
   44MOL   C21114057   5.658   1.042   8.107 -0.2568 -0.1347 -0.0515
   44MOL   C21214058   5.627   0.952   8.217  0.3848  0.0240  0.0675
   44MOL   C21314059   5.675   0.975   0.113  0.2612 -0.0257  0.4436
   44MOL   C21414060   5.735   1.099   0.138 -0.6385  0.2116 -0.6350
   44MOL   F21514061   5.761   1.125   0.266  0.1186  0.2740 -0.1453
   44MOL   C21614062   5.764   1.194   0.038  0.4915 -0.6766 -0.4829
   44MOL   C21714063   5.726   1.162   8.139  0.1779  0.4091  0.5963
   44MOL   C21814064   5.534   1.125   7.911  0.4178  0.3785  0.8155
   44MOL   H21914065   5.530   0.932   7.978 -0.3645 -0.4915 -0.0483
   44MOL   H22014066   5.563   0.866   8.203 -0.7411  0.9414 -0.5122
   44MOL   H22114067   5.654   0.903   0.190 -0.0596 -0.3548  0.0538
   44MOL   H22214068   5.798   1.296   0.053  0.9875 -1.0358  0.8108
   44MOL   H22314069   5.743   1.236   8.062  1.1716 -0.2165  0.2008
   44MOL   H22414070   5.611   1.193   7.873  0.1705 -0.2610 -0.8561
   44MOL   H22514071   5.482   1.096   7.821 -0.4274 -0.9795  1.7232
   44MOL   C22614072   5.435   1.198   8.006 -0.1148  0.2578  0.1717
   44MOL   C22714073   5.477   1.342   8.034 -0.0855  0.4379  0.5710
   44MOL   C22814074   5.494   1.391   8.166  0.3097  0.1726 -0.1120
   44MOL   C22914075   5.527   1.529   8.181 -0.0837  0.8175 -0.2098
   44MOL   C23014076   5.546   1.613   8.067  0.3422 -0.1546 -0.3672
   44MOL   F23114077   5.601   1.734   8.086  0.1510  1.0546 -0.2303
   44MOL   C23214078   5.534   1.567   7.936 -0.1882  0.4639 -0.1484
   44MOL   C23314079   5.507   1.430   7.919  0.2567  0.1354 -0.3636
   44MOL   C23414080   5.293   1.184   7.943  0.8251  0.3654 -0.2004
   44MOL   H23514081   5.424   1.149   8.102  1.7360  0.9785  0.7686
   44MOL   H23614082   5.476   1.333   0.021  0.5180  1.3394  0.7073
   44MOL   H23714083   5.548   1.571   0.043 -1.8215  0.8709  0.1623
   44MOL   H23814084   5.567   1.630   7.854  0.7269  2.0064  1.3595
   44MOL   H23914085   5.494   1.381   7.824  2.1864  1.2842 -1.2544
   44MOL   H24014086   5.298   1.244   7.852  3.7533  2.6836  1.3601
   44MOL   H24114087   5.271   1.080   7.921 -1.1162  0.6258  0.4589
   44MOL   C24214088   5.179   1.258   8.024  0.0045  0.2715  0.0994
   44MOL   C24314089   5.051   1.278   7.941 -1.7332  0.6368 -0.6091
   44MOL   C24414090   5.012   1.183   7.848  0.0797 -0.1504 -0.3623
   44MOL   C24514091   4.897   1.198   7.768 -0.1231  0.3973  0.0584
   44MOL   C24614092   4.817   1.318   7.788 -0.7793  0.4436  0.3412
   44MOL   F24714093   4.711   1.344   7.707 -0.0385  0.2229 -0.0001
   44MOL   C24814094   4.854   1.411   7.883  1.0893 -0.1878  1.0135
   44MOL   C24914095   4.970   1.393   7.958  0.4302  0.0616  0.4614
   44MOL   C25014096   5.154   1.208   8.170  0.5069 -0.6602  0.1345
   44MOL   H25114097   5.221   1.358   8.028 -0.0578  0.2607  1.1045
   44MOL   H25214098   5.077   1.097   7.833  0.2100 -0.4034  1.4667
   44MOL   H25314099   4.875   1.127   7.690  2.4168  0.1442 -0.4933
   44MOL   H25414100   4.796   1.501   7.894  0.4755 -0.5720  0.9547
   44MOL   H25514101   4.989   1.473   8.029  0.8114  0.2572  0.1379
   44MOL   H25614102   5.244   1.221   8.231  0.6232 -1.2412  0.0871
   44MOL   H25714103   5.081   1.287   8.187  2.1976  0.7982  0.8300
   44MOL   C25814104   5.083   1.081   8.200 -0.1197 -0.8377 -0.9633
   44MOL   C25914105   5.182   0.961   8.197  0.1350  0.1168 -0.1531
   44MOL   C26014106   5.255   0.918   0.074 -0.2207  0.7082  0.0232
   44MOL   C26114107   5.346   0.813   0.069 -0.0823  0.1737 -0.0507
   44MOL   C26214108   5.348   0.736   8.183 -0.1265 -0.3116 -0.8636
   44MOL   F26314109   5.448   0.639   8.176 -0.5912  0.3934  0.4355
   44MOL   C26414110   5.265   0.765   8.074  0.1787 -0.1517 -0.3240
   44MOL   C26514111   5.186   0.884   8.084  0.0870  0.4987 -0.6667
   44MOL   C26614112   4.990   1.089   0.092 -0.4229  0.3707 -0.4752
   44MOL   H26714113   5.014   1.064   8.117 -0.4773 -1.9571 -0.4491
   44MOL   H26814114   5.233   0.961   0.171  0.2748 -1.0487  0.9451
   44MOL   H26914115   5.410   0.793   0.153  0.2148  0.0829 -0.2991
   44MOL   H27014116   5.273   0.717   7.977  0.4262 -3.3260  1.2036
   44MOL   H27114117   5.114   0.902   8.005 -0.9209  0.1572  0.1666
   44MOL   H27214118   4.961   0.989   0.124 -3.5351  1.7579  1.2519
   44MOL   H27314119   5.047   1.138   0.171 -0.2806  2.7452 -2.0043
   44MOL   C27414120   4.858   1.170   0.086  0.9598 -0.0297 -0.1507
   44MOL   C27514121   4.757   1.108   8.221  0.3087  0.9116 -0.2091
   44MOL   C27614122   4.709   0.976   0.011 -0.0541 -0.3603 -0.5488
   44MOL   C27714123   4.622   0.910   8.152 -0.0032  0.4184 -0.3394
   44MOL   C27814124   4.568   0.985   8.050  0.6164 -0.7644 -0.5004
   44MOL   F27914125   4.464   0.942   7.968 -0.2130  0.2715 -0.1091
   44MOL   C28014126   4.606   1.118   8.027 -0.0491  0.7499 -0.1968
   44MOL   C28114127   4.702   1.174   8.112 -0.8272 -0.7830 -0.1629
   44MOL   C28214128   4.791   1.178   0.224 -0.4650 -0.2571 -0.7997
   44MOL   H28314129   4.878   1.272   0.054  0.4964 -0.1413 -0.7990
   44MOL   H28414130   4.744   0.928   0.102 -1.5167 -0.2092  0.1025
   44MOL   H28514131   4.573   0.818   8.179 -1.2747  1.5409  1.3193
   44MOL   H28614132   4.574   1.172   7.940  0.3276 -0.0789 -0.8592
   44MOL   H28714133   4.734   1.274   8.085  1.7888 -1.9594 -1.6109
   44MOL   H28814134   4.688   1.204   0.198 -1.0603  0.1942  1.8817
   44MOL   H28914135   4.783   1.083   0.276  1.7294  0.4047  0.8041
   44MOL   C29014136   4.823   1.306   0.312 -0.4692  0.8857 -0.2158
   44MOL   C29114137   4.742   1.313   0.443 -0.2265  0.6801  0.0285
   44MOL   C29214138   4.764   1.222   0.553 -0.5814 -0.0140  0.5390
   44MOL   C29314139   4.686   1.222   0.672 -0.0883  0.0625 -0.2105
   44MOL   C29414140   4.584   1.319   0.678  0.2382  0.0569  0.8064
   44MOL   F29514141   4.514   1.322   0.787 -0.0687  0.1930  0.1665
   44MOL   C29614142   4.561   1.410   0.573  0.2883  0.7341 -0.0986
   44MOL   C29714143   4.638   1.403   0.455  0.7838  0.4480 -0.3529
   44MOL   C29814144   4.972   1.342   0.349 -0.8036  0.1322  0.2895
   44MOL   H29914145   4.808   1.394   0.249 -0.6266  0.5099 -0.6972
   44MOL   H30014146   4.836   1.143   0.537 -3.6202 -2.3682 -2.1730
   44MOL   H30114147   4.708   1.167   0.762 -0.0049 -0.1163 -0.3389
   44MOL   H30214148   4.480   1.481   0.586  1.0031  1.4749  0.3514
   44MOL   H30314149   4.615   1.476   0.379  0.3593 -0.7905 -1.4420
   44MOL   H30414150   4.993   1.398   0.441 -0.0533  0.4294 -0.0619
   44MOL   H30514151   5.019   1.245   0.364 -1.5036 -0.5089 -1.5508
   44MOL   C30614152   5.060   1.406   0.237 -0.9853 -0.5248 -0.7249
   44MOL   C30714153   5.013   1.544   0.196  0.1160 -0.0019  0.8945
   44MOL   C30814154   4.961   1.563   0.062  0.1654  0.0172  0.1077
   44MOL   C30914155   4.907   1.684   0.017 -0.1308  0.6360  0.4764
   44MOL   C31014156   4.921   1.800   0.099 -0.3413 -0.3839 -0.3041
   44MOL   F31114157   4.879   1.920   0.049  0.1353  0.9204  0.0744
   44MOL   C31214158   4.970   1.781   0.234 -0.1816 -0.4488  0.1105
   44MOL   C31314159   5.014   1.650   0.279 -0.0063 -0.8078 -0.1370
   44MOL   C31414160   5.206   1.398   0.279  0.8929  0.0197  0.1795
   44MOL   H31514161   5.070   1.340   0.151  1.5190  0.5449 -1.3136
   44MOL   H31614162   4.955   1.479   8.228 -0.6767 -1.7457  2.2610
   44MOL   H31714163   4.863   1.694   8.154  0.5978 -1.3210 -0.0833
   44MOL   H31814164   4.998   1.861   0.301  0.5062  0.7155 -1.5272
   44MOL   H31914165   5.065   1.645   0.373  1.3791 -0.2667 -0.8477
   44MOL   H32014166   5.237   1.296   0.303 -0.4044 -0.3447  0.2984
   44MOL   H32114167   5.273   1.435   0.201 -0.8368 -1.3552 -2.0085
   44MOL   H32214168   5.214   1.473   0.358 -1.5137  1.5747 -0.9899
   45MOL     C114169   7.538   2.990   0.819  1.0468 -0.1946 -0.7217
   45MOL     C214170   7.441   2.935   0.918  0.1572  0.0455 -0.2093
   45MOL     C314171   7.461   2.814   0.992 -0.4529  0.0276 -0.3178
   45MOL     C414172   7.377   2.777   1.103  0.6338  0.2604  0.1425
   45MOL     C514173   7.258   2.850   1.122  0.8459  0.3498 -0.1866
   45MOL     F614174   7.170   2.819   1.222 -0.1914  0.3694 -0.0502
   45MOL     C714175   7.232   2.965   1.038 -0.5678 -0.4193 -0.4358
   45MOL     C814176   7.325   3.012   0.944 -0.2852  1.0268  0.0678
   45MOL     C914177   7.569   2.890   0.702  0.5864 -0.2337  0.5572
   45MOL    H1014178   7.628   3.004   0.878  1.0544 -1.7997 -0.3218
   45MOL    H1114179   7.544   2.750   0.969  0.1433 -0.4441  2.9192
   45MOL    H1214180   7.395   2.685   1.157  2.0944  0.2418 -0.3609
   45MOL    H1314181   7.148   3.029   1.057  0.5411  0.6979  0.7362
   45MOL    H1414182   7.301   3.101   0.887 -0.2842  1.0446  0.0954
   45MOL    H1514183   7.612   2.792   0.720  1.8875  0.1755 -0.2313
   45MOL    H1614184   7.473   2.875   0.653  1.3201  0.8003 -1.2880
   45MOL    H1714185   7.493   3.078   0.773  2.7148  1.1879  0.2670
   45MOL    C1814186   7.668   2.933   0.587 -0.1942 -0.1593 -0.6245
   45MOL    C1914187   7.613   3.042   0.495 -0.1037  0.2129 -0.1961
   45MOL    C2014188   7.539   2.993   0.381 -0.6636  0.3419  0.6951
   45MOL    C2114189   7.470   3.076   0.289  0.4825 -0.4841 -0.1472
   45MOL    C2214190   7.468   3.216   0.321 -0.0766  0.1587 -0.8727
   45MOL    F2314191   7.410   3.298   0.234 -0.1225 -0.5382  0.5137
   45MOL    C2414192   7.549   3.270   0.429  1.1774  1.1928  0.3895
   45MOL    C2514193   7.622   3.185   0.513  1.3620 -0.2532 -0.8322
   45MOL    C2614194   7.813   2.977   0.631  0.5817  0.2498 -0.1242
   45MOL    H2714195   7.679   2.850   0.517 -0.3470  0.0222 -0.8646
   45MOL    H2814196   7.537   2.888   0.354  0.4706 -0.1926  2.6204
   45MOL    H2914197   7.416   3.032   0.207  0.3932 -0.6382 -0.0053
   45MOL    H3014198   7.550   3.375   0.454 -1.9422  1.1591  0.8279
   45MOL    H3114199   7.687   3.223   0.591 -3.0111  1.6951  2.0281
   45MOL    H3214200   7.860   3.011   0.538 -1.1457 -0.3287 -1.2356
   45MOL    H3314201   7.806   3.063   0.697  3.0920  0.4954 -0.1260
   45MOL    C3414202   7.899   2.871   0.690 -0.3942 -0.2410 -0.0663
   45MOL    C3514203   8.045   2.870   0.646 -0.2236 -0.3945 -0.5962
   45MOL    C3614204   8.092   2.779   0.552 -0.2892  0.6657 -0.6617
   45MOL    C3714205   8.229   2.777   0.514  0.2705  0.4439  0.3052
   45MOL    C3814206   0.085   2.872   0.561  0.3942  0.1533 -0.5612
   45MOL    F3914207   0.212   2.891   0.503 -0.0703  0.2694  0.1091
   45MOL    C4014208   0.033   2.970   0.649 -0.2020  0.8080  0.4114
   45MOL    C4114209   8.140   2.960   0.704 -0.3251 -0.6640  0.2616
   45MOL    C4214210   7.885   2.831   0.841 -0.4052 -0.1958 -0.1632
   45MOL    H4314211   7.868   2.782   0.635  0.3756 -1.6298  1.7022
   45MOL    H4414212   8.024   2.708   0.506 -0.4696  0.1599  0.3830
   45MOL    H4514213   0.025   2.726   0.424 -2.4402  1.1516 -1.0749
   45MOL    H4614214   0.108   3.040   0.684 -1.3879  3.6098 -2.3753
   45MOL    H4714215   8.109   3.021   0.787  1.0575 -1.8346  1.6807
   45MOL    H4814216   7.954   2.890   0.900  0.0473  0.5002 -1.3741
   45MOL    H4914217   7.782   2.854   0.870 -0.8688 -2.0963 -0.2441
   45MOL    C5014218   7.932   2.689   0.873 -0.2895  0.3309  0.4467
   45MOL    C5114219   7.921   2.660   1.021 -0.0038 -0.3403  0.6198
   45MOL    C5214220   8.015   2.569   1.076 -0.6765 -0.2310  0.5733
   45MOL    C5314221   8.031   2.540   1.211  0.5869  0.4647 -0.0964
   45MOL    C5414222   7.940   2.605   1.299 -0.7824  0.8171 -0.4949
   45MOL    F5514223   7.955   2.580   1.435  0.2885 -0.0910  0.2813
   45MOL    C5614224   7.851   2.710   1.249 -0.1639 -0.3256 -0.5995
   45MOL    C5714225   7.835   2.731   1.112 -0.1187  0.1119 -0.4420
   45MOL    C5814226   7.858   2.584   0.785 -0.5731 -0.4031  0.2243
   45MOL    H5914227   8.038   2.684   0.847 -0.7427 -3.1202 -1.0454
   45MOL    H6014228   8.084   2.518   1.010  0.9239 -0.7289  2.5603
   45MOL    H6114229   8.114   2.475   1.237  0.7322  0.7962  0.2873
   45MOL    H6214230   7.788   2.766   1.316  0.7480 -0.2090  0.1658
   45MOL    H6314231   7.764   2.810   1.092 -1.3433 -1.3671 -2.0467
   45MOL    H6414232   7.754   2.616   0.777 -1.3382 -3.2750 -2.3229
   45MOL    H6514233   7.882   2.580   0.679 -0.7285  0.4740  0.1543
   45MOL    C6614234   7.867   2.434   0.835 -0.2635  0.4167 -0.0271
   45MOL    C6714235   7.744   2.353   0.793  0.6158  0.6264 -0.4119
   45MOL    C6814236   7.660   2.288   0.887  0.5651 -0.1710 -0.5968
   45MOL    C6914237   7.539   2.231   0.847 -0.1155 -0.1538 -0.1702
   45MOL    C7014238   7.503   2.244   0.713 -0.1622  0.1180 -0.4133
   45MOL    F7114239   7.388   2.186   0.662 -0.1151 -0.1755  0.0783
   45MOL    C7214240   7.596   2.296   0.616  0.0115 -0.7366 -0.8004
   45MOL    C7314241   7.712   2.350   0.659  0.0210  0.2471 -0.2383
   45MOL    C7414242   7.991   2.365   0.778 -0.3511 -0.4137 -0.6943
   45MOL    H7514243   7.880   2.417   0.942 -1.0007  2.4188  0.3896
   45MOL    H7614244   7.689   2.269   0.989  1.9077 -1.9611 -1.2918
   45MOL    H7714245   7.471   2.193   0.922  1.6091  1.3903  2.2752
   45MOL    H7814246   7.565   2.292   0.513 -0.6710 -1.0714 -0.5923
   45MOL    H7914247   7.773   2.394   0.581 -0.5814  1.3330 -0.1038
   45MOL    H8014248   7.991   2.360   0.669 -1.6689  0.7055 -0.7613
   45MOL    H8114249   8.079   2.421   0.811 -0.2589 -0.0608 -1.5210
   45MOL    C8214250   8.014   2.217   0.830 -0.4826 -0.1062  0.5505
   45MOL    C8314251   8.114   2.139   0.740  0.4340  0.2466  0.4189
   45MOL    C8414252   0.011   2.190   0.711  0.4702  0.0572 -0.1222
   45MOL    C8514253   0.111   2.106   0.648 -0.1626 -0.3567 -0.3661
   45MOL    C8614254   0.081   1.971   0.620  0.5218  0.5643 -0.1008
   45MOL    F8714255   0.175   1.882   0.569  0.5499  0.8756 -0.5436
   45MOL    C8814256   8.189   1.917   0.654 -0.2786  0.0642 -0.4675
   45MOL    C8914257   8.089   2.000   0.714  0.5809 -0.5126  0.3963
   45MOL    C9014258   8.065   2.221   0.975 -0.2176 -0.1974 -0.1922
   45MOL    H9114259   7.920   2.161   0.828  0.8471 -2.3793 -0.7427
   45MOL    H9214260   0.023   2.292   0.744 -0.9190 -0.5227  2.2778
   45MOL    H9314261   0.210   2.149   0.644 -0.8061  1.4392  1.7800
   45MOL    H9414262   8.163   1.813   0.654 -0.8184  0.1725  1.6963
   45MOL    H9514263   7.994   1.954   0.734 -0.1710  0.5424 -0.7408
   45MOL    H9614264   8.152   2.287   0.965  0.2077 -0.6876  0.2482
   45MOL    H9714265   7.998   2.282   1.036  0.6250 -0.3418  0.8993
   45MOL    C9814266   8.102   2.088   1.054  0.0829 -0.2335  0.1296
   45MOL    C9914267   0.009   2.096   1.110  0.8217 -0.3411 -0.3693
   45MOL   C10014268   0.035   2.166   1.228  0.0663  0.0040  0.4600
   45MOL   C10114269   0.163   2.171   1.284 -0.5402 -0.0305  0.6005
   45MOL   C10214270   0.268   2.122   1.205 -0.1863 -0.4901 -0.3813
   45MOL   F10314271   0.393   2.132   1.246  0.2466 -0.1137  0.7499
   45MOL   C10414272   0.242   2.040   1.094 -0.0892 -0.9067  0.0530
   45MOL   C10514273   0.111   2.025   1.046  0.5438  0.1889  0.2588
   45MOL   C10614274   8.006   2.028   1.148  0.5677  0.0270  0.1286
   45MOL   H10714275   8.109   2.008   0.980 -0.0975 -0.5201  0.4208
   45MOL   H10814276   8.186   2.215   1.278  1.2372  2.3472  0.1959
   45MOL   H10914277   0.203   2.216   1.374 -1.3991 -0.1121  1.0298
   45MOL   H11014278   0.321   1.990   1.041 -0.3206 -0.3879 -0.7964
   45MOL   H11114279   0.093   1.964   0.958 -1.4648 -0.4875  1.1048
   45MOL   H11214280   8.061   1.954   1.208  0.1886  0.0554  0.5130
   45MOL   H11314281   7.968   2.102   1.218 -0.6830 -1.6594  1.2766
   45MOL   C11414282   7.880   1.963   1.096 -0.1130 -0.2280 -0.2574
   45MOL   C11514283   7.885   1.874   0.977 -0.0731  0.0976 -0.3377
   45MOL   C11614284   7.973   1.764   0.970  0.2814 -0.2574  0.2978
   45MOL   C11714285   7.978   1.684   0.856  0.0162  0.0560 -0.3621
   45MOL   C11814286   7.885   1.700   0.751 -1.1566 -0.3549 -0.3814
   45MOL   F11914287   7.894   1.620   0.646  0.1989 -0.1058 -0.1160
   45MOL   C12014288   7.789   1.801   0.761 -0.8733  0.2173 -0.7167
   45MOL   C12114289   7.791   1.896   0.865 -0.4815  0.3056  0.1317
   45MOL   C12214290   7.800   1.886   1.207  0.2531  0.5580 -0.3420
   45MOL   H12314291   7.818   2.045   1.061  0.7273  0.8344  0.6715
   45MOL   H12414292   8.031   1.746   1.060 -2.6851  1.3753  2.6019
   45MOL   H12514293   8.043   1.598   0.853 -3.1476 -2.4452 -0.1562
   45MOL   H12614294   7.720   1.811   0.679 -2.7522  1.3312  0.9660
   45MOL   H12714295   7.725   1.981   0.857 -0.4075  0.3227 -0.3321
   45MOL   H12814296   7.709   1.842   1.164  0.4573 -0.2129  0.0103
   45MOL   H12914297   7.863   1.801   1.231 -1.1737 -0.3698  0.1861
   45MOL   C13014298   7.774   1.964   1.336 -0.3256 -0.4358  0.4191
   45MOL   C13114299   7.695   2.097   1.311 -0.6280 -0.1821 -0.3400
   45MOL   C13214300   7.580   2.105   1.230  0.3606  0.3813  0.5400
   45MOL   C13314301   7.501   2.224   1.228  0.2832  0.1248  0.2158
   45MOL   C13414302   7.560   2.335   1.285  0.1416  0.0731  0.4573
   45MOL   F13514303   7.500   2.456   1.260 -0.2445 -0.1238  0.5522
   45MOL   C13614304   7.676   2.336   1.353  0.5030 -0.1316 -0.2815
   45MOL   C13714305   7.743   2.214   1.375  0.6525  0.3116  0.2153
   45MOL   C13814306   7.705   1.880   1.437 -0.0949  0.0008 -0.5132
   45MOL   H13914307   7.872   1.977   1.383 -0.2538 -2.9450  1.0359
   45MOL   H14014308   7.538   2.030   1.165 -1.9609  2.4428 -0.4767
   45MOL   H14114309   7.410   2.223   1.170 -0.6378 -0.7639  1.6220
   45MOL   H14214310   7.726   2.420   1.398 -1.1564  0.2756  0.8563
   45MOL   H14314311   7.831   2.212   1.437 -0.1730 -0.2571  1.3936
   45MOL   H14414312   7.643   1.954   1.489 -0.6998  0.4615 -1.8656
   45MOL   H14514313   7.629   1.818   1.391  0.2790  0.0232 -1.1614
   45MOL   C14614314   7.801   1.788   1.517 -0.0922 -0.0750 -0.0836
   45MOL   C14714315   7.872   1.869   1.630 -0.1806  0.4053 -0.0967
   45MOL   C14814316   8.010   1.881   1.622 -0.4442  0.0600  0.1852
   45MOL   C14914317   8.091   1.946   1.712 -0.6326  0.3147 -0.1854
   45MOL   C15014318   8.028   2.021   1.811 -0.3469 -1.0820  0.0917
   45MOL   F15114319   8.102   2.098   1.893  0.0075  0.0113 -0.2751
   45MOL   C15214320   7.888   2.016   1.830  0.9134 -0.4733 -0.2847
   45MOL   C15314321   7.808   1.938   1.738 -0.3591 -0.3183 -0.7514
   45MOL   C15414322   7.742   1.662   1.577 -0.1559  0.2960 -0.0630
   45MOL   H15514323   7.868   1.737   1.449 -0.1992 -1.6131  0.9170
   45MOL   H15614324   8.064   1.830   1.544  0.3762  1.3655 -0.1075
   45MOL   H15714325   8.198   1.953   1.696 -0.7196 -0.8595 -1.3582
   45MOL   H15814326   7.840   2.061   1.916 -0.2520  0.0793 -1.2159
   45MOL   H15914327   7.700   1.932   1.740 -0.4054 -0.2594 -2.1770
   45MOL   H16014328   7.815   1.616   1.644  0.7190 -1.2725 -2.0586
   45MOL   H16114329   7.663   1.695   1.644 -0.2860 -0.2514  0.0600
   45MOL   C16214330   7.680   1.564   1.477  0.7937  0.6189  0.2271
   45MOL   C16314331   7.775   1.509   1.375  0.5172  0.2253  0.8134
   45MOL   C16414332   7.897   1.454   1.416 -0.3395  0.3096  0.0036
   45MOL   C16514333   7.992   1.412   1.327 -0.3217 -0.4526  0.8887
   45MOL   C16614334   7.969   1.424   1.190  0.1346 -0.9411  0.0562
   45MOL   F16714335   8.058   1.391   1.103 -0.0928  0.3958 -0.1870
   45MOL   C16814336   7.847   1.484   1.141 -0.1162  0.1958  0.0585
   45MOL   C16914337   7.746   1.514   1.236 -0.2220 -0.6750 -0.3416
   45MOL   C17014338   7.609   1.456   1.547  0.3653  0.6012 -0.3022
   45MOL   H17114339   7.600   1.615   1.423  1.8808  0.4022 -1.6145
   45MOL   H17214340   7.921   1.447   1.521 -1.0849 -1.2460  0.0771
   45MOL   H17314341   8.080   1.363   1.366 -0.6190 -0.4387  1.5829
   45MOL   H17414342   7.829   1.502   1.036  1.3194 -0.6193 -0.3411
   45MOL   H17514343   7.651   1.561   1.218 -0.0750  0.1623  0.9810
   45MOL   H17614344   7.583   1.381   1.473  2.3251 -1.1131  0.6742
   45MOL   H17714345   7.672   1.403   1.619 -0.4758  2.5116  1.8986
   45MOL   C17814346   7.479   1.500   1.623 -0.0090 -0.3963 -0.2966
   45MOL   C17914347   7.386   1.593   1.549 -0.4457  0.1474  0.0419
   45MOL   C18014348   7.338   1.565   1.419 -0.6815 -0.5176 -0.7549
   45MOL   C18114349   7.258   1.655   1.341  0.4549 -0.2707  0.1747
   45MOL   C18214350   7.232   1.781   1.398  0.1213 -0.6866 -0.2561
   45MOL   F18314351   7.156   1.874   1.331 -0.2517  0.0373  0.4543
   45MOL   C18414352   7.278   1.815   1.530  0.1074  0.1158 -0.3368
   45MOL   C18514353   7.353   1.718   1.599  0.6190 -0.3806  0.0902
   45MOL   C18614354   7.401   1.375   1.680  0.2416  0.1984 -0.0408
   45MOL   H18714355   7.509   1.549   1.715  0.1236  0.2499 -0.6840
   45MOL   H18814356   7.367   1.471   1.374 -0.1955  0.0730 -1.6910
   45MOL   H18914357   7.223   1.617   1.246  0.2221 -0.7387  0.4487
   45MOL   H19014358   7.255   1.911   1.573 -1.3562 -0.1392 -0.4984
   45MOL   H19114359   7.400   1.752   1.690  0.1285  0.8755 -0.1120
   45MOL   H19214360   7.363   1.316   1.596  1.1806 -0.2368 -0.1680
   45MOL   H19314361   7.468   1.309   1.734 -0.4229 -0.1743  0.3325
   45MOL   C19414362   7.284   1.401   1.769 -0.0783 -0.3823 -0.2899
   45MOL   C19514363   7.209   1.272   1.812  0.8019 -0.2395  0.3147
   45MOL   C19614364   7.260   1.184   1.907  0.7702  0.1053  1.1604
   45MOL   C19714365   7.188   1.065   1.934  0.1988  0.4267  0.1008
   45MOL   C19814366   7.065   1.038   1.877  0.7251  0.9402  0.5134
   45MOL   F19914367   7.000   0.923   1.904 -0.4784  0.1723  0.1990
   45MOL   C20014368   7.008   1.130   1.789  0.3053 -0.2508 -0.3531
   45MOL   C20114369   7.079   1.248   1.749  0.2666 -0.0909 -0.3766
   45MOL   C20214370   7.308   1.486   1.893  0.3507 -0.5087 -0.3896
   45MOL   H20314371   7.212   1.452   1.705 -2.0747 -0.2216  2.0153
   45MOL   H20414372   7.348   1.217   1.961  1.2478  1.0780 -0.1722
   45MOL   H20514373   7.223   0.997   2.011 -0.0310  1.0150  0.7289
   45MOL   H20614374   6.919   1.106   1.732  0.5651  1.4582 -1.5149
   45MOL   H20714375   7.041   1.314   1.672 -1.0818  2.2277  2.2120
   45MOL   H20814376   7.379   1.428   1.951 -0.3432 -0.9166  0.0581
   45MOL   H20914377   7.361   1.571   1.849  2.1522 -0.7968  1.1799
   45MOL   C21014378   7.189   1.541   1.971  0.1955 -0.4088 -0.1205
   45MOL   C21114379   7.100   1.639   1.892  0.8535  0.5451  0.6924
   45MOL   C21214380   6.987   1.589   1.822  0.5962 -0.0496 -0.4064
   45MOL   C21314381   6.916   1.674   1.736  0.3042 -0.5873 -0.3411
   45MOL   C21414382   6.952   1.806   1.723  0.0686  0.0801 -0.3428
   45MOL   F21514383   6.881   1.889   1.645 -0.9652 -0.2159 -0.3638
   45MOL   C21614384   7.063   1.852   1.791  0.1599 -0.7127  0.5180
   45MOL   C21714385   7.137   1.770   1.881  0.3505  0.5337 -0.1757
   45MOL   C21814386   7.108   1.435   2.055 -0.2388 -0.3996  0.0077
   45MOL   H21914387   7.244   1.600   2.045 -0.9181  1.1119 -0.4802
   45MOL   H22014388   6.966   1.483   1.825  0.6719 -0.0282  1.4065
   45MOL   H22114389   6.824   1.649   1.685 -0.5243  0.9956  0.3348
   45MOL   H22214390   7.082   1.959   1.784 -2.3800 -0.3506 -1.5809
   45MOL   H22314391   7.222   1.813   1.931  1.0370 -0.6494 -0.3056
   45MOL   H22414392   7.046   1.384   1.982  0.4932  0.5212 -1.2846
   45MOL   H22514393   7.174   1.358   2.095  2.3056  0.9923 -1.3877
   45MOL   C22614394   7.018   1.512   2.169 -0.1991  0.5666  0.5500
   45MOL   C22714395   6.913   1.419   2.237  0.0589 -0.2287  0.0525
   45MOL   C22814396   6.815   1.478   2.319 -0.3176 -0.6483  0.2148
   45MOL   C22914397   6.712   1.398   2.373  0.3567 -0.3976 -0.0018
   45MOL   C23014398   6.708   1.261   2.346 -0.2903 -0.1419  0.3664
   45MOL   F23114399   6.611   1.182   2.398 -0.5146 -0.7138  0.3547
   45MOL   C23214400   6.812   1.197   2.278 -0.2437 -0.2491 -0.5479
   45MOL   C23314401   6.917   1.276   2.230  0.4658 -0.4474 -0.3693
   45MOL   C23414402   7.101   1.601   2.275  0.1970  0.7714  1.0663
   45MOL   H23514403   6.959   1.585   2.113  1.9266  0.3825 -2.0804
   45MOL   H23614404   6.812   1.585   2.334 -0.3717 -0.6029 -0.1181
   45MOL   H23714405   6.636   1.442   2.436  1.1274  0.0630  0.6114
   45MOL   H23814406   6.815   1.094   2.246 -3.8859 -0.2164 -1.1838
   45MOL   H23914407   6.992   1.222   2.174  0.0006 -0.0697 -1.3731
   45MOL   H24014408   7.188   1.652   2.233 -0.6752  1.8994  0.5759
   45MOL   H24114409   7.035   1.687   2.291 -1.4264  0.2160 -2.1805
   45MOL   C24214410   7.136   1.539   2.411 -0.2493  0.3657  0.1520
   45MOL   C24314411   7.236   1.422   2.410 -0.5647 -0.2544 -0.7790
   45MOL   C24414412   7.210   1.295   2.477 -0.5400  0.1205 -0.8332
   45MOL   C24514413   7.297   1.188   2.460  0.3185 -0.1337 -0.8217
   45MOL   C24614414   7.416   1.199   2.391  0.5912 -0.2636  0.3420
   45MOL   F24714415   7.498   1.094   2.396 -0.3625 -0.3197  0.0562
   45MOL   C24814416   7.453   1.322   2.324 -0.9856 -0.2359 -0.1916
   45MOL   C24914417   7.356   1.428   2.333  0.1104  0.2592  0.0876
   45MOL   C25014418   7.179   1.642   2.517  0.5476  0.5968  0.2492
   45MOL   H25114419   7.051   1.480   2.447  0.6775  0.2652  2.2797
   45MOL   H25214420   7.117   1.292   2.531  0.5928  0.7408  1.2234
   45MOL   H25314421   7.266   1.094   2.503 -1.6993  0.2021 -1.4964
   45MOL   H25414422   7.543   1.328   2.266 -1.1219 -2.3021 -0.6302
   45MOL   H25514423   7.382   1.526   2.294 -0.2192 -0.2300 -1.3850
   45MOL   H25614424   7.225   1.592   2.602  1.0874  0.9021  0.1372
   45MOL   H25714425   7.265   1.704   2.491  1.8904 -0.3818  2.2166
   45MOL   C25814426   7.058   1.724   2.575 -0.2312 -0.2500 -0.0163
   45MOL   C25914427   6.956   1.644   2.654  0.9275 -0.0931 -0.5389
   45MOL   C26014428   7.003   1.528   2.722  0.3434 -0.1871 -0.4757
   45MOL   C26114429   6.910   1.455   2.798  0.1429  0.3310 -0.0594
   45MOL   C26214430   6.777   1.496   2.803 -0.1142 -0.1649  0.9485
   45MOL   F26314431   6.693   1.423   2.878 -0.0931 -0.1900  0.4761
   45MOL   C26414432   6.725   1.614   2.738 -0.5111  0.7344  0.3027
   45MOL   C26514433   6.822   1.691   2.659  0.5584  0.4861  0.4176
   45MOL   C26614434   7.117   1.835   2.665  0.2310  0.1480  0.0688
   45MOL   H26714435   7.006   1.758   2.486 -1.0246  0.2169  0.6242
   45MOL   H26814436   7.105   1.494   2.723  0.2903 -0.3886 -1.2286
   45MOL   H26914437   6.933   1.368   2.858  1.2243 -0.1508 -1.1310
   45MOL   H27014438   6.625   1.653   2.751 -1.0659 -0.5588 -0.0223
   45MOL   H27114439   6.797   1.787   2.616  1.2843  0.4702 -0.0321
   45MOL   H27214440   7.026   1.886   2.696  0.8579  2.1743 -1.3094
   45MOL   H27314441   7.167   1.791   2.751  4.2508 -0.9135 -2.6489
   45MOL   C27414442   7.208   1.943   2.589 -0.2117  0.1754 -0.4997
   45MOL   C27514443   7.168   1.968   2.445 -0.5457  0.1009 -0.1951
   45MOL   C27614444   7.276   1.957   2.345  0.1517  0.2168 -0.1267
   45MOL   C27714445   7.244   1.969   2.209 -0.8155  0.2661  0.0530
   45MOL   C27814446   7.110   1.998   2.178 -0.0789  0.2237  0.4540
   45MOL   F27914447   7.071   2.013   2.053  0.0441 -0.0396  0.5171
   45MOL   C28014448   7.009   2.017   2.271 -0.0388 -0.5835 -0.7337
   45MOL   C28114449   7.041   2.010   2.408 -0.4073 -0.0197 -0.1530
   45MOL   C28214450   7.214   2.081   2.660  0.3550  0.1249  0.1968
   45MOL   H28314451   7.309   1.903   2.589 -0.3133 -0.3392  3.4457
   45MOL   H28414452   7.377   1.927   2.369  0.5292  1.1894 -0.4716
   45MOL   H28514453   7.320   1.948   2.136 -0.5133 -0.6758  0.6235
   45MOL   H28614454   6.908   2.040   2.240 -1.0641  0.3261  3.0609
   45MOL   H28714455   6.960   2.026   2.477 -2.0570 -3.0236 -1.2944
   45MOL   H28814456   7.247   2.150   2.583  3.6752  0.7504  2.0754
   45MOL   H28914457   7.116   2.113   2.694  0.2693 -0.5750  0.6216
   45MOL   C29014458   7.312   2.100   2.772  0.4273  0.3517 -0.3855
   45MOL   C29114459   7.329   2.247   2.807 -0.5239  0.2935  0.0205
   45MOL   C29214460   7.230   2.325   2.859 -0.2725 -0.0612 -0.9366
   45MOL   C29314461   7.257   2.462   2.885 -0.3484 -0.0710  0.2121
   45MOL   C29414462   7.379   2.516   2.852 -0.3297 -0.3035  0.1984
   45MOL   F29514463   7.394   2.652   2.855 -0.7468  0.7538  0.3494
   45MOL   C29614464   7.482   2.438   2.799 -0.2635  0.8416 -0.0676
   45MOL   C29714465   7.456   2.306   2.777  0.6342  0.8267  0.2646
   45MOL   C29814466   7.267   2.023   2.898 -0.0114  0.0805  0.1597
   45MOL   H29914467   7.407   2.060   2.736 -0.3186  0.7065 -2.8640
   45MOL   H30014468   7.134   2.287   2.892 -0.4813  0.0349 -1.4421
   45MOL   H30114469   7.177   2.525   2.920  1.3597  0.9636  2.3491
   45MOL   H30214470   7.573   2.490   2.770  0.6116 -0.2888  0.5992
   45MOL   H30314471   7.529   2.245   2.725 -0.0877 -1.1185  1.4701
   45MOL   H30414472   7.164   2.055   2.916 -0.3072 -1.2742  0.9542
   45MOL   H30514473   7.269   1.915   2.883  1.7554  0.2287 -0.8539
   45MOL   C30614474   7.348   2.042   3.029  0.2109  0.4304 -0.0302
   45MOL   C30714475   7.289   1.964   3.150 -0.5328 -0.4906 -0.0964
   45MOL   C30814476   7.360   1.862   3.217 -0.4206  0.7459 -0.4838
   45MOL   C30914477   7.287   1.779   3.314  0.0865 -0.1197 -0.0850
   45MOL   C31014478   7.150   1.798   3.337  1.2307  0.0218 -0.2551
   45MOL   F31114479   7.085   1.716   3.424 -0.3693  0.4112 -0.0916
   45MOL   C31214480   7.090   1.917   3.291  0.0275  0.3619 -0.2025
   45MOL   C31314481   7.155   1.994   3.188  0.1586  0.1239  0.1043
   45MOL   C31414482   7.506   2.028   3.009  0.2776  0.1676  0.4782
   45MOL   H31514483   7.331   2.143   3.066 -0.7681 -0.0522  0.8462
   45MOL   H31614484   7.463   1.831   3.208 -0.1807  0.9385  1.2317
   45MOL   H31714485   7.335   1.690   3.353 -2.3760 -1.6015 -0.2894
   45MOL   H31814486   6.987   1.945   3.311 -0.2708 -1.0502  0.2787
   45MOL   H31914487   7.091   2.065   3.137  2.6914  0.7559 -2.3315
   45MOL   H32014488   7.547   2.085   2.925 -1.6779 -1.4155 -1.6001
   45MOL   H32114489   7.558   2.074   3.093  0.4067  3.6611 -1.3806
   45MOL   H32214490   7.535   1.923   3.006 -0.3842 -0.0502  1.6754
   46MOL     C114491   7.857   3.812   3.313 -0.9142 -0.7857  0.9931
   46MOL     C214492   7.991   3.863   3.278 -0.9069 -0.3210  0.3611
   46MOL     C314493   8.047   3.823   3.152 -0.0127 -0.2261  0.1582
   46MOL     C414494   8.159   3.885   3.098 -0.1415  0.7576  0.0952
   46MOL     C514495   8.219   3.984   3.177 -0.2201  0.6199 -0.4601
   46MOL     F614496   0.095   4.049   3.129  0.4288 -0.3037  0.0281
   46MOL     C714497   8.170   4.028   3.297  0.4816  0.5514  0.1657
   46MOL     C814498   8.048   3.969   3.351 -0.5705  0.3216  0.8351
   46MOL     C914499   7.849   3.663   3.338  0.4704 -0.4108  0.0500
   46MOL    H1014500   7.782   3.842   3.241  1.7979 -0.8964 -1.9876
   46MOL    H1114501   7.998   3.745   3.095  0.3397  0.7296 -1.4682
   46MOL    H1214502   8.190   3.863   2.998 -1.8180 -1.5521  0.0335
   46MOL    H1314503   8.223   4.106   3.350 -0.6859  2.1038 -0.9182
   46MOL    H1414504   8.001   4.016   3.436  2.6390  0.0425  2.8644
   46MOL    H1514505   7.744   3.648   3.362  1.1525 -1.3934  2.4989
   46MOL    H1614506   7.861   3.618   3.239  0.6417 -0.7598  0.2292
   46MOL    H1714507   7.833   3.870   3.402 -1.0753  1.2115 -0.3305
   46MOL    C1814508   7.938   3.611   3.455  0.5307  0.6318 -0.4022
   46MOL    C1914509   7.915   3.692   3.583  0.6186  0.6444  0.2169
   46MOL    C2014510   8.015   3.773   3.630  0.2253 -0.6103 -0.1173
   46MOL    C2114511   7.985   3.870   3.729  0.0439  0.3473  0.0086
   46MOL    C2214512   7.856   3.877   3.790 -0.1513 -0.4108  0.1160
   46MOL    F2314513   7.826   3.969   3.895 -0.5011  0.2347 -0.5243
   46MOL    C2414514   7.756   3.788   3.741 -0.4387 -0.6459  0.4204
   46MOL    C2514515   7.783   3.692   3.637  0.8163  0.1384  0.6016
   46MOL    C2614516   7.917   3.458   3.483  0.2167 -0.8468  1.0728
   46MOL    H2714517   8.040   3.631   3.421  0.9303 -0.4219  0.1707
   46MOL    H2814518   8.111   3.780   3.581  0.7191 -0.1959  0.8995
   46MOL    H2914519   8.062   3.934   3.770 -1.5515  1.6334  1.0633
   46MOL    H3014520   7.652   3.785   3.772 -0.3108 -0.0430  0.9224
   46MOL    H3114521   7.713   3.623   3.594  0.1609  0.2449  1.4844
   46MOL    H3214522   7.819   3.436   3.525 -0.3676 -0.3276  0.0103
   46MOL    H3314523   7.912   3.413   3.384  0.0048  1.9910 -0.2746
   46MOL    C3414524   8.040   3.389   3.552  0.3872  0.2838  0.3500
   46MOL    C3514525   8.069   3.459   3.681 -0.8254 -0.0215  0.5387
   46MOL    C3614526   8.198   3.511   3.708  0.1144  0.3435  0.1296
   46MOL    C3714527   0.007   3.552   3.839 -0.3559 -0.4186 -0.1586
   46MOL    C3814528   8.139   3.556   3.939 -0.2771  0.2880 -0.1992
   46MOL    F3914529   8.160   3.604   4.062  0.0521 -0.3493 -0.4173
   46MOL    C4014530   8.005   3.504   3.911  0.1156 -0.6687 -0.5159
   46MOL    C4114531   7.976   3.454   3.786  0.4699  0.3228  0.3599
   46MOL    C4214532   8.017   3.237   3.575 -0.0353  0.3579 -0.0203
   46MOL    H4314533   8.131   3.394   3.492  0.7029  1.0824  0.8776
   46MOL    H4414534   0.039   3.522   3.632  0.5551 -2.4046  0.0905
   46MOL    H4514535   0.102   3.602   3.851  1.0468 -2.6030 -1.6797
   46MOL    H4614536   7.935   3.502   3.994  0.8267 -1.8826  0.0724
   46MOL    H4714537   7.883   3.401   3.772  0.4553  0.7659 -1.3739
   46MOL    H4814538   8.006   3.218   3.681  2.1612  1.2975  0.4064
   46MOL    H4914539   7.924   3.208   3.526  1.0892 -0.0784 -1.9603
   46MOL    C5014540   8.123   3.135   3.531  0.0010 -0.2837 -0.2843
   46MOL    C5114541   8.111   2.997   3.599 -0.1134 -0.3759  0.5513
   46MOL    C5214542   8.226   2.933   3.650 -0.4118 -0.3245  0.3882
   46MOL    C5314543   8.218   2.805   3.706  0.3912 -0.6638  0.8199
   46MOL    C5414544   8.094   2.741   3.709  0.3915 -0.3080 -0.1353
   46MOL    F5514545   8.088   2.622   3.766  0.1034 -0.2457 -0.3196
   46MOL    C5614546   7.977   2.810   3.664  0.0787  0.7412 -1.0940
   46MOL    C5714547   7.981   2.939   3.618  0.0208 -0.4367  0.3352
   46MOL    C5814548   8.137   3.140   3.377  0.0981 -0.0112  0.6570
   46MOL    H5914549   8.213   3.184   3.570 -0.0217 -0.1108 -0.4490
   46MOL    H6014550   0.089   2.977   3.632 -0.8612  0.2367 -0.7441
   46MOL    H6114551   0.076   2.757   3.734 -0.1278 -1.3221  1.4158
   46MOL    H6214552   7.884   2.755   3.668  1.4515 -1.6911 -1.3344
   46MOL    H6314553   7.889   2.988   3.587 -1.3624 -3.7430 -1.0360
   46MOL    H6414554   8.125   3.036   3.348  3.1172 -0.8834  2.3588
   46MOL    H6514555   8.049   3.190   3.336  0.8219 -0.0295 -0.9741
   46MOL    C6614556   0.032   3.201   3.310  0.6574 -0.4854  0.2041
   46MOL    C6714557   0.153   3.129   3.365  0.6671 -0.1881  0.8106
   46MOL    C6814558   0.239   3.186   3.461  0.1858  0.4788  0.1110
   46MOL    C6914559   0.351   3.119   3.498 -0.0862 -1.3102  0.8470
   46MOL    C7014560   0.382   2.991   3.443 -0.2988  0.2221  0.2249
   46MOL    F7114561   0.494   2.922   3.482 -0.2552 -0.1980 -0.1478
   46MOL    C7214562   0.300   2.936   3.343  0.1391 -0.1760 -0.8015
   46MOL    C7314563   0.180   3.007   3.309  0.1535 -0.2719  0.6887
   46MOL    C7414564   0.011   3.215   3.154  0.1907  0.0499 -0.6104
   46MOL    H7514565   0.038   3.306   3.338 -0.9449 -0.2009 -0.4703
   46MOL    H7614566   0.219   3.282   3.507  2.7790  1.7976 -1.4054
   46MOL    H7714567   0.409   3.163   3.579 -1.2378 -0.4390  1.2043
   46MOL    H7814568   0.332   2.842   3.302 -1.8538 -1.6529  0.9390
   46MOL    H7914569   0.115   2.956   3.240 -0.4432  0.9797  0.3300
   46MOL    H8014570   0.032   3.119   3.106  3.7174  0.9152 -0.9618
   46MOL    H8114571   8.144   3.245   3.131  0.2673  0.1740 -0.7920
   46MOL    C8214572   0.097   3.318   3.076  0.6435  0.2022 -0.3742
   46MOL    C8314573   0.090   3.302   2.923 -0.2068  1.1159  0.5609
   46MOL    C8414574   8.202   3.271   2.856 -0.2420  0.0480  0.1063
   46MOL    C8514575   8.209   3.232   2.723 -0.1867  0.1195 -0.1759
   46MOL    C8614576   0.099   3.233   2.650  0.3682  0.4656 -0.2812
   46MOL    F8714577   0.092   3.200   2.517  0.3429 -0.5310  0.1790
   46MOL    C8814578   0.213   3.277   2.711 -1.1764  0.1928 -0.1075
   46MOL    C8914579   0.210   3.311   2.848 -0.2598 -0.3013 -0.0746
   46MOL    C9014580   0.086   3.464   3.141  0.6970 -0.2016  0.2351
   46MOL    H9114581   0.201   3.296   3.101  1.2707  2.7945 -0.5417
   46MOL    H9214582   8.103   3.285   2.896  0.4644  2.6110  1.0420
   46MOL    H9314583   8.113   3.208   2.679 -0.4878  0.0957  0.4974
   46MOL    H9414584   0.304   3.277   2.651  0.1469  0.2595  1.8543
   46MOL    H9514585   0.298   3.336   2.907  0.7361  0.2579 -1.7522
   46MOL    H9614586   0.069   3.548   3.073  1.7716 -0.7770 -0.7501
   46MOL    H9714587   0.003   3.485   3.209  3.2843  1.6709  2.9750
   46MOL    C9814588   0.217   3.505   3.217 -0.4161  0.4872 -0.1800
   46MOL    C9914589   0.329   3.542   3.114 -0.9314  0.0217  1.1545
   46MOL   C10014590   0.447   3.461   3.105 -0.1465 -0.1824  0.3635
   46MOL   C10114591   0.561   3.497   3.036 -0.3113  0.0888  0.8994
   46MOL   C10214592   0.562   3.614   2.963 -0.1045  0.2175 -0.2139
   46MOL   F10314593   0.672   3.654   2.897 -0.4664  0.1952  0.0035
   46MOL   C10414594   0.442   3.693   2.961 -1.1286  0.2808  0.4302
   46MOL   C10514595   0.327   3.659   3.032  0.0631  0.0647 -0.0083
   46MOL   C10614596   0.187   3.624   3.311  0.0967  0.3047 -0.8406
   46MOL   H10714597   0.243   3.421   3.281 -2.4730  0.8016  1.1270
   46MOL   H10814598   0.459   3.374   3.167  0.2950 -0.0949  0.4000
   46MOL   H10914599   0.645   3.430   3.048  0.9649  1.5153  0.0043
   46MOL   H11014600   0.437   3.779   2.896 -1.0890  1.7248  2.3219
   46MOL   H11114601   0.237   3.718   3.026 -0.2218 -0.5667 -2.4198
   46MOL   H11214602   0.145   3.703   3.250  2.7537  2.4495 -0.0334
   46MOL   H11314603   0.111   3.594   3.383 -1.2599  0.4088 -2.2051
   46MOL   C11414604   0.306   3.665   3.396  0.3714 -0.1211 -0.2385
   46MOL   C11514605   0.288   3.792   3.472  0.2469  0.3049  0.1654
   46MOL   C11614606   0.247   3.803   3.606  0.9893 -0.2317 -0.0529
   46MOL   C11714607   0.209   3.924   3.661 -0.6811 -0.0450 -0.1611
   46MOL   C11814608   0.219   4.040   3.580 -0.2882 -0.7132 -0.2622
   46MOL   F11914609   0.174   4.156   3.626 -0.3316 -0.3493 -0.2115
   46MOL   C12014610   0.265   4.036   3.447  0.7661 -0.4384 -0.5878
   46MOL   C12114611   0.293   3.911   3.393 -0.1843  0.6934  0.1335
   46MOL   C12214612   0.379   3.561   3.474  0.5017  0.3456 -0.1439
   46MOL   H12314613   0.376   3.692   3.318 -1.0540  0.4650 -1.3396
   46MOL   H12414614   0.238   3.719   3.674  2.1058 -0.4278 -0.1360
   46MOL   H12514615   0.176   3.943   3.762  1.7842 -2.4269  1.1538
   46MOL   H12614616   0.252   4.125   3.387  0.7142  0.3186  0.5250
   46MOL   H12714617   0.303   3.894   3.287 -1.9880  0.8277 -0.0789
   46MOL   H12814618   0.310   3.544   3.557 -0.4029  2.0946 -0.5278
   46MOL   H12914619   0.370   3.463   3.427  0.7760 -0.1377  0.7963
   46MOL   C13014620   0.521   3.601   3.515  0.4011 -1.1550 -0.0114
   46MOL   C13114621   0.560   3.507   3.632  0.1583 -0.5605  0.0575
   46MOL   C13214622   0.600   3.375   3.604  0.0229 -0.0111  0.1009
   46MOL   C13314623   0.651   3.300   3.706  0.2782  1.2465  0.0798
   46MOL   C13414624   0.657   3.356   3.837 -0.4725 -0.5738  0.0504
   46MOL   F13514625   0.707   3.278   3.936 -0.1057  0.0191 -0.2021
   46MOL   C13614626   0.605   3.484   3.868 -0.7176  0.1679  0.0496
   46MOL   C13714627   0.550   3.563   3.763 -1.0178 -0.2745  0.2999
   46MOL   C13814628   0.621   3.579   3.399  0.1110 -0.2193  0.3629
   46MOL   H13914629   0.515   3.707   3.542  0.2013 -0.8979 -1.0345
   46MOL   H14014630   0.613   3.342   3.502 -0.5794  0.4315 -0.1177
   46MOL   H14114631   0.693   3.205   3.677 -4.0769 -0.0113 -2.5640
   46MOL   H14214632   0.602   3.519   3.970  0.3546 -0.0853  0.1718
   46MOL   H14314633   0.503   3.658   3.785 -1.7405 -1.1453  2.6480
   46MOL   H14414634   0.596   3.490   3.341 -0.0906  1.2882 -1.9123
   46MOL   H14514635   0.610   3.665   3.334 -1.5201  1.9590  3.3989
   46MOL   C14614636   0.775   3.579   3.424 -0.0377 -0.1453  0.6741
   46MOL   C14714637   0.853   3.542   3.298 -0.1073  0.1434  0.0592
   46MOL   C14814638   0.924   3.418   3.299 -0.4902 -0.3401  0.2796
   46MOL   C14914639   1.008   3.392   3.186  0.7137  0.4368 -0.5741
   46MOL   C15014640   1.022   3.486   3.079 -0.1415  0.4331 -0.9750
   46MOL   F15114641   1.093   3.452   2.970 -0.4322  0.7805 -0.6093
   46MOL   C15214642   0.956   3.608   3.086  0.1251 -0.2147 -0.3333
   46MOL   C15314643   0.868   3.633   3.191  0.0385 -0.0145 -0.6600
   46MOL   C15414644   0.826   3.718   3.469 -0.1671  0.1650 -0.3862
   46MOL   H15514645   0.783   3.500   3.499 -0.3727 -0.5182  0.3182
   46MOL   H15614646   0.903   3.346   3.376 -0.0458 -0.3407  0.4013
   46MOL   H15714647   1.061   3.299   3.176  1.6055  1.0240 -1.3545
   46MOL   H15814648   0.962   3.672   2.999 -0.2950  1.0633  0.5531
   46MOL   H15914649   0.817   3.728   3.184  1.3970  1.0160  2.6377
   46MOL   H16014650   0.828   3.787   3.384 -0.5926 -0.4650 -0.9194
   46MOL   H16114651   0.768   3.772   3.543  0.5765 -0.5557  0.7381
   46MOL   C16214652   0.973   3.710   3.518 -0.3610 -0.0435  0.8651
   46MOL   C16314653   1.050   3.830   3.470  0.4782 -0.3936  0.2139
   46MOL   C16414654   1.007   3.963   3.484 -0.0790 -0.4158 -0.5266
   46MOL   C16514655   1.085   4.077   3.449 -0.1204 -0.3802 -0.6700
   46MOL   C16614656   1.208   4.059   3.380  0.3951  0.6512  0.0937
   46MOL   F16714657   1.281   4.158   3.330 -0.1308  0.1656  0.4544
   46MOL   C16814658   1.253   3.925   3.362 -0.2498 -0.0937  0.3233
   46MOL   C16914659   1.170   3.816   3.402  0.5330 -0.2558 -0.4372
   46MOL   C17014660   0.970   3.692   3.665  0.3635 -0.6288 -1.0327
   46MOL   H17114661   1.022   3.630   3.463 -1.7608 -0.2640 -0.0997
   46MOL   H17214662   0.926   3.986   3.551  0.8285 -0.4424  0.6043
   46MOL   H17314663   1.051   4.172   3.487 -0.3631 -1.3022  1.4839
   46MOL   H17414664   1.341   3.888   3.311 -0.2880 -0.7745  0.7327
   46MOL   H17514665   1.204   3.715   3.386 -0.6741 -0.6871 -0.2919
   46MOL   H17614666   0.951   3.784   3.721  0.9122 -0.4960 -1.0635
   46MOL   H17714667   0.876   3.638   3.681  0.8547 -0.8140  1.4183
   46MOL   C17814668   1.097   3.627   3.718  0.3147  0.5151 -0.0424
   46MOL   C17914669   1.212   3.722   3.734  0.3048  0.5874  0.2911
   46MOL   C18014670   1.197   3.846   3.809 -0.7520 -0.0216  0.3465
   46MOL   C18114671   1.310   3.924   3.840 -0.1095 -0.1255  0.0641
   46MOL   C18214672   1.438   3.873   3.802  0.9584  0.1846 -0.8003
   46MOL   F18314673   1.552   3.931   3.830 -0.4314 -0.4209 -0.0934
   46MOL   C18414674   1.449   3.759   3.725 -0.0378  0.2064  0.0155
   46MOL   C18514675   1.339   3.683   3.685  0.0786  0.0475 -0.6469
   46MOL   C18614676   1.076   3.546   3.841  0.6915  0.4808  0.2309
   46MOL   H18714677   1.135   3.559   3.641 -0.8606  1.9433 -1.9403
   46MOL   H18814678   1.100   3.873   3.850 -0.2584  0.9108  0.9106
   46MOL   H18914679   1.299   4.015   3.899  0.9750  0.1583 -0.1454
   46MOL   H19014680   1.548   3.729   3.695 -0.2395 -0.2411 -0.2175
   46MOL   H19114681   1.357   3.594   3.626 -0.0417 -0.8686  0.6885
   46MOL   H19214682   1.104   3.615   3.920 -0.1014  2.2128 -0.9625
   46MOL   H19314683   0.972   3.519   3.863  0.0805  1.0717 -1.8050
   46MOL   C19414684   1.162   3.421   3.847  0.7262  0.7962  0.6890
   46MOL   C19514685   1.179   3.366   3.983 -0.8395 -0.2141  0.6684
   46MOL   C19614686   1.068   3.325   4.059 -0.0004 -0.0843  0.0329
   46MOL   C19714687   1.076   3.293   4.193  0.8691  0.2446 -0.1137
   46MOL   C19814688   1.195   3.307   4.261  0.5829  0.9276  0.3435
   46MOL   F19914689   1.200   3.298   4.395 -0.0556  0.2775 -0.0997
   46MOL   C20014690   1.317   3.326   4.188  0.4250 -0.2844  0.1436
   46MOL   C20114691   1.306   3.361   4.049 -0.1076  0.5349 -0.7332
   46MOL   C20214692   1.101   3.319   3.741  1.0400  0.1120 -0.5436
   46MOL   H20314693   1.262   3.449   3.815 -0.1044  0.9257 -2.0057
   46MOL   H20414694   0.975   3.313   4.007  1.1460 -2.3775 -1.5874
   46MOL   H20514695   0.990   3.249   4.240  2.1176 -2.7886 -0.5750
   46MOL   H20614696   1.409   3.315   4.242 -0.5305 -0.2917  1.7957
   46MOL   H20714697   1.392   3.399   3.996  0.6978 -0.7528 -0.3612
   46MOL   H20814698   1.014   3.261   3.769  0.7592  0.0231 -1.5776
   46MOL   H20914699   1.065   3.375   3.654  1.6386  1.7372  0.2278
   46MOL   C21014700   1.197   3.207   3.697 -0.4494  0.3996 -0.3853
   46MOL   C21114701   1.322   3.272   3.631 -0.2987  0.2082  0.2653
   46MOL   C21214702   1.454   3.276   3.689 -0.2136  0.2288 -0.1746
   46MOL   C21314703   1.554   3.349   3.619  0.0529 -0.2063 -0.0276
   46MOL   C21414704   1.526   3.418   3.494 -0.3874 -0.0863 -0.2382
   46MOL   F21514705   1.619   3.461   3.409 -0.3608  0.2103  0.3716
   46MOL   C21614706   1.400   3.408   3.442  0.1824 -0.2151 -0.7215
   46MOL   C21714707   1.292   3.339   3.505 -0.8271 -0.4871  0.0659
   46MOL   C21814708   1.221   3.091   3.793  0.0880 -0.3267 -0.8864
   46MOL   H21914709   1.153   3.169   3.605 -1.7438  1.9129 -0.4039
   46MOL   H22014710   1.487   3.238   3.784 -0.3377 -1.5485 -0.8213
   46MOL   H22114711   1.649   3.359   3.669  0.0155  0.5624 -0.1039
   46MOL   H22214712   1.396   3.460   3.347  2.1704  0.3283 -0.5259
   46MOL   H22314713   1.195   3.335   3.457 -1.0055  2.3792  0.0507
   46MOL   H22414714   1.287   3.020   3.742 -0.4836 -2.0505  0.6800
   46MOL   H22514715   1.273   3.128   3.882  1.8916 -1.7296 -1.3271
   46MOL   C22614716   1.097   3.004   3.832 -1.4559  0.4220 -0.0722
   46MOL   C22714717   1.002   2.956   3.721 -0.4277  0.5851  0.4346
   46MOL   C22814718   0.860   2.962   3.728 -0.2614  0.2592  0.4697
   46MOL   C22914719   0.782   2.938   3.613 -0.2289  0.4799  0.3524
   46MOL   C23014720   0.847   2.887   3.497 -0.2934 -0.3309 -0.6896
   46MOL   F23114721   0.776   2.862   3.389 -0.2562  0.1264  0.4035
   46MOL   C23214722   0.988   2.868   3.496 -0.4354  0.1791 -0.2035
   46MOL   C23314723   1.064   2.900   3.607  0.1021 -0.1327 -0.1092
   46MOL   C23414724   1.125   2.884   3.922  0.1618  0.6713  0.1340
   46MOL   H23514725   1.019   3.055   3.889 -1.0483 -1.3448  2.1435
   46MOL   H23614726   0.804   3.003   3.810  1.4588  0.0013  1.8093
   46MOL   H23714727   0.674   2.928   3.619 -0.2797  1.1114  0.4820
   46MOL   H23814728   1.037   2.818   3.413  1.4854 -0.3864  1.2180
   46MOL   H23914729   1.170   2.884   3.594 -0.4318 -2.9334 -1.5235
   46MOL   H24014730   1.129   2.916   4.026 -0.0964  0.7465  0.1215
   46MOL   H24114731   1.031   2.828   3.927 -0.2763  1.5159  1.8741
   46MOL   C24214732   1.247   2.793   3.890 -0.4946 -0.2568  0.3747
   46MOL   C24314733   1.378   2.858   3.942  0.7294 -0.2683 -0.0157
   46MOL   C24414734   1.486   2.889   3.852  0.4429  0.0064 -0.0451
   46MOL   C24514735   1.594   2.953   3.910  0.6144  0.3388  0.0388
   46MOL   C24614736   1.597   2.979   4.047  0.8363 -0.0837 -0.2662
   46MOL   F24714737   1.706   3.039   4.102  0.1106  0.1666 -0.1902
   46MOL   C24814738   1.490   2.956   4.136 -0.0214  0.2214  0.3767
   46MOL   C24914739   1.379   2.890   4.083  0.4095 -0.0038  0.6647
   46MOL   C25014740   1.248   2.648   3.949 -0.3060  0.4635  0.1021
   46MOL   H25114741   1.262   2.778   3.783 -0.8790  0.8403  0.1626
   46MOL   H25214742   1.482   2.864   3.747 -3.1915  1.5312 -0.3580
   46MOL   H25314743   1.679   2.981   3.850  1.9107 -0.8442  1.2949
   46MOL   H25414744   1.483   2.990   4.238 -0.4207  1.0878  0.0610
   46MOL   H25514745   1.299   2.855   4.146  0.4058  0.8647  1.1388
   46MOL   H25614746   1.350   2.617   3.976 -1.6718 -0.7149  4.3187
   46MOL   H25714747   1.197   2.645   4.045 -0.1324  2.4201  0.2660
   46MOL   C25814748   1.188   2.540   3.852 -0.0196  0.2357 -0.1837
   46MOL   C25914749   1.212   2.401   3.905 -0.6430  0.2421 -0.7257
   46MOL   C26014750   1.306   2.320   3.840  0.1816 -0.4723 -0.4509
   46MOL   C26114751   1.334   2.191   3.889 -0.3330 -0.6179 -0.7940
   46MOL   C26214752   1.272   2.147   4.007 -0.1069 -0.0884  0.6503
   46MOL   F26314753   1.286   2.024   4.056  0.6112  0.5234 -0.3913
   46MOL   C26414754   1.178   2.225   4.067  0.7602  0.7438  0.3219
   46MOL   C26514755   1.143   2.353   4.019 -0.1945 -0.9347 -0.4845
   46MOL   C26614756   1.033   2.555   3.833  0.4022 -0.1016  0.1289
   46MOL   H26714757   1.223   2.556   3.749 -2.0449  0.1922 -0.8955
   46MOL   H26814758   1.365   2.361   3.759 -1.7430 -0.1682 -1.7191
   46MOL   H26914759   1.406   2.125   3.841 -0.3087  0.0608 -1.6969
   46MOL   H27014760   1.123   2.196   4.155 -1.8220 -0.2966 -1.5569
   46MOL   H27114761   1.074   2.407   4.081 -0.6942  0.3324 -2.1333
   46MOL   H27214762   0.987   2.525   3.927 -0.3285  0.7910  0.0596
   46MOL   H27314763   1.003   2.659   3.818 -0.5822 -0.3929 -0.0037
   46MOL   C27414764   0.967   2.473   3.715  1.0945  0.3015  0.2337
   46MOL   C27514765   0.809   2.488   3.718  0.3401  0.0206  0.3332
   46MOL   C27614766   0.728   2.373   3.725  0.3638  0.0238  0.1418
   46MOL   C27714767   0.584   2.392   3.717  0.1234 -0.1982  0.9835
   46MOL   C27814768   0.523   2.518   3.706 -0.1882  0.3612 -0.1382
   46MOL   F27914769   0.392   2.528   3.680 -0.2650 -0.8830 -0.1519
   46MOL   C28014770   0.612   2.626   3.699  0.2471 -0.6000 -0.4641
   46MOL   C28114771   0.752   2.614   3.716 -0.7280 -0.7261 -0.4197
   46MOL   C28214772   1.023   2.492   3.566 -0.0279  0.2758 -0.7316
   46MOL   H28314773   0.990   2.370   3.742  0.9566  0.3271  0.4506
   46MOL   H28414774   0.776   2.277   3.730  1.0467  0.4222  1.3785
   46MOL   H28514775   0.518   2.306   3.722  2.0017 -1.8295 -1.4676
   46MOL   H28614776   0.563   2.722   3.689  1.5137  0.3632  2.0481
   46MOL   H28714777   0.805   2.707   3.699  1.3172 -1.6928  0.5189
   46MOL   H28814778   1.036   2.597   3.540 -2.2271  1.3808  2.2904
   46MOL   H28914779   1.125   2.460   3.547  0.5654  1.3127  0.6405
   46MOL   C29014780   0.947   2.422   3.451  0.6629 -0.1970  0.5850
   46MOL   C29114781   0.958   2.508   3.326  0.6125  0.6145 -0.0616
   46MOL   C29214782   0.853   2.585   3.279 -0.2461  0.2268  0.0633
   46MOL   C29314783   0.871   2.676   3.172 -0.2669  0.4203  0.0249
   46MOL   C29414784   0.991   2.677   3.099  0.1097  0.4557 -0.1305
   46MOL   F29514785   1.002   2.756   2.998 -0.2783 -0.1089  0.0086
   46MOL   C29614786   1.097   2.592   3.143  0.5747 -0.0740 -0.1784
   46MOL   C29714787   1.081   2.509   3.257 -0.0603 -0.5531 -0.4254
   46MOL   C29814788   0.975   2.270   3.427  0.8891 -0.3937  0.0871
   46MOL   H29914789   0.840   2.421   3.472 -0.0936  0.0074 -3.0364
   46MOL   H30014790   0.757   2.576   3.329  0.0950  1.8161  1.0364
   46MOL   H30114791   0.800   2.747   3.132  0.2598 -0.5940 -2.7880
   46MOL   H30214792   1.188   2.597   3.085  0.3546 -0.6289 -0.5786
   46MOL   H30314793   1.175   2.468   3.289  1.2143  2.4665 -0.0830
   46MOL   H30414794   1.076   2.258   3.389  0.6397 -1.9265 -0.1318
   46MOL   H30514795   0.982   2.231   3.528  1.6237 -0.9218 -0.1675
   46MOL   C30614796   0.872   2.197   3.343 -0.2676 -0.4222  0.1542
   46MOL   C30714797   0.900   2.204   3.194  0.4973  0.2917 -0.1277
   46MOL   C30814798   1.022   2.149   3.144 -0.1195 -0.4586 -0.3718
   46MOL   C30914799   1.046   2.139   3.005 -1.3140  0.3864  0.6288
   46MOL   C31014800   0.952   2.181   2.913  0.3422  0.4578  0.0336
   46MOL   F31114801   0.972   2.160   2.781 -0.7718  0.1110 -0.5790
   46MOL   C31214802   0.833   2.240   2.963  0.2147 -0.3789 -0.3604
   46MOL   C31314803   0.802   2.246   3.101  0.2778  0.4972  0.2762
   46MOL   C31414804   0.851   2.055   3.383 -0.1279  0.2952 -0.4249
   46MOL   H31514805   0.777   2.251   3.344  0.9273  1.7231  2.7741
   46MOL   H31614806   1.099   2.121   3.215 -0.8500 -0.8903  0.2672
   46MOL   H31714807   1.143   2.100   2.981 -2.0886 -0.8723 -0.5316
   46MOL   H31814808   0.756   2.275   2.896 -0.5903 -1.8496 -0.2298
   46MOL   H31914809   0.704   2.281   3.130  0.1915  1.0760 -0.6928
   46MOL   H32014810   0.788   2.051   3.471  1.8979 -2.3998  1.0088
   46MOL   H32114811   0.800   1.998   3.306 -0.5086  0.2738 -0.1597
   46MOL   H32214812   0.945   2.001   3.395 -0.0427  0.7841  1.2806
   47MOL     C114813   7.189   6.527   7.712  0.3837  0.0225  0.2316
   47MOL     C214814   7.069   6.536   7.808 -0.4677 -0.1515 -0.1233
   47MOL     C314815   7.014   6.418   7.854 -0.4538 -0.3223 -0.1826
   47MOL     C414816   6.910   6.418   7.952 -0.3782  0.2057  0.6735
   47MOL     C514817   6.859   6.539   8.003  0.7073  0.8196  0.1892
   47MOL     F614818   6.765   6.540   8.097 -0.0890 -0.1281 -0.7180
   47MOL     C714819   6.909   6.660   7.953  0.7760 -0.2033  1.0783
   47MOL     C814820   7.011   6.660   7.848 -0.5175  0.3520  0.5948
   47MOL     C914821   7.312   6.468   7.788  0.2564 -0.3492  0.5050
   47MOL    H1014822   7.212   6.628   7.677  0.9202  0.0735  0.7254
   47MOL    H1114823   7.048   6.323   7.814  0.8823 -0.7974  1.9756
   47MOL    H1214824   6.862   6.324   7.977 -1.8121 -0.0910 -2.8842
   47MOL    H1314825   6.867   6.753   7.988 -1.7712 -0.9697  0.2113
   47MOL    H1414826   7.053   6.750   7.806  1.1421 -0.3861  0.6462
   47MOL    H1514827   7.319   6.540   7.869  0.0612  0.0276  0.1915
   47MOL    H1614828   7.290   6.370   7.830 -0.1328 -0.9616 -1.0933
   47MOL    H1714829   7.144   6.473   7.629 -0.0026  1.3281 -0.4291
   47MOL    C1814830   7.427   6.463   7.691 -0.2812  0.2559  0.3285
   47MOL    C1914831   7.461   6.605   7.648  0.1061 -0.2075  0.6334
   47MOL    C2014832   7.464   6.639   7.514  0.5844 -0.2841  0.6946
   47MOL    C2114833   7.509   6.763   7.471  0.8712 -0.2176 -0.1797
   47MOL    C2214834   7.552   6.858   7.560  0.0132 -0.1105 -0.2024
   47MOL    F2314835   7.605   6.976   7.521 -0.3577 -0.1559 -0.1722
   47MOL    C2414836   7.536   6.828   7.699 -0.1312 -0.0193 -0.2853
   47MOL    C2514837   7.494   6.705   7.743 -0.0177 -0.0773  0.2728
   47MOL    C2614838   7.546   6.384   7.742 -1.1458  0.0820 -0.1946
   47MOL    H2714839   7.400   6.414   7.598 -2.3664  2.0013 -0.0088
   47MOL    H2814840   7.437   6.561   7.443  1.4979 -1.4833  1.6399
   47MOL    H2914841   7.526   6.768   7.364  1.6634 -0.7873 -0.0836
   47MOL    H3014842   7.562   6.905   7.770  0.6226 -1.2758  0.8204
   47MOL    H3114843   7.482   6.682   7.847  3.7713 -2.0562  0.3802
   47MOL    H3214844   7.595   6.441   7.820  1.7177  0.4008 -2.1605
   47MOL    H3314845   7.510   6.294   7.791 -1.8869 -0.9173 -2.4846
   47MOL    C3414846   7.644   6.325   7.638  0.0239 -0.3007 -0.2762
   47MOL    C3514847   7.751   6.431   7.605 -0.0235 -0.5170  0.4031
   47MOL    C3614848   7.767   6.461   7.466 -0.3392  0.4207 -0.0031
   47MOL    C3714849   7.868   6.552   7.423  0.0328  0.1046  0.4604
   47MOL    C3814850   7.962   6.597   7.511 -0.5032 -0.5891  0.5396
   47MOL    F3914851   8.067   6.671   7.470 -0.1627  0.1396  0.7704
   47MOL    C4014852   7.944   6.563   7.646  0.3994 -0.3081  0.0058
   47MOL    C4114853   7.849   6.481   7.693  0.8187 -0.2456  0.0611
   47MOL    C4214854   7.704   6.197   7.710 -0.2965 -0.1803 -0.7641
   47MOL    H4314855   7.598   6.305   7.542 -0.0728  0.0177 -0.2969
   47MOL    H4414856   7.708   6.426   7.383  0.5096 -0.2013 -0.3549
   47MOL    H4514857   7.871   6.552   7.315  0.7812  0.8285  0.4762
   47MOL    H4614858   8.009   6.595   7.727 -1.1864 -0.0524  1.2063
   47MOL    H4714859   7.851   6.466   7.800  3.2867 -1.6111 -0.1522
   47MOL    H4814860   7.736   6.220   7.812 -3.7338 -0.8123  0.5204
   47MOL    H4914861   7.621   6.127   7.723  0.1747 -0.3900  1.2621
   47MOL    C5014862   7.802   6.120   7.626 -0.8111  0.2523  0.4055
   47MOL    C5114863   7.882   6.031   7.725 -0.3267  0.1960  0.7462
   47MOL    C5214864   7.982   6.092   7.799 -0.5464  0.2982  0.9236
   47MOL    C5314865   8.052   6.018   7.899 -0.6401 -0.6971  0.0633
   47MOL    C5414866   8.013   5.879   7.921 -0.0480 -0.0850  0.1082
   47MOL    F5514867   8.062   5.811   8.027 -0.3097 -0.1738  0.1431
   47MOL    C5614868   7.916   5.822   7.835 -0.5556  0.0371 -0.4839
   47MOL    C5714869   7.846   5.897   7.740  0.0984  0.1466 -0.4884
   47MOL    C5814870   7.741   6.042   7.511  0.7635  0.2183 -0.1135
   47MOL    H5914871   7.880   6.187   7.590  0.3020 -1.2780 -0.0841
   47MOL    H6014872   8.012   6.196   7.788 -2.6644  0.8385  0.0304
   47MOL    H6114873   8.128   6.064   7.960 -0.0665 -0.9716 -0.4331
   47MOL    H6214874   7.889   5.720   7.855 -2.1479  1.0896  3.2574
   47MOL    H6314875   7.761   5.855   7.688  0.3888 -0.8744 -0.1518
   47MOL    H6414876   7.669   5.967   7.544  1.0928 -0.3569 -0.6710
   47MOL    H6514877   7.669   6.111   7.468 -1.1885 -1.1415  0.9127
   47MOL    C6614878   7.844   5.973   7.414  0.1580  0.1157  0.3736
   47MOL    C6714879   7.781   5.853   7.337  0.0797 -0.2403 -0.0531
   47MOL    C6814880   7.684   5.877   7.234 -0.6754 -0.4198  0.0425
   47MOL    C6914881   7.641   5.764   7.151 -0.6033  0.6996 -0.5334
   47MOL    C7014882   7.672   5.632   7.181 -0.5932  0.0123  0.1972
   47MOL    F7114883   7.617   5.524   7.117 -0.1823  0.7905  0.8260
   47MOL    C7214884   7.754   5.613   7.292 -0.3768  0.1679  0.2225
   47MOL    C7314885   7.803   5.723   7.370  0.0668 -0.1746  0.1117
   47MOL    C7414886   7.907   6.079   7.317 -0.1201 -0.4032  0.2025
   47MOL    H7514887   7.927   5.931   7.471  0.2697  2.9668  2.4065
   47MOL    H7614888   7.652   5.976   7.209  0.8918  0.4354  1.2870
   47MOL    H7714889   7.563   5.791   7.080 -1.3343 -0.9034 -0.3661
   47MOL    H7814890   7.796   5.519   7.323  1.2292  0.9803  0.5864
   47MOL    H7914891   7.873   5.699   7.449 -1.0250  2.0425  1.8266
   47MOL    H8014892   7.879   6.055   7.214 -2.6642  0.3148  0.6946
   47MOL    H8114893   7.862   6.176   7.336  2.4014  0.9889 -0.7670
   47MOL    C8214894   8.063   6.101   7.328 -0.1431 -0.1638  0.4938
   47MOL    C8314895   8.112   6.190   7.208  0.2549  0.5304  0.0567
   47MOL    C8414896   8.223   6.155   7.123 -0.5519  0.0932 -0.3571
   47MOL    C8514897   0.029   6.244   7.021 -0.3680  0.5231 -0.2514
   47MOL    C8614898   8.200   6.364   7.005 -0.0808 -0.0470  0.6904
   47MOL    F8714899   0.004   6.452   6.905  0.1966  0.0761 -0.0497
   47MOL    C8814900   8.095   6.403   7.088 -0.5185  0.6068  0.0068
   47MOL    C8914901   8.059   6.322   7.197 -0.4065  0.8040  0.6607
   47MOL    C9014902   8.106   6.154   7.468  0.4932  0.1263  0.2026
   47MOL    H9114903   8.110   6.002   7.325 -0.6239 -0.3927  0.4104
   47MOL    H9214904   0.036   6.059   7.135  0.8846  0.7836 -0.4000
   47MOL    H9314905   0.112   6.227   6.954 -0.8487  0.3002 -0.7932
   47MOL    H9414906   8.030   6.488   7.075 -1.2014 -0.3524 -3.4305
   47MOL    H9514907   7.978   6.357   7.259 -0.2403  3.1786 -0.3932
   47MOL    H9614908   8.046   6.245   7.475  2.6791  1.7996 -2.1584
   47MOL    H9714909   8.088   6.091   7.555  1.3285  1.3735  1.3062
   47MOL    C9814910   0.015   6.191   7.484  0.0214 -0.5073  0.6553
   47MOL    C9914911   0.028   6.288   7.598 -0.1089 -0.3250  1.1673
   47MOL   C10014912   0.009   6.428   7.575  0.3067 -0.1964  0.3757
   47MOL   C10114913   0.014   6.522   7.682  0.0226  0.0684 -0.3942
   47MOL   C10214914   0.013   6.474   7.821  1.0042  0.3722 -0.5431
   47MOL   F10314915   8.232   6.558   7.921 -0.4130 -0.7094  0.0399
   47MOL   C10414916   0.021   6.338   7.845  0.3969 -0.0902  0.6760
   47MOL   C10514917   0.031   6.252   7.733  0.7211  0.3226 -0.4531
   47MOL   C10614918   0.098   6.065   7.500 -0.0739  1.1208 -0.5299
   47MOL   H10714919   0.049   6.244   7.395 -1.3468  1.1898  1.1247
   47MOL   H10814920   0.003   6.465   7.474 -3.1067  0.8317  0.8917
   47MOL   H10914921   0.007   6.629   7.664  1.4132  0.0441 -1.1495
   47MOL   H11014922   0.004   6.308   7.947 -0.7282  2.0621  1.1397
   47MOL   H11114923   0.038   6.147   7.757  0.0540  0.7723  1.7664
   47MOL   H11214924   0.078   6.001   7.586  0.7390  0.2723 -0.9486
   47MOL   H11314925   0.066   5.995   7.422  0.2620 -0.2354  0.5298
   47MOL   C11414926   0.251   6.089   7.490 -0.4232 -0.0455  0.2879
   47MOL   C11514927   0.308   6.100   7.341 -0.2527  0.1047 -0.3634
   47MOL   C11614928   0.364   5.991   7.277  0.9110  0.1598 -0.5683
   47MOL   C11714929   0.413   6.002   7.143 -0.2967 -0.7604 -0.2767
   47MOL   C11814930   0.411   6.130   7.077 -0.1311  0.5858 -0.3382
   47MOL   F11914931   0.450   6.142   6.948 -0.4276 -0.0137  0.2880
   47MOL   C12014932   0.357   6.242   7.148 -0.4516 -0.7533  0.8448
   47MOL   C12114933   0.294   6.220   7.270 -0.1068 -0.1892  0.4424
   47MOL   C12214934   0.315   6.177   7.596 -0.3152 -1.1946 -0.5938
   47MOL   H12314935   0.285   5.989   7.518  1.5213  1.2014  2.5908
   47MOL   H12414936   0.366   5.898   7.332 -1.6148 -1.4313 -3.0498
   47MOL   H12514937   0.467   5.924   7.091  1.3420  1.1081 -1.4347
   47MOL   H12614938   0.347   6.337   7.097 -0.2183 -2.0304 -1.5954
   47MOL   H12714939   0.242   6.298   7.324 -0.8037  0.1797 -0.7538
   47MOL   H12814940   0.288   6.276   7.559 -0.4883 -1.2713 -0.6745
   47MOL   H12914941   0.272   6.154   7.693 -1.5874 -1.8395 -1.3028
   47MOL   C13014942   0.473   6.166   7.611  0.2879 -0.2065 -0.0908
   47MOL   C13114943   0.513   6.026   7.640 -0.3784 -0.1581  0.1079
   47MOL   C13214944   0.490   5.974   7.770  0.0384 -0.2893  0.0255
   47MOL   C13314945   0.513   5.834   7.802 -0.4157 -0.4689  0.2719
   47MOL   C13414946   0.572   5.752   7.698 -0.3702  0.2804 -0.4921
   47MOL   F13514947   0.602   5.625   7.727 -0.2241  0.5454  0.4296
   47MOL   C13614948   0.589   5.800   7.569  0.3532 -0.1098  0.1584
   47MOL   C13714949   0.559   5.937   7.541 -0.0147 -0.5670  0.0505
   47MOL   C13814950   0.557   6.234   7.502  0.0720 -0.5996 -0.0587
   47MOL   H13914951   0.499   6.224   7.699  0.4759  0.0216 -0.2955
   47MOL   H14014952   0.446   6.037   7.845  2.0494  0.3482  0.7056
   47MOL   H14114953   0.505   5.787   7.899 -0.0908 -1.7110 -0.2927
   47MOL   H14214954   0.632   5.732   7.497  0.6546  0.7293 -0.4622
   47MOL   H14314955   0.580   5.980   7.444  0.1048 -0.9142 -0.0781
   47MOL   H14414956   0.664   6.228   7.519  0.5005  1.3932 -1.9095
   47MOL   H14514957   0.544   6.170   7.414 -0.9444 -0.8386  0.2532
   47MOL   C14614958   0.531   6.383   7.467 -0.5846  0.5413 -0.1900
   47MOL   C14714959   0.517   6.466   7.592 -0.4329  0.2313 -0.8156
   47MOL   C14814960   0.627   6.486   7.683  0.7754 -0.3889  0.2580
   47MOL   C14914961   0.614   6.564   7.800 -0.3793 -0.6456  0.4445
   47MOL   C15014962   0.485   6.601   7.835  0.7259 -0.0953 -0.2297
   47MOL   F15114963   0.465   6.677   7.945  0.8036 -0.4530 -0.0675
   47MOL   C15214964   0.376   6.590   7.748 -0.0285 -0.0251 -0.2652
   47MOL   C15314965   0.394   6.524   7.627  0.3216  0.3724  0.5811
   47MOL   C15414966   0.633   6.452   7.375 -0.7819 -0.1634  0.3358
   47MOL   H15514967   0.432   6.400   7.424  0.4482  1.0781 -2.4290
   47MOL   H15614968   0.723   6.442   7.661  1.8106  0.3273  3.0851
   47MOL   H15714969   0.701   6.581   7.863  1.2251  0.0182 -1.8751
   47MOL   H15814970   0.285   6.637   7.781  0.4995 -0.5434  2.0108
   47MOL   H15914971   0.304   6.503   7.571 -0.2187  2.6307  0.5292
   47MOL   H16014972   0.726   6.444   7.432  0.0170 -0.2620 -0.9429
   47MOL   H16114973   0.639   6.397   7.281 -1.2896 -2.4483  1.5867
   47MOL   C16214974   0.603   6.598   7.334  0.1572  0.1097 -0.0832
   47MOL   C16314975   0.727   6.673   7.296  0.6089  0.2162  0.1394
   47MOL   C16414976   0.770   6.779   7.372  0.7345 -0.4217 -0.0750
   47MOL   C16514977   0.888   6.845   7.344  0.1989 -0.0890 -0.3204
   47MOL   C16614978   0.965   6.805   7.231 -0.3550 -0.1231  0.1029
   47MOL   F16714979   1.073   6.876   7.197  0.6996 -0.7807  0.5531
   47MOL   C16814980   0.922   6.700   7.150 -0.0194 -0.3148  0.3328
   47MOL   C16914981   0.797   6.637   7.178 -0.5325  0.1968 -1.1441
   47MOL   C17014982   0.490   6.592   7.231  0.3937 -0.7680 -0.7242
   47MOL   H17114983   0.560   6.652   7.419  0.9723 -1.3596  1.2896
   47MOL   H17214984   0.711   6.819   7.453 -2.1473  1.4355 -2.9491
   47MOL   H17314985   0.936   6.908   7.418  0.0638 -1.1828  0.7190
   47MOL   H17414986   0.973   6.679   7.057 -0.1852  0.4843  0.0631
   47MOL   H17514987   0.765   6.558   7.112 -2.1772  1.2146 -1.5852
   47MOL   H17614988   0.528   6.556   7.136  0.1358 -0.5835 -0.9007
   47MOL   H17714989   0.404   6.529   7.252  0.2023  0.0828  1.1789
   47MOL   C17814990   0.420   6.723   7.200 -0.5258 -0.1075  0.2271
   47MOL   C17914991   0.339   6.780   7.314 -0.1460  0.2058 -0.2979
   47MOL   C18014992   0.396   6.863   7.416 -0.2888  0.4341  0.0404
   47MOL   C18114993   0.311   6.915   7.518  0.7033 -1.0317 -0.2116
   47MOL   C18214994   0.174   6.886   7.517 -0.3484  0.2612 -0.1528
   47MOL   F18314995   0.085   6.948   7.602  0.0893 -0.6029  0.1146
   47MOL   C18414996   0.124   6.805   7.415  0.4578 -0.9242  0.2025
   47MOL   C18514997   0.204   6.754   7.313 -0.4788 -0.2932 -0.0998
   47MOL   C18614998   0.518   6.823   7.123  0.1433 -0.3992 -1.0556
   47MOL   H18714999   0.364   6.684   7.115 -2.5294 -0.3203  1.6025
   47MOL   H18815000   0.503   6.875   7.408 -0.1644 -1.5411 -1.3460
   47MOL   H18915001   0.343   6.989   7.590 -1.1807  0.5500 -0.9562
   47MOL   H19015002   0.017   6.795   7.419  0.0733  1.2951 -2.9950
   47MOL   H19115003   0.161   6.691   7.236 -0.5307  0.1166 -0.4085
   47MOL   H19215004   0.578   6.877   7.195  0.9207  0.4102 -2.2803
   47MOL   H19315005   0.588   6.761   7.067  2.5313  0.1557  1.2421
   47MOL   C19415006   0.447   6.925   7.030 -1.0637  0.5324  0.2082
   47MOL   C19515007   0.390   7.043   7.100  0.0255  0.2246  0.3466
   47MOL   C19615008   0.480   7.137   7.151  0.2291  0.4789 -0.7855
   47MOL   C19715009   0.438   7.269   7.193 -0.3707  0.3447 -0.2508
   47MOL   C19815010   0.304   7.295   7.201 -0.2510 -0.0783  0.0509
   47MOL   F19915011   0.259   7.412   7.244 -0.1391  0.0522  0.1970
   47MOL   C20015012   0.211   7.204   7.150  0.2868  0.0662 -0.7609
   47MOL   C20115013   0.254   7.081   7.103 -0.8298  0.2358 -0.0817
   47MOL   C20215014   0.523   6.966   6.904 -0.1587 -0.2408  0.3518
   47MOL   H20315015   0.364   6.869   6.987 -0.5280 -0.3370  0.2906
   47MOL   H20415016   0.586   7.116   7.145  0.1152 -0.8145  1.2707
   47MOL   H20515017   0.504   7.343   7.235 -1.0370  1.2280 -0.7327
   47MOL   H20615018   0.108   7.235   7.163  0.7081  1.1398  0.0914
   47MOL   H20715019   0.181   7.016   7.058 -0.2470 -0.8511  0.5306
   47MOL   H20815020   0.445   7.014   6.845 -0.4015  2.7646  2.9813
   47MOL   H20915021   0.596   7.042   6.932 -0.4927  0.4380 -0.6013
   47MOL   C21015022   0.584   6.847   6.822 -0.1436  0.6524  0.0371
   47MOL   C21115023   0.507   6.718   6.813  0.0372  0.2117  0.3011
   47MOL   C21215024   0.572   6.596   6.848  0.5382 -1.0657 -0.1609
   47MOL   C21315025   0.511   6.470   6.841  0.5337  0.2006 -0.2665
   47MOL   C21415026   0.379   6.477   6.786 -0.0430  0.6150  0.0407
   47MOL   F21515027   0.312   6.364   6.778 -1.2362  0.1508  0.2473
   47MOL   C21615028   0.318   6.592   6.744 -1.1917  0.0508  0.0002
   47MOL   C21715029   0.376   6.718   6.757 -0.5375  0.5902  0.2399
   47MOL   C21815030   0.611   6.888   6.675 -0.3316 -0.0539  0.0271
   47MOL   H21915031   0.677   6.816   6.870  0.8557  0.1944 -2.1650
   47MOL   H22015032   0.674   6.599   6.884  0.4165 -0.3507  0.1310
   47MOL   H22115033   0.564   6.379   6.865  0.4430  0.6281  1.6475
   47MOL   H22215034   0.220   6.589   6.699 -0.5170 -0.1656 -1.4730
   47MOL   H22315035   0.322   6.804   6.721 -1.9113  0.1887  1.2941
   47MOL   H22415036   0.648   6.799   6.625  1.6649 -0.6737  2.5350
   47MOL   H22515037   0.517   6.916   6.627  0.2999 -0.1630 -1.2897
   47MOL   C22615038   0.711   6.996   6.643 -0.3471  0.1184 -0.3742
   47MOL   C22715039   0.845   6.958   6.708  0.3592 -0.1884  0.1204
   47MOL   C22815040   0.900   7.028   6.816  0.1620  0.4203 -0.6342
   47MOL   C22915041   1.016   6.989   6.886 -0.4591 -0.0808  0.1815
   47MOL   C23015042   1.085   6.878   6.830  0.2748 -0.5021 -0.0611
   47MOL   F23115043   1.197   6.836   6.892 -0.1254 -0.1970 -0.2708
   47MOL   C23215044   1.029   6.807   6.725 -0.1821  0.4436 -0.0810
   47MOL   C23315045   0.904   6.840   6.667  0.1183  0.5890 -0.0549
   47MOL   C23415046   0.729   7.022   6.486  0.1067  0.3224  0.5023
   47MOL   H23515047   0.674   7.092   6.680  0.5499  0.5708 -0.6264
   47MOL   H23615048   0.847   7.119   6.841 -0.4931 -0.7128  2.3129
   47MOL   H23715049   1.064   7.049   6.961  0.7317  1.0115 -1.4114
   47MOL   H23815050   1.073   6.712   6.698  0.8287  0.9662 -0.2930
   47MOL   H23915051   0.871   6.770   6.592 -0.2280 -0.7910  1.3594
   47MOL   H24015052   0.754   6.924   6.444  0.4962  1.4099 -1.8984
   47MOL   H24115053   0.633   7.057   6.449 -1.5567 -4.9320 -0.6872
   47MOL   C24215054   0.837   7.127   6.430 -0.3227  1.0867 -0.5349
   47MOL   C24315055   0.839   7.116   6.279  0.2949  0.2202  0.1480
   47MOL   C24415056   0.958   7.087   6.217 -0.2966 -0.3910 -0.5582
   47MOL   C24515057   0.962   7.068   6.076  0.0381  0.4472  0.3826
   47MOL   C24615058   0.848   7.092   5.997 -0.1024 -0.7003 -0.2231
   47MOL   F24715059   0.856   7.079   5.866  0.0960 -0.0888  0.2527
   47MOL   C24815060   0.722   7.119   6.065 -0.3686  0.3083 -0.2593
   47MOL   C24915061   0.717   7.127   6.205  0.3222  0.9724 -0.4275
   47MOL   C25015062   0.803   7.265   6.486 -0.1288  0.5456  0.3253
   47MOL   H25115063   0.935   7.099   6.467 -0.6182 -0.0564 -0.5936
   47MOL   H25215064   1.050   7.088   6.273 -0.1179  0.3824 -0.8555
   47MOL   H25315065   1.055   7.043   6.028 -0.3847  0.4838 -0.4627
   47MOL   H25415066   0.630   7.132   6.010 -0.3674  3.2476  0.3309
   47MOL   H25515067   0.624   7.153   6.254  0.0631 -1.6830  0.5795
   47MOL   H25615068   0.705   7.300   6.452 -0.2448 -0.7718 -0.7272
   47MOL   H25715069   0.797   7.249   6.594  0.5332 -1.3616  0.1004
   47MOL   C25815070   0.910   7.380   6.465  0.3552 -0.2709  0.1467
   47MOL   C25915071   0.946   7.403   6.318 -0.4318  0.5781  0.9877
   47MOL   C26015072   0.841   7.435   6.231 -0.1070 -0.2763  0.2954
   47MOL   C26115073   0.869   7.444   6.094 -0.3745 -0.0635  0.3528
   47MOL   C26215074   0.998   7.442   6.044 -0.7161  0.4571 -0.0683
   47MOL   F26315075   1.022   7.449   5.913  0.0679  0.0612  0.1847
   47MOL   C26415076   1.105   7.408   6.130  0.1737  0.3511  0.9253
   47MOL   C26515077   1.075   7.388   6.266  0.2735  0.2608 -0.2582
   47MOL   C26615078   0.867   7.510   6.526  0.0305  0.0934 -0.1748
   47MOL   H26715079   0.998   7.344   6.519  0.6458 -2.2013 -1.5236
   47MOL   H26815080   0.738   7.447   6.261 -0.6562 -0.9160 -1.2955
   47MOL   H26915081   0.787   7.464   6.027  0.9829 -0.7572 -1.5570
   47MOL   H27015082   1.204   7.397   6.088 -0.1586  3.2294 -0.7175
   47MOL   H27115083   1.157   7.369   6.335 -0.3457  1.4319  0.8222
   47MOL   H27215084   0.926   7.593   6.486 -3.1712  2.3874 -0.2882
   47MOL   H27315085   0.768   7.538   6.492 -0.2391 -0.1361  0.4219
   47MOL   C27415086   0.884   7.510   6.685  0.8999  0.3320 -0.1894
   47MOL   C27515087   1.034   7.528   6.723 -0.5074 -0.0435  0.3251
   47MOL   C27615088   1.101   7.642   6.679 -0.6541 -1.0294 -0.0013
   47MOL   C27715089   1.240   7.658   6.707 -0.1328 -0.6034 -0.4276
   47MOL   C27815090   1.309   7.564   6.783 -0.1481 -0.3056  0.2937
   47MOL   F27915091   1.437   7.586   6.826  0.4363 -0.2349 -0.5235
   47MOL   C28015092   1.248   7.441   6.811 -0.1508  0.1574 -0.5229
   47MOL   C28115093   1.107   7.425   6.787 -0.0278 -0.2990  0.2195
   47MOL   C28215094   0.794   7.618   6.750 -0.6904  0.1558 -0.1124
   47MOL   H28315095   0.855   7.416   6.732  0.2617  0.6958  0.1477
   47MOL   H28415096   1.049   7.716   6.621  1.2375 -2.0147 -3.0793
   47MOL   H28515097   1.301   7.741   6.675  0.9753 -1.2447 -0.0025
   47MOL   H28615098   1.307   7.361   6.852  1.3868  0.8829 -1.3077
   47MOL   H28715099   1.064   7.329   6.809 -0.3673 -0.7783 -2.3359
   47MOL   H28815100   0.819   7.713   6.703 -1.3558  1.3433  1.8976
   47MOL   H28915101   0.688   7.599   6.735 -0.9738  2.4398 -1.2012
   47MOL   C29015102   0.829   7.645   6.901 -0.0055 -0.3872 -0.3057
   47MOL   C29115103   0.751   7.778   6.945  0.3134 -0.1429  0.8177
   47MOL   C29215104   0.833   7.888   6.988  0.5173  0.2232 -0.4195
   47MOL   C29315105   0.776   8.012   7.010 -0.4259  0.3108  0.0651
   47MOL   C29415106   0.641   8.034   6.982 -0.0032 -0.5546 -0.1711
   47MOL   F29515107   0.582   8.158   6.990  0.5955  0.2530 -0.0319
   47MOL   C29615108   0.557   7.930   6.944  0.0517  0.2095  0.2362
   47MOL   C29715109   0.609   7.801   6.922  0.9018 -0.2872 -0.8782
   47MOL   C29815110   0.784   7.527   7.000 -0.1440 -0.5804  0.4350
   47MOL   H29915111   0.936   7.666   6.908 -0.5688  2.2745  0.7853
   47MOL   H30015112   0.940   7.876   6.999  0.6432  1.8982  0.3021
   47MOL   H30115113   0.843   8.096   7.022  0.3868  0.0515 -2.4132
   47MOL   H30215114   0.452   7.957   6.938 -0.5335 -1.5531  1.8761
   47MOL   H30315115   0.537   7.723   6.906  0.8144 -0.2794 -0.5225
   47MOL   H30415116   0.676   7.529   7.013 -0.4224 -1.2794 -1.5479
   47MOL   H30515117   0.814   7.435   6.950 -0.7074 -1.3463  1.4754
   47MOL   C30615118   0.863   7.544   7.131  0.0064  0.2825 -0.8153
   47MOL   C30715119   0.809   7.439   7.225 -0.2323  0.3730  0.5828
   47MOL   C30815120   0.831   7.303   7.195  0.9587 -0.5124  0.0821
   47MOL   C30915121   0.806   7.205   7.290 -0.6963 -0.1817 -0.6376
   47MOL   C31015122   0.759   7.244   7.412 -0.6715 -0.4197 -0.4748
   47MOL   F31115123   0.739   7.158   7.518  0.3892 -0.2762  0.4876
   47MOL   C31215124   0.725   7.377   7.446 -0.1913  0.0378 -0.6949
   47MOL   C31315125   0.754   7.478   7.354  0.3371  0.5697 -0.0253
   47MOL   C31415126   1.014   7.526   7.113  0.2779  0.6206 -0.5195
   47MOL   H31515127   0.837   7.641   7.174 -2.5167 -1.3713  1.6039
   47MOL   H31615128   0.864   7.270   7.098  1.1010 -1.7327  0.5336
   47MOL   H31715129   0.836   7.108   7.254 -1.2484 -0.1623 -1.1626
   47MOL   H31815130   0.688   7.397   7.545  0.5642  1.0718 -0.6095
   47MOL   H31915131   0.730   7.580   7.381 -1.3280  0.4638 -1.0852
   47MOL   H32015132   1.058   7.495   7.208 -0.4890 -1.9969 -0.9832
   47MOL   H32115133   1.033   7.442   7.046  0.5533 -0.7756  1.2780
   47MOL   H32215134   1.070   7.610   7.071  1.4458  0.5095  0.7870
   48MOL     C115135   6.841   3.432   0.091 -0.1038  0.8983  0.0059
   48MOL     C215136   6.940   3.505   0.176  0.6064  0.3435 -0.3161
   48MOL     C315137   7.054   3.440   0.214  0.3731  0.2651  0.0219
   48MOL     C415138   7.142   3.492   0.313  0.6801  0.0511  0.1537
   48MOL     C515139   7.109   3.616   0.372  0.1154  0.2341  0.3321
   48MOL     F615140   7.195   3.678   0.461 -0.2219  0.3874  0.0681
   48MOL     C715141   6.997   3.693   0.328 -0.3090  0.1877  0.1991
   48MOL     C815142   6.910   3.629   0.236 -0.4435  0.3087 -0.3891
   48MOL     C915143   6.761   3.331   0.173 -0.0828  0.1987  0.1019
   48MOL    H1015144   6.893   3.376   0.013 -1.0101  0.8062 -0.5466
   48MOL    H1115145   7.081   3.346   0.169  0.3299 -0.2186  0.9926
   48MOL    H1215146   7.230   3.440   0.346  2.0979  2.9422  1.1374
   48MOL    H1315147   6.968   3.782   0.382 -2.8569 -0.0117 -0.7568
   48MOL    H1415148   6.820   3.686   0.218 -1.6736 -1.1666  0.8883
   48MOL    H1515149   6.832   3.256   0.207  0.0601  0.2404 -0.1078
   48MOL    H1615150   6.736   3.377   0.269 -0.3926 -0.4537  0.3381
   48MOL    H1715151   6.772   3.500   0.042  1.1992  0.4556 -2.5432
   48MOL    C1815152   6.635   3.276   0.104  0.4749 -0.1314  0.2541
   48MOL    C1915153   6.663   3.198   8.210 -0.1162 -0.7737 -0.1639
   48MOL    C2015154   6.742   3.088   8.213 -0.9080  0.5905 -0.3412
   48MOL    C2115155   6.768   3.005   8.101  0.4193  0.5589 -0.5145
   48MOL    C2215156   6.731   3.061   7.978 -0.1553  0.4586 -0.1974
   48MOL    F2315157   6.765   2.997   7.863 -0.1227 -0.2658  0.2737
   48MOL    C2415158   6.659   3.183   7.968  0.5942  0.0504  0.2712
   48MOL    C2515159   6.620   3.252   8.086 -0.0627  0.7614  0.2471
   48MOL    C2615160   6.536   3.202   0.199  0.2668  0.4048 -0.1941
   48MOL    H2715161   6.582   3.367   0.075 -1.3817 -0.8141  1.4314
   48MOL    H2815162   6.773   3.053   0.076 -1.5443  0.9081 -0.0258
   48MOL    H2915163   6.817   2.910   8.116 -3.5208 -1.4622  0.1898
   48MOL    H3015164   6.629   3.224   7.873  0.1326 -3.3660 -1.1099
   48MOL    H3115165   6.581   3.353   8.090 -1.1394  0.3640 -0.0529
   48MOL    H3215166   6.440   3.186   0.151  0.2700 -2.0950  0.5213
   48MOL    H3315167   6.556   3.099   0.231  1.9757  1.7963  3.4912
   48MOL    C3415168   6.496   3.264   0.339  0.2094  0.1679 -1.2201
   48MOL    C3515169   6.446   3.414   0.321 -0.3074  0.2848 -0.2040
   48MOL    C3615170   6.513   3.526   0.390  0.5674 -0.0644  0.2380
   48MOL    C3715171   6.459   3.658   0.379 -0.4867 -0.0139 -0.0430
   48MOL    C3815172   6.344   3.682   0.303 -0.3237 -0.0992  0.3936
   48MOL    F3915173   6.284   3.809   0.297 -0.4773  0.1936  0.1301
   48MOL    C4015174   6.283   3.574   0.238 -0.1265 -0.3595 -0.2071
   48MOL    C4115175   6.331   3.445   0.248 -0.0359  0.3353  0.0441
   48MOL    C4215176   6.410   3.179   0.417 -0.0622  0.5036 -0.4991
   48MOL    H4315177   6.585   3.276   0.400 -0.8230 -1.0930  0.5685
   48MOL    H4415178   6.601   3.508   0.450 -0.1262 -0.5133  1.1337
   48MOL    H4515179   6.500   3.737   0.440 -0.8838 -0.2269  0.4987
   48MOL    H4615180   6.203   3.598   0.170  0.0098 -0.3853 -0.3789
   48MOL    H4715181   6.274   3.366   0.203  1.0538 -0.4021 -0.0659
   48MOL    H4815182   6.323   3.153   0.357  0.5874  1.1475 -1.7437
   48MOL    H4915183   6.463   3.084   0.432 -0.5057  0.3999  0.4602
   48MOL    C5015184   6.377   3.237   0.559 -0.5115 -0.4696  0.1161
   48MOL    C5115185   6.265   3.155   0.607 -0.7834  0.3294 -0.7207
   48MOL    C5215186   6.285   3.026   0.659  0.6825 -0.7511  0.3054
   48MOL    C5315187   6.172   2.950   0.702 -0.4649  0.3789  0.1322
   48MOL    C5415188   6.045   3.004   0.709 -0.7851 -0.9003  0.1349
   48MOL    F5515189   5.937   2.930   0.751  0.6833  0.6336  0.4699
   48MOL    C5615190   6.030   3.138   0.677  0.1047 -0.4500 -0.1453
   48MOL    C5715191   6.137   3.208   0.624 -0.3212  0.4924 -1.2413
   48MOL    C5815192   6.494   3.245   0.663  0.2590  0.2985  0.0853
   48MOL    H5915193   6.345   3.341   0.551  1.2390  0.1098  0.4579
   48MOL    H6015194   6.380   2.975   0.657  1.1782  0.0013  2.8363
   48MOL    H6115195   6.190   2.845   0.720  1.2232  0.6228 -0.0728
   48MOL    H6215196   5.934   3.183   0.699  0.1429 -0.0281 -0.8010
   48MOL    H6315197   6.112   3.309   0.596 -1.7947  0.8161  1.0981
   48MOL    H6415198   6.545   3.149   0.664  0.7309  0.4763 -2.6134
   48MOL    H6515199   6.568   3.302   0.606  1.0704 -0.8351 -0.0150
   48MOL    C6615200   6.452   3.291   0.802  0.0223 -0.3713 -0.7412
   48MOL    C6715201   6.575   3.274   0.893  0.3486 -0.1087 -0.7109
   48MOL    C6815202   6.657   3.375   0.941  0.3887 -0.8320  0.0889
   48MOL    C6915203   6.770   3.348   1.021 -0.5411  0.9355  0.4368
   48MOL    C7015204   6.788   3.219   1.066  0.1859  0.6370  0.1088
   48MOL    F7115205   6.881   3.200   1.158 -0.9294  0.0714  0.1161
   48MOL    C7215206   6.710   3.115   1.021 -0.7321 -0.4695  0.0448
   48MOL    C7315207   6.605   3.140   0.932  0.8250 -0.0447 -0.4006
   48MOL    C7415208   6.389   3.427   0.811  0.1191 -0.4015 -0.3371
   48MOL    H7515209   6.378   3.221   0.841 -0.5084  0.9440  0.6744
   48MOL    H7615210   6.639   3.476   0.905 -1.7294 -0.7900  1.2328
   48MOL    H7715211   6.840   3.425   1.052  0.9351 -1.4108  3.1173
   48MOL    H7815212   6.718   3.012   1.050  2.0011 -0.0454  0.9389
   48MOL    H7915213   6.536   3.059   0.910 -2.1831  2.0667  0.8909
   48MOL    H8015214   6.435   3.498   0.743 -2.9048  3.2571  1.2749
   48MOL    H8115215   6.293   3.398   0.769  0.5334 -1.0434 -0.8593
   48MOL    C8215216   6.355   3.484   0.959  0.0777  0.5946 -0.2952
   48MOL    C8315217   6.283   3.617   0.943  0.3267 -0.0556 -0.3767
   48MOL    C8415218   6.317   3.731   1.015  0.6111 -0.5739  0.0403
   48MOL    C8515219   6.257   3.862   0.986  0.4123 -0.4029  0.2845
   48MOL    C8615220   6.163   3.870   0.877  0.4361  0.4690 -0.5302
   48MOL    F8715221   6.102   3.984   0.837  0.6436 -0.4517 -0.4324
   48MOL    C8815222   6.110   3.747   0.822  0.3910  0.0304 -0.7655
   48MOL    C8915223   6.172   3.625   0.848  0.4034 -0.0002  0.1491
   48MOL    C9015224   6.281   3.392   1.053  0.1437 -0.9059 -0.2145
   48MOL    H9115225   6.452   3.510   1.001  0.8681 -0.8077 -1.1791
   48MOL    H9215226   6.398   3.744   1.086 -0.0153  1.5357  0.4156
   48MOL    H9315227   6.282   3.949   1.044  1.3956 -0.0658 -0.6247
   48MOL    H9415228   6.022   3.748   0.760  0.1325 -0.7611 -0.4151
   48MOL    H9515229   6.142   3.532   0.802  1.1276 -0.4219  0.5374
   48MOL    H9615230   6.182   3.366   1.014  1.0408  0.2776 -3.3991
   48MOL    H9715231   6.333   3.296   1.047 -0.2988 -1.1479 -0.2172
   48MOL    C9815232   6.271   3.450   1.197 -0.1530 -0.1292 -0.4036
   48MOL    C9915233   6.128   3.462   1.254  1.2358  0.8178  0.7035
   48MOL   C10015234   6.068   3.587   1.291  0.7800  0.6087  0.9536
   48MOL   C10115235   5.947   3.600   1.358  0.2993 -0.0932 -0.0435
   48MOL   C10215236   5.864   3.484   1.373 -0.0312  0.3490  0.3413
   48MOL   F10315237   5.745   3.496   1.439 -0.0705  0.6876 -0.1375
   48MOL   C10415238   5.908   3.361   1.322 -0.1259 -0.5900 -0.7083
   48MOL   C10515239   6.045   3.347   1.280 -0.4059  0.0196  0.8240
   48MOL   C10615240   6.368   3.375   1.290  0.5800  0.3731 -0.0464
   48MOL   H10715241   6.304   3.554   1.196  0.6231 -0.3440  1.3306
   48MOL   H10815242   6.115   3.684   1.287  0.5546  0.8362  3.3924
   48MOL   H10915243   5.919   3.698   1.391  1.5135  0.3349 -0.2619
   48MOL   H11015244   5.848   3.272   1.329  2.0497 -2.0700 -0.1104
   48MOL   H11115245   6.090   3.253   1.253  1.2685  0.5050  1.8053
   48MOL   H11215246   6.344   3.275   1.327 -0.8886  0.8548  0.3651
   48MOL   H11315247   6.446   3.370   1.215 -1.2745 -0.6406 -1.9521
   48MOL   C11415248   6.417   3.458   1.407  0.2232 -0.4771  0.1792
   48MOL   C11515249   6.480   3.588   1.364  0.6361  0.4382  0.6139
   48MOL   C11615250   6.595   3.594   1.283 -0.3734 -0.0520  0.0603
   48MOL   C11715251   6.642   3.717   1.235 -0.7056  0.1658  0.8045
   48MOL   C11815252   6.579   3.836   1.272  0.0205  0.2320 -0.1357
   48MOL   F11915253   6.638   3.954   1.238 -0.7692  0.8500  0.7367
   48MOL   C12015254   6.465   3.828   1.354  0.2078 -0.0786  0.9865
   48MOL   C12115255   6.410   3.707   1.397  0.9351 -0.4621 -0.2930
   48MOL   C12215256   6.328   3.454   1.538 -0.9588 -0.6488 -0.4847
   48MOL   H12315257   6.506   3.405   1.441  2.0165  0.8235 -2.3533
   48MOL   H12415258   6.634   3.498   1.250 -4.6612 -2.0060  0.3094
   48MOL   H12515259   6.725   3.718   1.166 -0.8584 -2.3423  0.5160
   48MOL   H12615260   6.421   3.922   1.385 -0.4877  0.0558 -0.3856
   48MOL   H12715261   6.313   3.705   1.444  1.9206  0.3412  1.8406
   48MOL   H12815262   6.361   3.539   1.599  0.0962 -0.1815 -1.6804
   48MOL   H12915263   6.229   3.488   1.509 -0.0357  0.4510 -2.4475
   48MOL   C13015264   6.334   3.322   1.624 -0.8412  0.1588 -0.4219
   48MOL   C13115265   6.477   3.299   1.680  0.5554 -0.9692  0.6407
   48MOL   C13215266   6.516   3.167   1.702  0.2810  0.2979  0.7413
   48MOL   C13315267   6.636   3.137   1.769 -0.4959 -0.4959  0.6282
   48MOL   C13415268   6.727   3.236   1.811 -0.4630 -0.2515 -0.6674
   48MOL   F13515269   6.842   3.200   1.873  0.3725 -0.4183 -0.1378
   48MOL   C13615270   6.688   3.371   1.791 -0.1668 -1.2255  0.5587
   48MOL   C13715271   6.564   3.401   1.726  0.4554  0.0235  0.0831
   48MOL   C13815272   6.235   3.323   1.748 -0.0739  0.1739 -1.1025
   48MOL   H13915273   6.310   3.236   1.561 -0.3803 -0.6255  0.4645
   48MOL   H14015274   6.460   3.081   1.667  1.9774 -0.8319  0.7027
   48MOL   H14115275   6.648   3.032   1.792  2.0862 -0.4781 -0.5502
   48MOL   H14215276   6.755   3.447   1.830 -0.3121  0.0028 -1.4558
   48MOL   H14315277   6.544   3.505   1.704 -0.5656 -0.3209 -0.6615
   48MOL   H14415278   6.282   3.267   1.830 -1.4092 -0.5673 -0.8363
   48MOL   H14515279   6.215   3.426   1.777 -2.6706 -0.1156 -1.7516
   48MOL   C14615280   6.090   3.270   1.719 -0.2310  0.2344 -0.0361
   48MOL   C14715281   6.083   3.123   1.675  0.5067 -0.6219  0.1198
   48MOL   C14815282   6.175   3.030   1.724 -0.0787 -0.0675 -0.1403
   48MOL   C14915283   6.153   2.895   1.688 -0.0303 -0.1965  0.0471
   48MOL   C15015284   6.055   2.852   1.589  0.0661  0.4495 -0.2503
   48MOL   F15115285   6.040   2.724   1.548 -0.4323 -0.4834 -0.1067
   48MOL   C15215286   5.963   2.949   1.546 -0.0414 -0.2504 -0.0623
   48MOL   C15315287   5.981   3.083   1.583 -0.1601 -0.0284 -0.1661
   48MOL   C15415288   5.992   3.294   1.835 -0.3367  0.1537 -0.5368
   48MOL   H15515289   6.054   3.335   1.639 -0.6723  0.8548  0.6550
   48MOL   H15615290   6.241   3.039   1.809 -0.8097 -0.9455  0.5315
   48MOL   H15715291   6.227   2.826   1.726 -0.3624  2.3959  5.8436
   48MOL   H15815292   5.887   2.922   1.475  0.4091 -1.5628 -0.0545
   48MOL   H15915293   5.907   3.157   1.558 -0.7124  0.0052  1.5593
   48MOL   H16015294   6.031   3.371   1.901 -0.8313  1.8142 -2.1598
   48MOL   H16115295   5.913   3.343   1.778  0.7558  1.3111 -1.0703
   48MOL   C16215296   5.930   3.186   1.925 -0.1029  0.5117  0.3902
   48MOL   C16315297   6.027   3.105   2.018 -0.0235 -0.8497  0.5062
   48MOL   C16415298   6.111   3.173   2.113  0.4199  0.5042  0.0350
   48MOL   C16515299   6.191   3.093   2.193 -0.0476 -0.1734  0.3570
   48MOL   C16615300   6.183   2.950   2.190  0.1806 -0.2319  0.4894
   48MOL   F16715301   6.256   2.882   2.275  0.4284  0.2082  0.2366
   48MOL   C16815302   6.100   2.887   2.094 -0.5847  0.2252  0.3207
   48MOL   C16915303   6.028   2.966   2.009  0.3912  0.2374  0.2409
   48MOL   C17015304   5.811   3.232   2.008  0.1612 -0.4746  0.2425
   48MOL   H17115305   5.898   3.101   1.863 -2.7416 -0.1461  2.5666
   48MOL   H17215306   6.121   3.280   2.108  0.2568  0.6217  1.8320
   48MOL   H17315307   6.248   3.142   2.271  0.5457  2.5072 -1.6680
   48MOL   H17415308   6.102   2.779   2.092  2.7019  0.2388 -0.6719
   48MOL   H17515309   5.959   2.915   1.944  2.1496  0.0477 -1.5329
   48MOL   H17615310   5.782   3.163   2.087  0.4956 -0.0528  0.7351
   48MOL   H17715311   5.847   3.308   2.077 -1.1929  0.5569 -0.1647
   48MOL   C17815312   5.682   3.267   1.926  1.1083  0.8918 -0.5179
   48MOL   C17915313   5.641   3.170   1.808 -0.2091 -0.3398 -0.6564
   48MOL   C18015314   5.630   3.220   1.676 -0.2863  0.4665 -0.1794
   48MOL   C18115315   5.606   3.134   1.562  0.1782  0.5308 -0.1303
   48MOL   C18215316   5.606   2.996   1.587 -0.0948  0.4177  0.0739
   48MOL   F18315317   5.605   2.908   1.485 -0.3943 -0.7589 -0.0860
   48MOL   C18415318   5.612   2.944   1.719 -0.8413 -1.2014 -0.0980
   48MOL   C18515319   5.628   3.032   1.834 -0.1201 -0.0836  0.5212
   48MOL   C18615320   5.549   3.295   2.001  0.2015 -0.2603  0.1782
   48MOL   H18715321   5.702   3.367   1.887 -2.0540  2.1272  0.8456
   48MOL   H18815322   5.646   3.326   1.666  1.6828  0.3581  1.3417
   48MOL   H18915323   5.585   3.163   1.460 -1.1964 -2.9420 -0.8865
   48MOL   H19015324   5.603   2.837   1.732  3.5848 -1.5025  1.3827
   48MOL   H19115325   5.632   2.986   1.931  1.0206  1.9273  1.4593
   48MOL   H19215326   5.485   3.347   1.930 -1.5137 -3.0465 -0.3902
   48MOL   H19315327   5.487   3.209   2.026 -1.0573  0.5266 -0.2394
   48MOL   C19415328   5.559   3.386   2.115 -0.5111 -0.0994  0.0736
   48MOL   C19515329   5.629   3.520   2.080 -0.3001 -0.3478 -0.0537
   48MOL   C19615330   5.755   3.561   2.125 -0.0229 -0.3624 -0.2394
   48MOL   C19715331   5.815   3.683   2.083  0.0685 -0.4333  0.2431
   48MOL   C19815332   5.740   3.776   2.009 -0.3552  0.1071  0.6179
   48MOL   F19915333   5.784   3.907   1.991 -0.2387  0.0625 -0.1681
   48MOL   C20015334   5.608   3.734   1.965 -0.4993  0.4559  0.3842
   48MOL   C20115335   5.558   3.607   1.994 -0.4567  0.3465 -0.1764
   48MOL   C20215336   5.420   3.415   2.167  0.5472 -0.2191 -0.0676
   48MOL   H20315337   5.611   3.334   2.195  0.3310  1.0555  0.2938
   48MOL   H20415338   5.814   3.499   2.191 -3.0410 -0.8519  2.1006
   48MOL   H20515339   5.901   3.715   2.139 -1.0761  2.1231  0.5883
   48MOL   H20615340   5.548   3.800   1.905  0.2135  2.2077  1.5545
   48MOL   H20715341   5.462   3.571   1.959 -0.4568 -0.8266  0.9947
   48MOL   H20815342   5.433   3.497   2.237  0.1838 -0.0496 -0.1998
   48MOL   H20915343   5.359   3.454   2.085  2.3712 -1.0463 -1.8612
   48MOL   C21015344   5.336   3.299   2.242 -0.1646 -0.2847 -0.3280
   48MOL   C21115345   5.347   3.322   2.400 -0.1466  0.3202 -0.5715
   48MOL   C21215346   5.250   3.401   2.469  0.7083  0.1584  0.4436
   48MOL   C21315347   5.253   3.402   2.608 -0.9455  0.4635 -0.3428
   48MOL   C21415348   5.362   3.346   2.677  0.4395  0.1762  0.1177
   48MOL   F21515349   5.375   3.339   2.810  0.7816  0.1477 -0.2182
   48MOL   C21615350   5.466   3.275   2.604  0.4115 -0.2757  0.1432
   48MOL   C21715351   5.455   3.266   2.467  0.1798 -0.1856  0.0143
   48MOL   C21815352   5.190   3.301   2.198 -0.7830  0.1321 -0.9368
   48MOL   H21915353   5.379   3.203   2.211 -0.9967 -0.6386 -0.4119
   48MOL   H22015354   5.169   3.451   2.417  0.6021  0.7173  1.1436
   48MOL   H22115355   5.167   3.451   2.652 -1.7049 -0.3280 -0.9201
   48MOL   H22215356   5.548   3.227   2.657 -1.1799 -3.7795 -0.4690
   48MOL   H22315357   5.535   3.209   2.423  0.4447 -0.7142  1.1620
   48MOL   H22415358   5.134   3.254   2.279  0.2271 -1.2774 -1.0416
   48MOL   H22515359   5.153   3.404   2.192 -0.4533  0.2169 -1.6053
   48MOL   C22615360   5.165   3.231   2.066 -0.0735 -0.2649 -0.3325
   48MOL   C22715361   5.182   3.085   2.073 -0.3384  0.1101 -0.2486
   48MOL   C22815362   5.283   3.024   1.998  0.8688  0.8254  0.3965
   48MOL   C22915363   5.295   2.881   2.007  0.4029 -0.8077  0.4419
   48MOL   C23015364   5.213   2.805   2.088 -0.3009 -0.0081  0.4007
   48MOL   F23115365   5.225   2.661   2.084 -0.0666 -0.0168 -0.4880
   48MOL   C23215366   5.110   2.862   2.164 -0.1951  0.3667 -0.0483
   48MOL   C23315367   5.096   3.002   2.152 -0.2879  0.4426 -0.0687
   48MOL   C23415368   5.022   3.262   1.994 -0.3386  0.5542 -0.8785
   48MOL   H23515369   5.237   3.277   1.999  0.7298  1.3247  1.5880
   48MOL   H23615370   5.342   3.087   1.933  0.0728  0.3570 -0.8067
   48MOL   H23715371   5.357   2.823   1.940 -0.7680 -0.8039 -0.6704
   48MOL   H23815372   5.053   2.795   2.227  0.9966 -1.5760 -0.9856
   48MOL   H23915373   5.023   3.043   2.220  1.1570 -0.6136  2.1892
   48MOL   H24015374   5.020   3.202   1.903 -1.3090  2.9869 -2.4869
   48MOL   H24115375   4.941   3.215   2.049 -0.1365 -0.0939 -1.1223
   48MOL   C24215376   4.977   3.405   1.966 -0.2615 -0.6708  0.4052
   48MOL   C24315377   5.080   3.475   1.871  0.8314  0.1437 -0.1024
   48MOL   C24415378   5.095   3.612   1.893 -0.1494  0.3621  0.1168
   48MOL   C24515379   5.176   3.683   1.804 -0.7140  0.2600 -0.5622
   48MOL   C24615380   5.254   3.612   1.706 -0.0732 -0.2566 -0.9882
   48MOL   F24715381   5.333   3.679   1.620 -0.2857 -0.0529 -0.3618
   48MOL   C24815382   5.253   3.473   1.695  0.3519 -0.0548 -1.0710
   48MOL   C24915383   5.151   3.408   1.769 -0.3113 -0.7778 -0.8211
   48MOL   C25015384   4.835   3.407   1.899  0.6712  0.2330 -0.0678
   48MOL   H25115385   4.971   3.468   2.055  0.3756  1.4455 -0.9923
   48MOL   H25215386   5.030   3.650   1.971 -0.2625 -0.6813  0.5415
   48MOL   H25315387   5.179   3.791   1.814  2.6092  0.0767  0.9535
   48MOL   H25415388   5.315   3.422   1.623 -0.0023  0.3432 -1.6681
   48MOL   H25515389   5.133   3.302   1.760 -1.2018 -0.8504  1.5477
   48MOL   H25615390   4.819   3.512   1.872 -2.5645 -0.2668 -0.2273
   48MOL   H25715391   4.835   3.342   1.812  1.2947  0.7544 -0.4599
   48MOL   C25815392   4.721   3.350   2.001  0.0767  1.0587  0.5379
   48MOL   C25915393   4.741   3.402   2.144 -0.2918 -0.2359 -0.3430
   48MOL   C26015394   4.735   3.537   2.174  0.2184  0.2831  0.3311
   48MOL   C26115395   4.748   3.583   2.307 -0.1192  0.3927 -0.7225
   48MOL   C26215396   4.772   3.493   2.415  0.3404  0.2397 -0.6788
   48MOL   F26315397   4.798   3.539   2.544 -0.1849  0.4095  0.5655
   48MOL   C26415398   4.776   3.353   2.386 -0.2644 -0.2724 -0.2517
   48MOL   C26515399   4.758   3.311   2.249  0.4435 -0.2669  0.2810
   48MOL   C26615400   4.575   3.375   1.945  0.0791 -0.3898 -0.2549
   48MOL   H26715401   4.718   3.242   2.014  0.8751  0.7252 -1.7040
   48MOL   H26815402   4.726   3.608   2.093  2.4139 -1.0507 -1.1348
   48MOL   H26915403   4.750   3.689   2.327 -0.4850  0.1895  0.4505
   48MOL   H27015404   4.813   3.285   2.462 -0.5360  0.6515  0.7226
   48MOL   H27115405   4.758   3.204   2.232 -0.7158 -0.2478  0.1134
   48MOL   H27215406   4.508   3.361   2.029  0.2187  0.2668 -0.0346
   48MOL   H27315407   4.567   3.480   1.916  2.1351 -0.6972 -2.0556
   48MOL   C27415408   4.542   3.282   1.820  0.6636 -1.2186  0.2299
   48MOL   C27515409   4.556   3.130   1.844 -0.0259  0.4521  1.0291
   48MOL   C27615410   4.548   3.071   1.971 -0.5001 -0.7356  0.2975
   48MOL   C27715411   4.571   2.938   1.990 -0.9174  0.2806  0.5073
   48MOL   C27815412   4.585   2.848   1.885 -0.4084 -0.2250 -0.0386
   48MOL   F27915413   4.607   2.722   1.917  0.7572 -0.6149 -0.0768
   48MOL   C28015414   4.577   2.897   1.754  0.2312  0.6390  0.1617
   48MOL   C28115415   4.564   3.041   1.734 -0.2479  0.8314 -0.1673
   48MOL   C28215416   4.415   3.321   1.746  0.3059  0.4042 -0.1178
   48MOL   H28315417   4.625   3.301   1.752  1.6812 -0.7139  1.5808
   48MOL   H28415418   4.535   3.130   2.060  1.6335 -1.8932  1.4031
   48MOL   H28515419   4.572   2.894   2.088 -1.8174  1.5875  1.1100
   48MOL   H28615420   4.589   2.831   1.669  0.7894 -1.2512  1.6589
   48MOL   H28715421   4.570   3.083   1.634 -0.1651 -0.9867 -0.9430
   48MOL   H28815422   4.351   3.240   1.714 -0.3290  1.3947 -1.4274
   48MOL   H28915423   4.345   3.366   1.816  1.4450 -1.5689  2.3380
   48MOL   C29015424   4.440   3.417   1.624 -0.1233  0.1039  0.5450
   48MOL   C29115425   4.491   3.346   1.502 -0.1439 -0.3992  0.5860
   48MOL   C29215426   4.629   3.341   1.469  0.8000 -0.9589 -0.7695
   48MOL   C29315427   4.673   3.287   1.348  0.0769 -0.0330  0.1632
   48MOL   C29415428   4.583   3.223   1.259 -0.1191  0.4710 -0.3839
   48MOL   F29515429   4.626   3.176   1.142  0.0589  0.1447 -0.4585
   48MOL   C29615430   4.446   3.226   1.293  0.7860  0.3631 -0.5428
   48MOL   C29715431   4.403   3.288   1.408  0.0854  0.1057 -0.1959
   48MOL   C29815432   4.326   3.519   1.593 -0.6756  0.1050 -0.5110
   48MOL   H29915433   4.524   3.475   1.662 -0.8043 -0.1109  2.4319
   48MOL   H30015434   4.705   3.375   1.537  0.2843 -0.4061 -0.4645
   48MOL   H30115435   4.775   3.270   1.315  0.3122  2.3415 -0.4036
   48MOL   H30215436   4.374   3.180   1.227  0.5868  1.6044 -1.1982
   48MOL   H30315437   4.298   3.300   1.430  0.0715  1.5655 -0.9855
   48MOL   H30415438   4.334   3.567   1.495  2.1394 -0.1651 -0.4482
   48MOL   H30515439   4.235   3.460   1.581 -1.0009  0.4347  0.3595
   48MOL   C30615440   4.316   3.640   1.694 -0.0575  0.2462  0.1091
   48MOL   C30715441   4.447   3.709   1.724 -0.0514  0.1946  0.1092
   48MOL   C30815442   4.470   3.757   1.852 -0.2069  0.3362  0.6552
   48MOL   C30915443   4.593   3.814   1.885  0.6012 -0.3431  0.1108
   48MOL   C31015444   4.677   3.844   1.777  1.2253 -0.3948  0.7031
   48MOL   F31115445   4.797   3.897   1.809  0.1241 -0.4059  0.0903
   48MOL   C31215446   4.646   3.818   1.645 -0.3059  0.1003  0.2422
   48MOL   C31315447   4.535   3.739   1.619  0.0502 -0.5480  0.4085
   48MOL   C31415448   4.202   3.737   1.662  0.5012  0.0187 -0.4895
   48MOL   H31515449   4.288   3.588   1.786  0.1567  1.9106  1.1327
   48MOL   H31615450   4.403   3.733   1.933 -1.2747  1.6128  0.1654
   48MOL   H31715451   4.627   3.834   1.986  1.2406 -0.1732 -0.1380
   48MOL   H31815452   4.719   3.843   1.570  0.8395 -1.8491  0.6994
   48MOL   H31915453   4.525   3.703   1.517 -1.8526  1.2432 -0.0726
   48MOL   H32015454   4.202   3.790   1.566  1.8658  1.0303  0.0576
   48MOL   H32115455   4.108   3.682   1.661  1.2899 -1.4064  1.3310
   48MOL   H32215456   4.198   3.812   1.740  1.2505  0.1205 -0.5496
   49MOL     C115457   6.628   3.330   2.162 -0.0883 -0.1267 -0.6090
   49MOL     C215458   6.648   3.181   2.187 -0.5061 -0.1518 -0.2520
   49MOL     C315459   6.538   3.098   2.161  0.2252  0.6245 -0.2534
   49MOL     C415460   6.544   2.962   2.190 -0.0505 -0.4761 -0.3011
   49MOL     C515461   6.661   2.900   2.238 -0.2683 -0.4329  0.1393
   49MOL     F615462   6.663   2.773   2.271 -0.0818 -0.5004  0.3533
   49MOL     C715463   6.766   2.985   2.278 -0.6357 -0.4072  0.1572
   49MOL     C815464   6.764   3.127   2.247  0.1134  0.0653  0.0988
   49MOL     C915465   6.573   3.399   2.292  0.3475  0.0492  0.0253
   49MOL    H1015466   6.568   3.354   2.074  0.4972 -4.5673 -2.3619
   49MOL    H1115467   6.453   3.143   2.112 -0.5505  0.2226  0.6945
   49MOL    H1215468   6.458   2.904   2.159  1.5829 -4.1116  1.6384
   49MOL    H1315469   6.859   2.947   2.318 -0.5373  0.7801  1.0976
   49MOL    H1415470   6.850   3.187   2.271  0.1871 -0.9090  2.3671
   49MOL    H1515471   6.485   3.344   2.322 -0.7374  1.5830 -0.2837
   49MOL    H1615472   6.646   3.383   2.371  0.3049  2.4039  0.5732
   49MOL    H1715473   6.727   3.375   2.152 -0.4240  0.8373  0.2512
   49MOL    C1815474   6.531   3.551   2.284 -0.4852  0.1729 -0.6873
   49MOL    C1915475   6.445   3.578   2.165  1.2072  0.6023 -0.1945
   49MOL    C2015476   6.323   3.506   2.152  0.0360  0.0292  0.3471
   49MOL    C2115477   6.225   3.550   2.064 -0.3885 -0.5525  0.1541
   49MOL    C2215478   6.253   3.647   1.969  0.3408  0.2212  0.1758
   49MOL    F2315479   6.163   3.672   1.868 -0.2076 -0.5725 -0.0139
   49MOL    C2415480   6.381   3.704   1.965 -0.0682  0.3505 -0.2909
   49MOL    C2515481   6.480   3.669   2.064 -0.2452  0.0324  0.1369
   49MOL    C2615482   6.475   3.602   2.421 -0.7302 -0.0845  0.6857
   49MOL    H2715483   6.626   3.602   2.269  0.5215 -1.3888  0.2365
   49MOL    H2815484   6.297   3.430   2.225 -0.1953  1.6082  1.9221
   49MOL    H2915485   6.127   3.503   2.060  0.5622 -2.7765  1.8393
   49MOL    H3015486   6.397   3.778   1.887  0.2798  0.6438  0.0580
   49MOL    H3115487   6.579   3.706   2.046 -0.0543 -1.0241 -1.0645
   49MOL    H3215488   6.389   3.662   2.393  0.2160  0.8456 -0.3031
   49MOL    H3315489   6.439   3.516   2.478 -2.0979 -1.0695 -1.6354
   49MOL    C3415490   6.558   3.685   2.517 -0.0751 -0.7448 -0.1727
   49MOL    C3515491   6.657   3.782   2.452  0.9040 -0.9059  0.4669
   49MOL    C3615492   6.787   3.793   2.500 -0.2867  0.5428 -0.1810
   49MOL    C3715493   6.878   3.896   2.458  0.5075 -0.0040 -0.8140
   49MOL    C3815494   6.833   3.989   2.369  0.3550  0.5800  0.1400
   49MOL    F3915495   6.918   4.088   2.327 -0.0888  0.1855 -0.2658
   49MOL    C4015496   6.705   3.987   2.315 -0.3731 -0.0862  0.0852
   49MOL    C4115497   6.616   3.878   2.357  0.4113  0.2665 -0.0431
   49MOL    C4215498   6.463   3.752   2.625 -1.0222  0.0351  0.0236
   49MOL    H4315499   6.622   3.613   2.568 -1.4780 -1.8582  0.0608
   49MOL    H4415500   6.833   3.730   2.575 -0.8174  0.3419 -0.0226
   49MOL    H4515501   6.981   3.911   2.485 -0.1386  2.3977  0.4864
   49MOL    H4615502   6.697   4.056   2.233  1.2860  1.4013  1.1533
   49MOL    H4715503   6.523   3.871   2.302  0.3740 -0.0791  0.0610
   49MOL    H4815504   6.504   3.847   2.659 -1.8611  1.6553 -3.2178
   49MOL    H4915505   6.380   3.780   2.560  1.4728  2.2319 -2.3380
   49MOL    C5015506   6.408   3.660   2.740  0.5736  0.0409  0.3483
   49MOL    C5115507   6.522   3.616   2.833  0.0830 -0.0061  0.1938
   49MOL    C5215508   6.523   3.491   2.893 -0.0676 -0.0400  0.2400
   49MOL    C5315509   6.623   3.441   2.979 -0.2178 -0.5346 -0.3915
   49MOL    C5415510   6.727   3.530   3.004 -0.0055  0.3063  0.2454
   49MOL    F5515511   6.826   3.481   3.083 -0.1220  0.1598  0.5837
   49MOL    C5615512   6.738   3.657   2.945  0.2936 -0.5220  0.5546
   49MOL    C5715513   6.628   3.699   2.864 -0.0707 -0.4012 -0.3780
   49MOL    C5815514   6.289   3.725   2.816  0.6327 -0.3943  0.0709
   49MOL    H5915515   6.374   3.571   2.688  0.1078 -0.0248  0.7558
   49MOL    H6015516   6.452   3.415   2.866 -0.3370 -0.1912  1.3616
   49MOL    H6115517   6.623   3.343   3.026  1.2561 -0.4455 -0.1972
   49MOL    H6215518   6.818   3.720   2.980  0.0161 -0.2664  0.7322
   49MOL    H6315519   6.627   3.794   2.812 -4.2341 -0.0715  0.1026
   49MOL    H6415520   6.278   3.669   2.909 -1.3352  0.0186  0.1068
   49MOL    H6515521   6.323   3.819   2.861 -0.5144  0.6113 -1.1107
   49MOL    C6615522   6.151   3.738   2.735  0.2617  0.0176  0.7259
   49MOL    C6715523   6.126   3.631   2.633 -0.4882 -0.1730 -0.3006
   49MOL    C6815524   6.096   3.672   2.499 -0.0518 -0.5922  0.6766
   49MOL    C6915525   6.051   3.582   2.404 -0.2271  0.0838  0.4903
   49MOL    C7015526   6.049   3.446   2.437 -0.1197  0.6948 -0.0833
   49MOL    F7115527   6.031   3.354   2.341 -0.0318  0.3943 -0.0611
   49MOL    C7215528   6.090   3.401   2.566 -0.7403 -0.4377 -0.3137
   49MOL    C7315529   6.121   3.499   2.664 -0.5048 -0.1179 -0.4661
   49MOL    C7415530   6.031   3.741   2.829 -0.3645  0.2784 -0.4835
   49MOL    H7515531   6.160   3.838   2.694  0.2258  0.1006  0.9216
   49MOL    H7615532   6.114   3.777   2.477 -0.2121 -0.7892 -0.4221
   49MOL    H7715533   6.038   3.618   2.303  1.9703 -0.1282  0.1176
   49MOL    H7815534   6.101   3.297   2.593 -2.0122 -0.9716 -1.8040
   49MOL    H7915535   6.149   3.470   2.764  1.3396 -0.5082 -1.0754
   49MOL    H8015536   6.028   3.638   2.863  1.3677 -0.2502 -1.8674
   49MOL    H8115537   6.068   3.802   2.912  1.1474 -0.6628 -0.4466
   49MOL    C8215538   5.891   3.794   2.780  0.9350  0.4727 -0.0706
   49MOL    C8315539   5.778   3.741   2.865  0.0533  0.5184 -0.4152
   49MOL    C8415540   5.672   3.681   2.797 -0.0640  0.4932 -0.0407
   49MOL    C8515541   5.561   3.629   2.862 -0.1668 -0.7238 -0.6866
   49MOL    C8615542   5.566   3.629   3.006 -0.1393  0.2184  0.4454
   49MOL    F8715543   5.459   3.583   3.070 -0.1106 -0.1144  0.5162
   49MOL    C8815544   5.675   3.681   3.080  0.1777 -0.4758  0.1010
   49MOL    C8915545   5.784   3.731   3.005  0.1945 -0.4936  0.4541
   49MOL    C9015546   5.889   3.949   2.773  0.1166 -0.8961  0.5716
   49MOL    H9115547   5.874   3.757   2.680 -0.9057  2.5298 -0.5538
   49MOL    H9215548   5.663   3.680   2.690  1.8089 -0.3431 -0.2147
   49MOL    H9315549   5.484   3.588   2.799  0.4141 -5.0149  1.2115
   49MOL    H9415550   5.673   3.704   3.186 -0.5904 -0.7284  0.1416
   49MOL    H9515551   5.870   3.772   3.056 -0.5614 -1.5665  2.6619
   49MOL    H9615552   5.903   3.980   2.876 -0.1504  1.7763 -0.1685
   49MOL    H9715553   5.978   3.984   2.721 -0.8911  2.0478  0.7329
   49MOL    C9815554   5.769   4.014   2.711  0.6193 -0.3869  1.0465
   49MOL    C9915555   5.732   4.131   2.789  0.3736  0.1502 -0.6226
   49MOL   C10015556   5.621   4.123   2.879 -0.1879 -0.3851  0.2476
   49MOL   C10115557   5.575   4.234   2.951 -0.2754 -0.7508 -0.0905
   49MOL   C10215558   5.651   4.352   2.946 -0.2380 -0.1687 -0.0126
   49MOL   F10315559   5.611   4.460   3.018  0.0379  0.8523 -0.2516
   49MOL   C10415560   5.761   4.360   2.862 -0.5087  0.1193 -0.3846
   49MOL   C10515561   5.803   4.253   2.779  0.4024  0.0622  0.2035
   49MOL   C10615562   5.772   4.029   2.560  0.5700 -0.9176  0.0281
   49MOL   H10715563   5.687   3.944   2.731  0.6720 -0.7123  0.1250
   49MOL   H10815564   5.562   4.033   2.889 -0.5246 -0.4746 -2.2139
   49MOL   H10915565   5.481   4.230   3.005 -0.8831 -0.6137 -1.1201
   49MOL   H11015566   5.806   4.457   2.851 -1.9567  0.7701 -0.5630
   49MOL   H11115567   5.887   4.261   2.710  0.2293  0.0448 -0.0102
   49MOL   H11215568   5.848   4.103   2.537  0.4278 -0.5835  0.6186
   49MOL   H11315569   5.805   3.931   2.526 -2.2849 -2.0000  0.1906
   49MOL   C11415570   5.652   4.098   2.480  0.5639 -0.2726  0.2774
   49MOL   C11515571   5.692   4.169   2.351 -0.3543 -0.5647 -0.8455
   49MOL   C11615572   5.694   4.105   2.230  0.3998  0.5415 -0.0074
   49MOL   C11715573   5.708   4.180   2.110  0.0192  0.5091 -0.4227
   49MOL   C11815574   5.728   4.324   2.114 -0.2294  0.1957  0.5201
   49MOL   F11915575   5.752   4.398   2.008  0.0685 -0.0784 -0.2551
   49MOL   C12015576   5.735   4.389   2.238  0.0608 -0.4676  0.3754
   49MOL   C12115577   5.721   4.313   2.357 -0.5436  0.0128 -0.5256
   49MOL   C12215578   5.520   4.006   2.480 -0.0615  0.4047 -0.0840
   49MOL   H12315579   5.620   4.181   2.542 -0.5610 -0.3877 -0.1450
   49MOL   H12415580   5.656   4.004   2.227  1.3131  0.2095 -0.9186
   49MOL   H12515581   5.713   4.137   2.011 -1.0210 -0.4218 -0.0833
   49MOL   H12615582   5.752   4.496   2.236 -0.1316 -0.4616 -1.4227
   49MOL   H12715583   5.727   4.367   2.450 -0.3917  0.2025 -0.6463
   49MOL   H12815584   5.552   3.909   2.443  3.3043  0.7037  1.8987
   49MOL   H12915585   5.478   3.979   2.577  0.8372  1.1687  0.5200
   49MOL   C13015586   5.410   4.051   2.382  0.5299 -0.4319  0.1986
   49MOL   C13115587   5.317   3.933   2.348 -0.6052  0.2648  0.2711
   49MOL   C13215588   5.329   3.858   2.225  0.2335  0.2765 -0.4025
   49MOL   C13315589   5.235   3.755   2.199 -0.4839  0.1249  0.3789
   49MOL   C13415590   5.140   3.712   2.297  0.0346 -0.6903 -0.2037
   49MOL   F13515591   5.066   3.600   2.280 -0.1004  0.4238 -0.6601
   49MOL   C13615592   5.129   3.789   2.414  0.8239  0.0247 -0.5381
   49MOL   C13715593   5.217   3.894   2.442  0.0879 -0.8005 -0.2476
   49MOL   C13815594   5.352   4.183   2.442 -0.0951 -0.1114 -0.2189
   49MOL   H13915595   5.457   4.084   2.289 -1.1349  2.2457  0.2289
   49MOL   H14015596   5.397   3.886   2.145 -1.2894  1.8165 -1.1856
   49MOL   H14115597   5.240   3.696   2.108  1.5384 -0.6958  1.0009
   49MOL   H14215598   5.053   3.755   2.483  2.0090 -2.5030 -0.4276
   49MOL   H14315599   5.210   3.947   2.537 -0.8608 -0.9835 -0.2134
   49MOL   H14415600   5.302   4.158   2.535 -0.1817 -1.2054 -0.5559
   49MOL   H14515601   5.431   4.257   2.460  1.4238 -2.4481  3.0676
   49MOL   C14615602   5.250   4.256   2.351 -0.2805  0.3088  0.2583
   49MOL   C14715603   5.120   4.182   2.322  0.0780  0.4554  0.1509
   49MOL   C14815604   5.031   4.164   2.427 -0.4351  0.6482  0.2208
   49MOL   C14915605   4.919   4.084   2.401 -0.5592 -0.4736 -0.3506
   49MOL   C15015606   4.898   4.015   2.275 -0.0590  0.4480 -0.6542
   49MOL   F15115607   4.789   3.938   2.256 -0.3605 -0.3685  0.1470
   49MOL   C15215608   4.989   4.032   2.173 -1.1435  0.0171 -0.2302
   49MOL   C15315609   5.099   4.125   2.193 -0.2116 -0.2084 -0.0029
   49MOL   C15415610   5.228   4.399   2.393 -0.0883  0.3996 -0.4581
   49MOL   H15515611   5.291   4.254   2.250 -1.2610 -0.4210 -0.1318
   49MOL   H15615612   5.047   4.200   2.527 -1.6346 -0.3144  0.7765
   49MOL   H15715613   4.846   4.089   2.480  0.6498  1.0528  0.7122
   49MOL   H15815614   4.975   3.986   2.076 -4.5815 -1.2656  0.8101
   49MOL   H15915615   5.164   4.136   2.107  0.9249 -0.8004  0.7778
   49MOL   H16015616   5.173   4.402   2.487 -1.5345  0.2998 -1.2886
   49MOL   H16115617   5.329   4.437   2.407 -0.0399  0.6631 -1.4594
   49MOL   C16215618   5.157   4.496   2.295 -0.5288  0.2181  0.1592
   49MOL   C16315619   5.103   4.626   2.361 -0.2256 -0.5370  0.3361
   49MOL   C16415620   4.987   4.690   2.322  0.3102  0.4571  0.0410
   49MOL   C16515621   4.953   4.811   2.388 -0.1468  0.0524  0.3813
   49MOL   C16615622   5.023   4.856   2.499 -0.3355 -0.4027 -0.3724
   49MOL   F16715623   4.970   4.955   2.578 -0.1552  0.3546 -0.0485
   49MOL   C16815624   5.136   4.789   2.541 -0.2921  0.4721 -0.4710
   49MOL   C16915625   5.179   4.677   2.471  0.5909 -0.1936 -0.3110
   49MOL   C17015626   5.254   4.537   2.185  0.9014 -1.0083 -1.2464
   49MOL   H17115627   5.065   4.445   2.265 -0.8784 -0.7127  2.6367
   49MOL   H17215628   4.920   4.648   2.249  0.1994 -1.1831  1.0534
   49MOL   H17315629   4.868   4.875   2.369  0.1005  0.0650 -0.7205
   49MOL   H17415630   5.168   4.807   2.643 -2.6919 -0.4122  0.4877
   49MOL   H17515631   5.263   4.619   2.508  0.4917 -0.0476  0.1377
   49MOL   H17615632   5.318   4.615   2.225  0.7519  0.2145 -3.3120
   49MOL   H17715633   5.319   4.452   2.163  0.9753 -0.6885 -2.3029
   49MOL   C17815634   5.192   4.585   2.046 -0.5229 -0.0147 -0.9349
   49MOL   C17915635   5.307   4.658   1.967 -0.0731  0.2622 -0.1545
   49MOL   C18015636   5.424   4.592   1.929  0.6414 -0.7542  0.4278
   49MOL   C18115637   5.514   4.656   1.841 -0.5817  0.1018 -0.5180
   49MOL   C18215638   5.505   4.790   1.809 -0.3525  0.1668  0.6650
   49MOL   F18315639   5.590   4.854   1.728  0.6374  0.3362 -0.1321
   49MOL   C18415640   5.391   4.860   1.851 -0.2857 -0.6140 -1.1628
   49MOL   C18515641   5.295   4.794   1.923  0.8633  0.7353 -0.5721
   49MOL   C18615642   5.130   4.474   1.965 -0.5683  0.7828  0.0686
   49MOL   H18715643   5.113   4.655   2.072 -0.4605 -0.2179 -0.1554
   49MOL   H18815644   5.441   4.492   1.964 -1.2784 -1.8778 -1.6992
   49MOL   H18915645   5.600   4.594   1.822 -1.3365 -1.1499  0.1139
   49MOL   H19015646   5.373   4.965   1.836 -1.9347 -0.5524  0.8317
   49MOL   H19115647   5.204   4.845   1.949  0.8287 -0.8700  2.7787
   49MOL   H19215648   5.216   4.415   1.935  0.0400  2.0625 -0.7891
   49MOL   H19315649   5.079   4.407   2.034 -1.9634  1.5416 -0.2178
   49MOL   C19415650   5.045   4.514   1.841  0.0994  0.1415  0.4234
   49MOL   C19515651   5.102   4.600   1.734  0.4235  0.1377 -0.3028
   49MOL   C19615652   5.054   4.727   1.715 -0.6103 -0.4878  0.7343
   49MOL   C19715653   5.094   4.812   1.601 -0.3053 -0.2935 -0.6049
   49MOL   C19815654   5.172   4.751   1.503 -0.3971  0.1977 -0.3391
   49MOL   F19915655   5.194   4.822   1.388 -0.3426 -0.7243  0.3718
   49MOL   C20015656   5.219   4.621   1.520  0.3179  0.2327  0.3594
   49MOL   C20115657   5.190   4.551   1.639  0.1393 -0.0666 -0.3034
   49MOL   C20215658   4.968   4.387   1.792  0.2415 -0.1039  0.2719
   49MOL   H20315659   4.968   4.575   1.889  0.2502  0.1834  0.6129
   49MOL   H20415660   4.989   4.774   1.788 -2.4570  0.5711 -1.5508
   49MOL   H20515661   5.059   4.912   1.582 -0.9592  0.0173  2.1077
   49MOL   H20615662   5.276   4.564   1.448 -0.8244 -2.2667  1.3543
   49MOL   H20715663   5.240   4.456   1.654  1.2306  0.5627  0.1490
   49MOL   H20815664   5.031   4.326   1.727  0.9186 -0.1855  0.9820
   49MOL   H20915665   4.951   4.321   1.877  0.7910  0.5334  0.8843
   49MOL   C21015666   4.838   4.426   1.725 -0.1047  0.5675 -0.3978
   49MOL   C21115667   4.860   4.429   1.579  0.0416  0.6340  0.4070
   49MOL   C21215668   4.855   4.551   1.509  0.5301  0.6993  0.4585
   49MOL   C21315669   4.894   4.560   1.372  0.1121 -0.0552  0.5377
   49MOL   C21415670   4.933   4.445   1.301  0.3211  0.7120 -0.5622
   49MOL   F21515671   4.981   4.455   1.181 -0.8418  0.6338  0.1829
   49MOL   C21615672   4.916   4.320   1.365 -0.5556  0.4488  0.0130
   49MOL   C21715673   4.876   4.311   1.503 -0.1054  0.8097  0.2653
   49MOL   C21815674   4.717   4.349   1.770 -0.4254 -0.1572  0.2610
   49MOL   H21915675   4.814   4.530   1.749 -1.8673 -0.2834  1.6844
   49MOL   H22015676   4.820   4.639   1.562 -1.6619  0.2524 -0.2201
   49MOL   H22115677   4.913   4.652   1.319  3.1234 -1.9254 -1.7620
   49MOL   H22215678   4.956   4.233   1.315  0.5606  0.0970  1.4636
   49MOL   H22315679   4.870   4.214   1.549  3.1023  0.8575  0.8493
   49MOL   H22415680   4.637   4.368   1.699  0.2248  0.2513 -0.3717
   49MOL   H22515681   4.734   4.241   1.765 -1.4179 -0.3653  1.2603
   49MOL   C22615682   4.660   4.382   1.908 -0.3052 -0.4497  0.5373
   49MOL   C22715683   4.627   4.528   1.925  0.2734  0.0038 -0.1121
   49MOL   C22815684   4.515   4.585   1.863  0.3104  0.2754  0.1264
   49MOL   C22915685   4.478   4.716   1.893  0.0185 -0.0348  0.3578
   49MOL   C23015686   4.551   4.797   1.978 -0.0100  0.3334 -0.1264
   49MOL   F23115687   4.526   4.927   1.992 -0.0582 -0.2415  0.0054
   49MOL   C23215688   4.661   4.742   2.053 -0.5814 -0.0522 -0.7641
   49MOL   C23315689   4.698   4.607   2.020  0.1216 -0.0736 -0.2290
   49MOL   C23415690   4.545   4.285   1.946  0.0108 -0.6844  0.1112
   49MOL   H23515691   4.738   4.351   1.977 -0.0676 -1.0807 -0.0036
   49MOL   H23615692   4.460   4.525   1.791 -1.3297  0.7489  0.9696
   49MOL   H23715693   4.396   4.759   1.836 -1.7377 -2.3249  1.1201
   49MOL   H23815694   4.711   4.795   2.133 -1.7563 -0.2549  0.1139
   49MOL   H23915695   4.775   4.555   2.074  0.0568 -0.7424 -0.7844
   49MOL   H24015696   4.460   4.286   1.877 -0.7442 -3.4201  0.8925
   49MOL   H24115697   4.574   4.180   1.951 -1.7399 -1.1892  0.2767
   49MOL   C24215698   4.474   4.317   2.083  0.0389 -0.0470 -0.3769
   49MOL   C24315699   4.354   4.219   2.086  0.2368  0.3240 -0.2996
   49MOL   C24415700   4.367   4.079   2.054  0.4843 -0.1707  0.4270
   49MOL   C24515701   4.255   3.994   2.034  0.3010 -0.2560  0.1751
   49MOL   C24615702   4.129   4.047   2.061 -0.2289  0.1724 -0.1399
   49MOL   F24715703   4.017   3.971   2.049 -0.1829  0.1447  0.4944
   49MOL   C24815704   4.109   4.181   2.095  0.1743 -0.7021 -0.4670
   49MOL   C24915705   4.222   4.267   2.114  1.0518  0.1416 -0.1157
   49MOL   C25015706   4.557   4.299   2.207 -0.1276 -1.2175 -0.4358
   49MOL   H25115707   4.434   4.418   2.081 -1.9372 -0.7466  0.9719
   49MOL   H25215708   4.460   4.030   2.028  0.4608  0.4949 -0.9687
   49MOL   H25315709   4.271   3.889   2.013 -0.9613 -0.2472 -0.9579
   49MOL   H25415710   4.011   4.221   2.115  0.5999  1.2590 -2.0943
   49MOL   H25515711   4.206   4.372   2.134  1.9734  0.2412  0.0940
   49MOL   H25615712   4.580   4.196   2.234  1.5279 -0.9695 -0.8092
   49MOL   H25715713   4.657   4.339   2.191  0.1461 -1.6596  0.1414
   49MOL   C25815714   4.504   4.364   2.336  0.6694  0.3668  0.4108
   49MOL   C25915715   4.595   4.340   2.453  0.1437  0.3963 -0.7011
   49MOL   C26015716   4.720   4.404   2.467  0.2826 -0.1378  0.5310
   49MOL   C26115717   4.796   4.401   2.584  0.0381 -0.0837  0.1262
   49MOL   C26215718   4.751   4.317   2.687 -0.0999  0.5238  0.3737
   49MOL   F26315719   4.810   4.323   2.808  0.4816 -0.6689  0.2200
   49MOL   C26415720   4.636   4.242   2.672  0.3475 -0.6520 -0.3210
   49MOL   C26515721   4.559   4.250   2.553  0.2428 -0.1090 -0.1727
   49MOL   C26615722   4.480   4.523   2.329 -0.1256 -0.0591 -0.0699
   49MOL   H26715723   4.411   4.315   2.364  1.0717 -0.6644 -0.0295
   49MOL   H26815724   4.765   4.456   2.384  1.2439 -0.9820  0.5059
   49MOL   H26915725   4.889   4.455   2.593  0.2231 -0.6185  1.5620
   49MOL   H27015726   4.598   4.195   2.761 -1.2210  2.6665  0.8823
   49MOL   H27115727   4.466   4.197   2.550 -1.7140  3.1717 -0.3971
   49MOL   H27215728   4.576   4.564   2.299  0.4090 -0.3680  1.2079
   49MOL   H27315729   4.410   4.554   2.251 -2.3227 -3.3581  0.4927
   49MOL   C27415730   4.425   4.590   2.457  0.1521  0.0970 -0.1677
   49MOL   C27515731   4.452   4.738   2.474  0.0222  0.3243 -0.8018
   49MOL   C27615732   4.541   4.773   2.578 -0.0039  0.3741 -0.2170
   49MOL   C27715733   4.571   4.910   2.586  0.1203 -0.1458  0.0896
   49MOL   C27815734   4.507   5.013   2.509  0.2532 -0.5102  0.6309
   49MOL   F27915735   4.538   5.144   2.523  0.1453  0.1354 -0.1929
   49MOL   C28015736   4.414   4.971   2.412 -0.4858 -0.3706 -0.3354
   49MOL   C28115737   4.396   4.834   2.389  0.4873  0.2763  0.7266
   49MOL   C28215738   4.275   4.549   2.473  0.3839 -0.0975 -0.1320
   49MOL   H28315739   4.486   4.544   2.535  0.3942 -1.7450 -1.4188
   49MOL   H28415740   4.586   4.703   2.648  1.4388  1.1159 -0.3767
   49MOL   H28515741   4.635   4.944   2.666 -0.1072  0.1871  0.1321
   49MOL   H28615742   4.344   5.039   2.366 -0.4322  1.7442  2.5327
   49MOL   H28715743   4.318   4.805   2.320  0.2103 -2.4229  2.0924
   49MOL   H28815744   4.237   4.591   2.380  0.1497  1.7792  0.7767
   49MOL   H28915745   4.249   4.444   2.464  1.2621 -0.4224  0.9965
   49MOL   C29015746   4.205   4.605   2.592  0.2702 -0.3268  0.7100
   49MOL   C29115747   4.059   4.616   2.559  0.1147 -0.1139  0.8939
   49MOL   C29215748   3.967   4.510   2.575 -0.0519 -0.3478 -1.2911
   49MOL   C29315749   3.834   4.511   2.537 -0.3092 -0.0768  0.7613
   49MOL   C29415750   3.787   4.625   2.474 -0.2421  0.6481  0.0114
   49MOL   F29515751   3.656   4.639   2.441  0.5136 -0.0223  0.0594
   49MOL   C29615752   3.875   4.730   2.452 -0.2055  0.2007  0.1532
   49MOL   C29715753   4.008   4.732   2.495 -0.4637  0.5835  0.3737
   49MOL   C29815754   4.253   4.529   2.718  0.4113  0.2225  0.2765
   49MOL   H29915755   4.238   4.706   2.615  0.2986  0.0304 -0.8536
   49MOL   H30015756   4.001   4.426   2.633 -0.6981  0.3005  0.0305
   49MOL   H30115757   3.761   4.432   2.549 -0.4845 -0.6050 -3.0841
   49MOL   H30215758   3.822   4.805   2.397 -1.5890 -0.7798  0.1338
   49MOL   H30315759   4.068   4.822   2.485 -0.7210  0.7083 -0.0353
   49MOL   H30415760   4.223   4.425   2.713 -0.4506  0.5484 -1.5462
   49MOL   H30515761   4.357   4.550   2.744  1.2619 -2.1267 -1.1301
   49MOL   C30615762   4.194   4.568   2.857  0.4387  0.1331 -0.3560
   49MOL   C30715763   4.258   4.485   2.968 -0.1361 -0.1002 -0.0134
   49MOL   C30815764   4.351   4.378   2.941 -0.1963  1.2432 -0.2710
   49MOL   C30915765   4.412   4.306   3.047  0.9062  0.0127  0.5045
   49MOL   C31015766   4.370   4.327   3.180 -0.2140  0.5276  0.3380
   49MOL   F31115767   4.414   4.255   3.285 -0.0241 -0.3346  0.2901
   49MOL   C31215768   4.272   4.424   3.209  0.0423  0.2752  0.4452
   49MOL   C31315769   4.211   4.499   3.106 -0.5117  0.4989  0.4347
   49MOL   C31415770   4.218   4.716   2.893  0.5989  0.2129  0.3678
   49MOL   H31515771   4.089   4.541   2.860 -0.1541  2.1263 -1.7907
   49MOL   H31615772   4.398   4.365   2.845 -0.1813 -0.1452 -0.0880
   49MOL   H31715773   4.495   4.240   3.026  1.0923  0.6689 -0.8650
   49MOL   H31815774   4.239   4.433   3.311 -1.0682  0.8023  0.0475
   49MOL   H31915775   4.143   4.580   3.128 -0.5663  0.7795 -0.7366
   49MOL   H32015776   4.323   4.742   2.885  0.0217  1.9918 -1.7418
   49MOL   H32115777   4.157   4.778   2.828 -1.2099 -0.8442  1.0116
   49MOL   H32215778   4.200   4.744   2.997  0.0384 -0.8129  0.5597
   50MOL     C115779   1.442   7.061   7.819 -0.2396  0.4764  0.4262
   50MOL     C215780   1.392   6.971   7.927  0.0509 -0.1394  0.1197
   50MOL     C315781   1.366   7.020   8.057 -0.2771 -0.1030 -0.5640
   50MOL     C415782   1.324   6.937   8.161  0.3521  0.1597 -0.0561
   50MOL     C515783   1.314   6.797   8.134  0.6646 -0.3718  0.1917
   50MOL     F615784   1.293   6.711   8.233  1.1363 -0.3118  0.1203
   50MOL     C715785   1.333   6.750   8.002 -0.3790  0.2193 -0.4957
   50MOL     C815786   1.379   6.834   7.900 -0.0630 -0.1000  0.2901
   50MOL     C915787   1.331   7.127   7.743  0.8216  0.2605  0.0097
   50MOL    H1015788   1.499   6.995   7.753 -0.5344  1.0990 -0.4688
   50MOL    H1115789   1.397   7.122   8.078 -0.6952  0.0630 -0.7521
   50MOL    H1215790   1.303   6.973   0.026  1.5394  2.7308 -0.7015
   50MOL    H1315791   1.313   6.647   7.976 -1.4456  0.4965 -0.8491
   50MOL    H1415792   1.400   6.790   7.804  0.0978 -0.0642  0.3081
   50MOL    H1515793   1.262   7.046   7.720  1.5440 -0.4601  0.3831
   50MOL    H1615794   1.286   7.195   7.815  1.2370 -0.2026  0.7034
   50MOL    H1715795   1.515   7.135   7.853  0.4733 -0.5993  1.2666
   50MOL    C1815796   1.381   7.202   7.615 -0.2649  0.4413 -0.0138
   50MOL    C1915797   1.430   7.094   7.515 -0.7258 -0.9523 -0.2198
   50MOL    C2015798   1.335   7.020   7.443  0.1100  0.1661 -0.2257
   50MOL    C2115799   1.379   6.918   7.351 -0.1313 -0.3682  0.1790
   50MOL    C2215800   1.518   6.900   7.328 -0.3120 -0.0894  0.1460
   50MOL    F2315801   1.557   6.806   7.235  0.0613  0.7047  0.2070
   50MOL    C2415802   1.616   6.978   7.397 -0.2355  0.2965 -0.5712
   50MOL    C2515803   1.569   7.074   7.495 -0.0204  0.2308  0.7830
   50MOL    C2615804   1.283   7.301   7.557  0.7741  0.3576  0.5322
   50MOL    H2715805   1.468   7.258   7.649 -0.6580  0.2394  1.3830
   50MOL    H2815806   1.230   7.023   7.470  0.5359  0.7919  1.4061
   50MOL    H2915807   1.305   6.863   7.294 -2.0295  1.9208  0.3968
   50MOL    H3015808   1.722   6.972   7.380 -0.0463  0.1501  0.6014
   50MOL    H3115809   1.640   7.139   7.542 -0.5476  0.8610  0.7165
   50MOL    H3215810   1.319   7.346   7.464 -0.7474 -1.5994 -1.0511
   50MOL    H3315811   1.190   7.253   7.526  0.4798  0.6275  0.9874
   50MOL    C3415812   1.234   7.418   7.643  0.0648 -0.8868  0.3892
   50MOL    C3515813   1.352   7.501   7.702 -0.6009 -0.0707 -0.5139
   50MOL    C3615814   1.450   7.564   7.624  0.0323 -0.1188  0.0519
   50MOL    C3715815   1.565   7.630   7.680 -0.5010 -0.1474  0.2157
   50MOL    C3815816   1.576   7.631   7.820  0.2585 -0.1940  0.4275
   50MOL    F3915817   1.677   7.689   7.881 -0.4995  0.0356  0.1315
   50MOL    C4015818   1.478   7.577   7.902 -1.1863 -0.5172  0.0198
   50MOL    C4115819   1.369   7.506   7.837 -0.7982  0.5783 -0.9336
   50MOL    C4215820   1.151   7.515   7.552 -0.0492 -0.1410  0.6621
   50MOL    H4315821   1.161   7.373   7.711 -2.0408 -0.4225 -1.4983
   50MOL    H4415822   1.442   7.548   7.518  0.9434  1.5910 -0.2913
   50MOL    H4515823   1.631   7.684   7.614 -0.6433  1.0769  1.0745
   50MOL    H4615824   1.507   7.564   8.006 -0.2721  0.1358 -0.1486
   50MOL    H4715825   1.295   7.447   7.890  0.9005 -1.0995 -0.3795
   50MOL    H4815826   1.196   7.539   7.456 -1.7199  2.7178  0.5374
   50MOL    H4915827   1.075   7.450   7.509  1.2077 -0.7912 -0.6156
   50MOL    C5015828   1.097   7.649   7.620 -0.2215  0.6619  0.0520
   50MOL    C5115829   1.085   7.764   7.525 -0.4933 -0.0644  0.1210
   50MOL    C5215830   1.166   7.882   7.532 -0.3088  0.5490  0.0907
   50MOL    C5315831   1.150   7.991   7.441  0.2853  0.1706 -0.1993
   50MOL    C5415832   1.053   7.979   7.342 -0.4738  0.6350 -0.8143
   50MOL    F5515833   1.042   8.072   7.242 -0.2120 -0.1653  0.0457
   50MOL    C5615834   0.971   7.863   7.340  1.2558  0.3030 -0.1352
   50MOL    C5715835   0.976   7.764   7.438 -0.3735  0.2499  0.4506
   50MOL    C5815836   0.970   7.622   7.691 -0.1227  0.1692  0.3445
   50MOL    H5915837   1.171   7.692   7.687  1.0912 -1.5107  0.0422
   50MOL    H6015838   1.239   7.896   7.611  1.3329  0.2655 -1.3435
   50MOL    H6115839   1.207   8.082   7.452  0.0139  0.3625 -0.3825
   50MOL    H6215840   0.903   7.848   7.257  0.3971  2.5921  0.1074
   50MOL    H6315841   0.899   7.691   7.457  0.8258 -0.7823  1.4627
   50MOL    H6415842   0.884   7.592   7.630 -1.5022 -0.3362  2.4956
   50MOL    H6515843   0.982   7.536   7.757 -0.0771  0.9393  1.3395
   50MOL    C6615844   0.921   7.723   7.794 -0.3545  0.8011 -0.1728
   50MOL    C6715845   1.031   7.787   7.879 -0.0540 -0.3368 -0.3651
   50MOL    C6815846   1.076   7.919   7.858  0.1091  0.8586 -0.0471
   50MOL    C6915847   1.192   7.976   7.922  0.8731 -0.1366  0.2875
   50MOL    C7015848   1.260   7.895   8.018 -0.2667 -0.5239 -0.0281
   50MOL    F7115849   1.366   7.954   8.076 -0.0641 -0.1064  0.1915
   50MOL    C7215850   1.218   7.759   8.036  0.3339  0.4109 -0.6560
   50MOL    C7315851   1.108   7.710   7.965 -0.0754  0.1187 -0.4096
   50MOL    C7415852   0.815   7.820   7.735 -0.4491  0.0836 -0.0981
   50MOL    H7515853   0.871   7.674   7.877  1.0381  0.4458  0.4725
   50MOL    H7615854   1.040   7.978   7.775  0.5105 -0.0360 -0.8605
   50MOL    H7715855   1.223   8.077   7.902  0.1342  0.2117  0.9031
   50MOL    H7815856   1.272   7.695   8.103 -1.8899 -0.7882  0.0213
   50MOL    H7915857   1.085   7.605   7.981  1.0603  0.0730  0.9778
   50MOL    H8015858   0.819   7.905   7.803 -0.7503 -1.0040  1.3007
   50MOL    H8115859   0.859   7.866   7.646  0.6961  3.2302  1.9876
   50MOL    C8215860   0.666   7.776   7.734 -0.8133 -0.0899  0.4152
   50MOL    C8315861   0.628   7.686   7.851  0.1259 -0.0615 -0.3912
   50MOL    C8415862   0.621   7.738   7.981 -0.3100  0.4208  0.4635
   50MOL    C8515863   0.600   7.650   8.091 -0.8073 -0.3810 -0.2452
   50MOL    C8615864   0.569   7.511   8.071  0.0169 -0.2421 -0.4119
   50MOL    F8715865   0.530   7.427   8.172 -0.0331  0.0223 -0.0207
   50MOL    C8815866   0.567   7.464   7.936 -0.1232 -0.5277 -0.4657
   50MOL    C8915867   0.597   7.552   7.830 -0.0682  0.3240  0.0162
   50MOL    C9015868   0.572   7.896   7.722 -1.7237  0.4425  0.3498
   50MOL    H9115869   0.667   7.714   7.644  0.5596 -0.7169  0.8365
   50MOL    H9215870   0.644   7.843   7.991  0.1911  0.4317 -0.7744
   50MOL    H9315871   0.601   7.686   8.192 -0.1694 -2.3394  0.4655
   50MOL    H9415872   0.537   7.362   7.920 -3.2156  0.0032  1.3197
   50MOL    H9515873   0.592   7.512   7.730 -1.5532 -2.5344  1.1850
   50MOL    H9615874   0.472   7.866   7.753 -0.9388 -0.6780  1.8492
   50MOL    H9715875   0.598   7.970   7.798  0.6075  0.1551 -0.1401
   50MOL    C9815876   0.576   7.962   7.585  0.2798  0.2281 -0.0463
   50MOL    C9915877   0.506   7.877   7.472  0.6072  1.2653 -0.1034
   50MOL   C10015878   0.366   7.866   7.467 -0.9818  0.0373  0.0458
   50MOL   C10115879   0.297   7.808   7.358 -0.1100  0.2474 -0.8833
   50MOL   C10215880   0.376   7.755   7.257 -0.4201 -0.0726  0.3352
   50MOL   F10315881   0.322   7.690   7.152  0.4599 -0.6562 -0.2396
   50MOL   C10415882   0.516   7.757   7.266  0.1065  0.0619 -0.9156
   50MOL   C10515883   0.581   7.816   7.371 -0.7217  0.0783  0.5950
   50MOL   C10615884   0.516   8.100   7.588 -0.4301 -0.6023  0.0483
   50MOL   H10715885   0.679   7.965   7.551  1.3334  0.5017  3.0409
   50MOL   H10815886   0.307   7.912   7.545 -1.4776  0.3762 -0.5257
   50MOL   H10915887   0.189   7.802   7.356 -0.0099 -1.4724 -3.2024
   50MOL   H11015888   0.572   7.728   7.178  1.2725  1.0176 -0.5057
   50MOL   H11115889   0.688   7.808   7.365 -0.9156 -0.8531 -2.8396
   50MOL   H11215890   0.502   8.154   7.494 -0.4776 -0.9693 -0.1547
   50MOL   H11315891   0.419   8.091   7.635 -1.4848 -1.1798 -2.1609
   50MOL   C11415892   0.601   8.209   7.664  0.4270  0.6016  0.3991
   50MOL   C11515893   0.727   0.001   7.585 -0.2536  0.0479  0.1767
   50MOL   C11615894   0.726   0.083   7.473  0.4201 -0.3645  0.4597
   50MOL   C11715895   0.841   0.104   7.398 -0.0774  0.9146  0.2655
   50MOL   C11815896   0.965   0.063   7.446  0.1395 -0.8429  0.3227
   50MOL   F11915897   1.080   0.103   7.386 -0.0671  0.3682 -0.2926
   50MOL   C12015898   0.965   8.226   7.564 -0.5118 -0.3419 -0.1877
   50MOL   C12115899   0.850   8.193   7.631 -0.0312  0.2651  0.4172
   50MOL   C12215900   0.505   0.099   7.673 -1.1511  0.6964 -0.6529
   50MOL   H12315901   0.624   8.172   7.764  1.8236 -1.9041 -0.8140
   50MOL   H12415902   0.635   0.136   7.446  0.9590  0.7153  0.7401
   50MOL   H12515903   0.835   0.158   7.305  0.4547  2.1029  0.9132
   50MOL   H12615904   1.057   8.183   7.602 -0.2959 -0.0398 -0.3665
   50MOL   H12715905   0.865   8.134   7.720 -1.6107 -1.0386 -0.1570
   50MOL   H12815906   0.468   0.114   7.572 -1.5228 -3.1584 -1.1560
   50MOL   H12915907   0.412   0.084   7.728 -2.3191  1.6701 -2.3404
   50MOL   C13015908   0.569   0.228   7.734  0.0144  0.9773  0.0725
   50MOL   C13115909   0.482   0.350   7.711  0.0530  0.5264 -0.0051
   50MOL   C13215910   0.353   0.360   7.773 -0.2664 -0.7970 -0.0548
   50MOL   C13315911   0.280   0.482   7.755  0.0980 -0.5793 -0.0911
   50MOL   C13415912   0.327   0.579   7.668 -0.0901 -0.3998 -1.1764
   50MOL   F13515913   0.257   0.694   7.658 -0.1220 -0.4486  0.5609
   50MOL   C13615914   0.455   0.572   7.608  0.4086 -0.2244 -0.4662
   50MOL   C13715915   0.532   0.459   7.635 -0.1090 -0.3527  0.2897
   50MOL   C13815916   0.597   0.210   7.891 -0.6578  0.1307 -0.3144
   50MOL   H13915917   0.661   0.256   7.684 -1.0345  2.4950 -1.0492
   50MOL   H14015918   0.312   0.283   7.836  2.0663 -1.7764  0.3091
   50MOL   H14115919   0.187   0.493   7.809  0.0735  1.5836 -0.5002
   50MOL   H14215920   0.489   0.663   7.561  0.5049 -0.0945 -0.1408
   50MOL   H14315921   0.625   0.433   7.586 -1.5008 -2.4131 -1.3427
   50MOL   H14415922   0.504   0.182   7.940 -0.5020  2.5049  1.3852
   50MOL   H14515923   0.666   0.127   7.902 -2.8933 -1.4296  2.7123
   50MOL   C14615924   0.650   0.335   7.965 -0.2787 -0.1612 -0.0399
   50MOL   C14715925   0.633   0.326   8.121  0.3921  0.4140  0.6024
   50MOL   C14815926   0.652   0.207   8.189 -0.1228  0.1917  0.2408
   50MOL   C14915927   0.657   0.204   0.095  0.0520  0.6631 -0.2861
   50MOL   C15015928   0.628   0.324   0.162  0.4021  0.0835 -0.0201
   50MOL   F15115929   0.634   0.329   0.301 -0.2814 -0.4638  0.4837
   50MOL   C15215930   0.627   0.452   0.095  0.2676  0.5103  0.3633
   50MOL   C15315931   0.629   0.454   8.189 -0.4502 -0.1728  0.3820
   50MOL   C15415932   0.799   0.357   7.928  0.1271  0.1890  0.5952
   50MOL   H15515933   0.596   0.424   7.933  0.2630  0.5809  1.1076
   50MOL   H15615934   0.665   0.116   8.133 -1.2772 -1.3061  2.3405
   50MOL   H15715935   0.676   0.114   0.152 -1.7489  0.1258 -0.5031
   50MOL   H15815936   0.630   0.546   0.149 -1.1723  1.0458 -0.4691
   50MOL   H15915937   0.636   0.553   8.147  2.9457 -0.1401  0.8324
   50MOL   H16015938   0.850   0.294   8.001 -1.6871 -3.3098 -1.0239
   50MOL   H16115939   0.828   0.317   7.831 -2.5134  1.7118 -0.8779
   50MOL   C16215940   0.832   0.512   7.937  0.1028 -0.6078  0.2706
   50MOL   C16315941   0.961   0.537   8.017  0.1041  0.3551 -0.0173
   50MOL   C16415942   1.082   0.495   7.964 -0.2834 -0.1491 -0.0356
   50MOL   C16515943   1.199   0.506   8.046  0.6548  0.2703 -0.2303
   50MOL   C16615944   1.200   0.556   8.177  0.4708 -0.4127 -0.0459
   50MOL   F16715945   1.310   0.559   0.016  0.3462  0.2462  0.2595
   50MOL   C16815946   1.075   0.612   8.221 -0.2579 -0.4303  0.2347
   50MOL   C16915947   0.958   0.597   8.145  0.5340 -0.7320  0.3778
   50MOL   C17015948   0.839   0.584   7.803  0.0905 -0.1081 -0.2237
   50MOL   H17115949   0.762   0.574   7.992 -0.6875  1.2943 -2.7721
   50MOL   H17215950   1.096   0.462   7.863 -0.1810  1.7063 -0.6508
   50MOL   H17315951   1.285   0.473   7.990 -0.2378 -1.7334 -0.4529
   50MOL   H17415952   1.070   0.659   0.084 -0.6556 -1.8448  0.9075
   50MOL   H17515953   0.863   0.622   8.191  0.7986  0.4017  0.3277
   50MOL   H17615954   0.922   0.539   7.749 -1.0723 -0.9275 -1.3544
   50MOL   H17715955   0.749   0.571   7.742  0.0427 -1.0793  0.0478
   50MOL   C17815956   0.842   0.742   7.816  0.5014  0.1943  0.0482
   50MOL   C17915957   0.949   0.806   7.727  0.2564 -0.2478 -0.4076
   50MOL   C18015958   1.052   0.886   7.789  0.8913 -0.1432  0.0596
   50MOL   C18115959   1.156   0.935   7.709 -0.2391  0.6099 -0.5015
   50MOL   C18215960   1.155   0.921   7.566 -0.6556 -0.3317 -0.1162
   50MOL   F18315961   1.244   0.987   7.485  0.0345  0.4222 -0.2939
   50MOL   C18415962   1.049   0.853   7.503  0.6242  0.2240  0.5317
   50MOL   C18515963   0.955   0.789   7.589 -0.5343  0.3926 -0.8777
   50MOL   C18615964   0.702   0.810   7.788  0.0132 -0.2374  0.2133
   50MOL   H18715965   0.875   0.759   7.919  0.1634  1.2136  0.0012
   50MOL   H18815966   1.056   0.893   7.897 -1.4240  3.4785 -0.0106
   50MOL   H18915967   1.238   0.991   7.752 -0.3476 -0.1606  0.7136
   50MOL   H19015968   1.036   0.839   7.396 -0.8583 -1.0483  0.8587
   50MOL   H19115969   0.880   0.725   7.545 -1.7353  1.1020  0.1126
   50MOL   H19215970   0.716   0.905   7.736 -2.3516 -0.7516 -1.4664
   50MOL   H19315971   0.651   0.747   7.715  1.8577  0.1272 -1.4275
   50MOL   C19415972   0.620   0.834   7.918 -0.1775  0.0824 -0.4150
   50MOL   C19515973   0.698   0.923   8.016 -0.8398  0.1268  0.7940
   50MOL   C19615974   0.722   0.884   8.150  0.0941  0.3325  0.1806
   50MOL   C19715975   0.795   0.966   0.005  0.2894  0.2834  0.3785
   50MOL   C19815976   0.838   1.084   8.195 -0.2340 -0.7498 -0.2943
   50MOL   F19915977   0.916   1.162   0.042  0.1962 -0.7765 -0.6934
   50MOL   C20015978   0.815   1.122   8.061 -0.0089 -0.2501 -0.9333
   50MOL   C20115979   0.755   1.040   7.971  0.0398 -0.1078  0.0518
   50MOL   C20215980   0.479   0.884   7.890  1.2881 -0.9532  1.0187
   50MOL   H20315981   0.612   0.735   7.963 -0.1190  0.9900  1.6395
   50MOL   H20415982   0.685   0.793   8.193  0.0266 -0.0076 -0.5795
   50MOL   H20515983   0.817   0.930   0.104  1.3094 -1.7585 -0.5688
   50MOL   H20615984   0.853   1.216   8.022 -0.3441  0.2225 -0.1280
   50MOL   H20715985   0.744   1.071   7.868  0.9861  0.3476  0.0809
   50MOL   H20815986   0.486   0.989   7.862  0.5863 -1.8355 -2.6646
   50MOL   H20915987   0.434   0.827   7.809  0.8893 -1.7490  1.7800
   50MOL   C21015988   0.380   0.869   8.009  0.1379 -0.0741 -0.6181
   50MOL   C21115989   0.270   0.967   7.979 -0.0244 -0.4706  0.5098
   50MOL   C21215990   0.285   1.109   8.007  0.7944 -0.0846  0.0048
   50MOL   C21315991   0.189   1.197   7.961  0.0970  0.3225 -0.2601
   50MOL   C21415992   0.079   1.148   7.889 -0.2253 -0.7075 -0.5298
   50MOL   F21515993   8.213   1.235   7.855  0.2151 -0.1579 -0.2244
   50MOL   C21615994   0.064   1.013   7.864  0.3315 -0.3755 -0.5380
   50MOL   C21715995   0.159   0.925   7.901 -0.6654  0.0115  0.0853
   50MOL   C21815996   0.340   0.718   8.029  0.1674 -0.6468 -0.0588
   50MOL   H21915997   0.423   0.915   8.098 -2.5070 -0.3733  0.8673
   50MOL   H22015998   0.375   1.141   8.058 -0.0308  0.8132  0.9006
   50MOL   H22115999   0.198   1.304   7.969 -1.5772  0.5328 -0.9192
   50MOL   H22216000   8.213   0.979   7.808 -0.4435 -1.0059  1.0276
   50MOL   H22316001   0.138   0.822   7.877  1.6224 -0.1453 -1.3350
   50MOL   H22416002   0.271   0.685   7.952 -1.5378  1.2924  0.5776
   50MOL   H22516003   0.433   0.662   8.022 -0.2745 -1.4446  0.4644
   50MOL   C22616004   0.281   0.699   8.172 -0.3341 -0.4140 -0.6059
   50MOL   C22716005   0.234   0.549   8.197  0.1608 -0.0228 -0.0991
   50MOL   C22816006   0.285   0.439   8.127 -0.1943 -0.1589 -0.4408
   50MOL   C22916007   0.259   0.301   8.161 -0.0918  0.5091  0.6117
   50MOL   C23016008   0.167   0.275   0.031  0.4589 -0.6286  0.9701
   50MOL   F23116009   0.145   0.148   0.072 -0.0176 -0.5372  0.2315
   50MOL   C23216010   0.108   0.384   0.094 -0.1051 -0.6695  0.6479
   50MOL   C23316011   0.148   0.514   0.065 -0.5046 -0.4033 -0.8259
   50MOL   C23416012   0.368   0.737   0.059  0.5511 -0.8589 -0.0806
   50MOL   H23516013   0.186   0.752   8.171 -1.6049 -2.5999  0.2664
   50MOL   H23616014   0.363   0.447   8.053  0.9792 -2.3546  0.5025
   50MOL   H23716015   0.313   0.218   8.118 -0.1162 -0.1161  1.7780
   50MOL   H23816016   0.042   0.371   0.179  0.1225 -0.2850  0.8822
   50MOL   H23916017   0.118   0.595   0.130  2.3103 -1.4740  1.9870
   50MOL   H24016018   0.387   0.659   0.134 -1.1106  0.7735  2.1105
   50MOL   H24116019   0.474   0.756   0.038  0.2924 -1.0433 -1.5832
   50MOL   C24216020   0.328   0.862   0.143  0.2429 -0.2069 -0.0649
   50MOL   C24316021   0.243   0.819   0.264 -0.6772  0.3936 -0.5592
   50MOL   C24416022   0.106   0.848   0.280 -0.7152  0.1613  1.2085
   50MOL   C24516023   0.032   0.806   0.395 -0.8551 -0.0205  1.0907
   50MOL   C24616024   0.096   0.725   0.489  0.5180 -0.2075  0.4643
   50MOL   F24716025   0.025   0.685   0.595  0.4214  0.1487 -0.5433
   50MOL   C24816026   0.228   0.684   0.470  0.6307  0.0208  0.5745
   50MOL   C24916027   0.302   0.740   0.365 -0.2986 -0.1933  0.3064
   50MOL   C25016028   0.442   0.959   0.174 -0.1513 -0.4948 -0.3541
   50MOL   H25116029   0.260   0.915   0.076  0.7877  3.8326  2.3820
   50MOL   H25216030   0.057   0.912   0.208 -1.4547  0.4710  1.9695
   50MOL   H25316031   8.167   0.844   0.409 -0.6231  0.6304  1.0132
   50MOL   H25416032   0.275   0.609   0.532  0.0846 -2.3167 -1.7653
   50MOL   H25516033   0.400   0.699   0.344  0.1175  1.2986 -0.7455
   50MOL   H25616034   0.500   0.896   0.242  0.6390  0.3827 -0.2103
   50MOL   H25716035   0.507   0.975   0.089 -2.7052  0.8320 -2.1271
   50MOL   C25816036   0.405   1.091   0.257  0.4623  0.0945 -0.1032
   50MOL   C25916037   0.526   1.166   0.315 -0.2227  0.6228  0.5637
   50MOL   C26016038   0.556   1.165   0.455 -0.0111 -0.0811  0.0445
   50MOL   C26116039   0.678   1.230   0.499 -0.2035  0.8562 -0.2946
   50MOL   C26216040   0.761   1.283   0.406  0.0721 -0.3409  0.1439
   50MOL   F26316041   0.886   1.325   0.452 -0.7428 -0.2460 -0.0635
   50MOL   C26416042   0.729   1.292   0.268 -0.8411 -0.2656  0.4397
   50MOL   C26516043   0.617   1.224   0.226 -0.4516 -0.5335 -0.2968
   50MOL   C26616044   0.317   1.190   0.175  0.2940  0.9806  0.1398
   50MOL   H26716045   0.346   1.056   0.343  0.1671 -0.5790 -0.5755
   50MOL   H26816046   0.493   1.114   0.525  0.2410  2.8042  2.4615
   50MOL   H26916047   0.708   1.228   0.602  0.2799 -1.7701 -0.4570
   50MOL   H27016048   0.795   1.325   0.189 -0.6964  0.4091  0.8397
   50MOL   H27116049   0.597   1.214   0.120  0.4431  0.0087 -0.5201
   50MOL   H27216050   0.386   1.225   0.099  0.2651 -0.6945 -0.6931
   50MOL   H27316051   0.238   1.138   0.121  0.1345  1.6636 -0.2872
   50MOL   C27416052   0.255   1.302   0.266 -0.6411 -0.0997  0.4243
   50MOL   C27516053   0.247   1.429   0.199  0.2910 -0.7289 -0.1052
   50MOL   C27616054   0.153   1.451   0.092  0.0164 -0.1363  0.0485
   50MOL   C27716055   0.135   1.578   0.040 -0.2841 -0.5238 -0.4399
   50MOL   C27816056   0.215   1.686   0.090 -0.1514 -0.5716  0.4484
   50MOL   F27916057   0.199   1.808   0.042 -0.1215 -0.2275  0.3932
   50MOL   C28016058   0.301   1.663   0.194  0.2375 -0.0971  0.1584
   50MOL   C28116059   0.331   1.535   0.239 -0.5526  0.0257 -0.2104
   50MOL   C28216060   0.127   1.250   0.331  0.3101 -0.1323  1.2758
   50MOL   H28316061   0.329   1.313   0.346 -1.0050 -0.4142  0.8076
   50MOL   H28416062   0.094   1.369   0.054  1.0097  0.3278 -2.6404
   50MOL   H28516063   0.055   1.597   8.204 -1.8784 -0.6929  1.3140
   50MOL   H28616064   0.356   1.742   0.242  1.1440 -1.3307  1.1988
   50MOL   H28716065   0.401   1.524   0.321 -0.9008 -0.8194 -0.0110
   50MOL   H28816066   0.045   1.244   0.259  2.2720 -0.8638 -0.9603
   50MOL   H28916067   0.128   1.144   0.354  2.8430 -0.7768 -1.5315
   50MOL   C29016068   0.062   1.336   0.443 -0.0260 -0.4401 -0.5130
   50MOL   C29116069   8.156   1.286   0.493 -0.0550 -0.5464 -0.4346
   50MOL   C29216070   8.049   1.377   0.514 -0.4575 -0.7249 -0.7193
   50MOL   C29316071   7.923   1.336   0.545  0.0568  0.2692  0.1099
   50MOL   C29416072   7.895   1.200   0.563  0.6017 -0.0905  0.4166
   50MOL   F29516073   7.769   1.156   0.602  0.2347 -0.6391  0.1467
   50MOL   C29616074   8.005   1.110   0.544  0.4080  0.0384  0.5851
   50MOL   C29716075   8.135   1.151   0.517  0.7818  0.0104  0.6974
   50MOL   C29816076   0.151   1.346   0.564  0.7084  1.3866 -0.4763
   50MOL   H29916077   0.043   1.438   0.410  2.1915 -0.5257 -2.1814
   50MOL   H30016078   8.067   1.482   0.496 -1.9900 -0.4180 -0.5626
   50MOL   H30116079   7.844   1.405   0.572 -0.0075 -0.4096  1.7594
   50MOL   H30216080   7.984   1.004   0.552 -2.4432  0.3141 -2.2187
   50MOL   H30316081   8.211   1.075   0.525 -0.4765 -1.0544  2.9836
   50MOL   H30416082   0.151   1.250   0.615 -2.3890  0.8686 -1.3806
   50MOL   H30516083   0.257   1.369   0.550  0.9429 -0.3676 -1.7385
   50MOL   C30616084   0.106   1.453   0.669  0.3338 -0.2326  0.1271
   50MOL   C30716085   0.166   1.435   0.804 -0.0159  0.0337  0.1759
   50MOL   C30816086   0.296   1.466   0.839 -0.7321  0.2759 -0.2444
   50MOL   C30916087   0.355   1.442   0.965 -0.0440 -0.2510 -0.2549
   50MOL   C31016088   0.269   1.379   1.060 -0.2950  0.3520 -0.1853
   50MOL   F31116089   0.313   1.371   1.192  0.2624 -0.3952 -0.3749
   50MOL   C31216090   0.139   1.349   1.025 -0.0757 -0.1225 -0.0444
   50MOL   C31316091   0.087   1.374   0.894  0.0150  0.0842  0.1826
   50MOL   C31416092   0.128   1.596   0.620 -0.5388  0.6910 -0.2849
   50MOL   H31516093   8.233   1.449   0.683  0.1293  1.7115 -0.6985
   50MOL   H31616094   0.364   1.493   0.760  0.8298  0.3080  1.1137
   50MOL   H31716095   0.454   1.474   0.993 -0.5229  1.3235 -0.3274
   50MOL   H31816096   0.072   1.299   1.093 -1.6544 -1.0823 -2.2439
   50MOL   H31916097   8.220   1.337   0.883  0.3427 -1.0914  0.9682
   50MOL   H32016098   0.235   1.612   0.604 -0.2726 -0.7031 -0.0127
   50MOL   H32116099   0.087   1.615   0.521  0.5606 -0.7263 -1.0355
   50MOL   H32216100   0.099   1.670   0.693  1.2481  1.1552 -0.0185
   51MOL     C116101   6.374   0.536   2.473 -0.1553 -0.0535  0.3182
   51MOL     C216102   6.464   0.412   2.473  0.1582  0.2637  0.8665
   51MOL     C316103   6.602   0.427   2.470  0.2336  0.5421  1.0434
   51MOL     C416104   6.678   0.315   2.440  0.5282 -0.7286 -0.0749
   51MOL     C516105   6.625   0.188   2.431 -0.3458 -0.0427 -0.2239
   51MOL     F616106   6.711   0.085   2.409  0.6142 -0.0711  0.2222
   51MOL     C716107   6.488   0.177   2.430 -0.4699  0.4416  0.1842
   51MOL     C816108   6.399   0.287   2.453  0.0309 -0.0053  0.2997
   51MOL     C916109   6.385   0.613   2.342  0.7507 -0.0633 -0.0222
   51MOL    H1016110   6.399   0.608   2.552 -1.0986  1.2886 -0.5770
   51MOL    H1116111   6.644   0.524   2.495  0.4282  0.5857  0.5537
   51MOL    H1216112   6.785   0.334   2.442  0.5560 -0.6596 -1.7388
   51MOL    H1316113   6.448   0.079   2.413 -0.3876  0.7055 -1.6394
   51MOL    H1416114   6.292   0.274   2.451  0.1249 -0.7878 -0.1911
   51MOL    H1516115   6.337   0.711   2.337  0.3180 -0.3227 -0.9958
   51MOL    H1616116   6.489   0.636   2.318 -0.2880  2.6607 -2.1490
   51MOL    H1716117   6.277   0.493   2.498 -0.0621 -1.6938 -1.9793
   51MOL    C1816118   6.325   0.536   2.220 -0.6956 -0.1615  0.0817
   51MOL    C1916119   6.173   0.558   2.216 -0.7063  0.2405 -0.2174
   51MOL    C2016120   6.111   0.689   2.196  0.3264  0.6532  0.2377
   51MOL    C2116121   5.970   0.706   2.204  0.1739  0.4187  0.2628
   51MOL    C2216122   5.890   0.593   2.213 -1.0261  0.4176 -0.9718
   51MOL    F2316123   5.754   0.599   2.217 -0.0316 -0.2334 -0.5277
   51MOL    C2416124   5.952   0.469   2.217  0.6265 -0.2199  0.2425
   51MOL    C2516125   6.088   0.450   2.231  0.4517  0.4647 -0.4352
   51MOL    C2616126   6.396   0.577   2.089 -0.0033  0.0540  0.2478
   51MOL    H2716127   6.337   0.427   2.221  1.5137  0.0688  1.0174
   51MOL    H2816128   6.178   0.773   2.191  2.0429 -0.7869 -1.9209
   51MOL    H2916129   5.927   0.804   2.192  0.8537  0.6976  0.0789
   51MOL    H3016130   5.891   0.381   2.226 -0.5301  0.3443 -1.8267
   51MOL    H3116131   6.124   0.348   2.238  1.5996  0.7918 -1.3878
   51MOL    H3216132   6.329   0.553   2.006 -0.5871  4.6722 -0.7884
   51MOL    H3316133   6.391   0.686   2.084  0.0727 -0.0304 -2.1763
   51MOL    C3416134   6.538   0.534   2.069 -0.3811  0.3369 -0.4955
   51MOL    C3516135   6.546   0.385   2.057  0.7474  0.2295 -0.4221
   51MOL    C3616136   6.645   0.316   2.125  0.1361  0.7114  0.1814
   51MOL    C3716137   6.665   0.177   2.110 -0.4112  0.3986 -0.2457
   51MOL    C3816138   6.574   0.103   2.032  0.0578  0.4056 -0.3094
   51MOL    F3916139   6.589   8.203   2.009 -0.0048  0.6742 -0.1087
   51MOL    C4016140   6.469   0.167   1.967  0.6352 -0.1460 -0.3380
   51MOL    C4116141   6.454   0.305   1.986 -0.5474  0.0731  0.6742
   51MOL    C4216142   6.622   0.603   1.959 -0.6014 -0.0510  0.2124
   51MOL    H4316143   6.583   0.556   2.166 -1.9801 -0.5051  0.4617
   51MOL    H4416144   6.729   0.366   2.172  0.6313  2.0595 -2.0962
   51MOL    H4516145   6.745   0.129   2.164 -2.0017  0.0888  1.8868
   51MOL    H4616146   6.405   0.116   1.896 -0.6930  2.5286 -1.1405
   51MOL    H4716147   6.372   0.349   1.930  1.2582  0.4052 -1.8158
   51MOL    H4816148   6.717   0.554   1.939 -0.4563  0.9645 -1.6357
   51MOL    H4916149   6.556   0.591   1.873 -1.8263 -1.1515  1.2607
   51MOL    C5016150   6.645   0.756   1.989  0.1093  0.8372  0.1145
   51MOL    C5116151   6.738   0.767   2.110 -0.4300  0.9668 -0.2198
   51MOL    C5216152   6.869   0.708   2.111 -0.3016  0.0190  0.3963
   51MOL    C5316153   6.948   0.707   2.228 -0.0686 -0.3374  0.1983
   51MOL    C5416154   6.897   0.752   2.349 -0.2331  0.4175  0.2503
   51MOL    F5516155   6.958   0.730   2.468  0.0122  0.1149  1.0825
   51MOL    C5616156   6.766   0.809   2.353 -0.3093  0.2809 -0.5251
   51MOL    C5716157   6.687   0.814   2.233 -0.5963  0.4263 -0.1033
   51MOL    C5816158   6.712   0.833   1.869 -0.1258  0.6073  0.5569
   51MOL    H5916159   6.547   0.794   2.018 -1.2616 -0.4510 -2.6394
   51MOL    H6016160   6.905   0.662   2.020  1.9953 -1.1971  1.8571
   51MOL    H6116161   7.044   0.656   2.230 -0.6954 -1.5421  0.4587
   51MOL    H6216162   6.731   0.858   2.443  1.6188  1.0242 -0.1475
   51MOL    H6316163   6.598   0.874   2.239 -1.4643 -1.0189  2.1307
   51MOL    H6416164   6.722   0.937   1.899  1.3849  0.3578  0.9523
   51MOL    H6516165   6.806   0.787   1.839 -0.4389 -0.9594  1.8866
   51MOL    C6616166   6.635   0.827   1.732  0.2057  0.2341  0.5808
   51MOL    C6716167   6.486   0.849   1.744 -0.4189 -0.0091 -0.5118
   51MOL    C6816168   6.441   0.976   1.795 -0.0465  0.1346  0.4180
   51MOL    C6916169   6.302   1.006   1.809  0.0805 -0.2110  0.3394
   51MOL    C7016170   6.207   0.919   1.762 -0.1041  0.5690  0.2247
   51MOL    F7116171   6.080   0.954   1.774  0.2782 -0.7685  0.3342
   51MOL    C7216172   6.252   0.795   1.707  0.5664  0.4787 -0.6330
   51MOL    C7316173   6.391   0.763   1.697  0.1244  0.5579  0.2628
   51MOL    C7416174   6.692   0.914   1.616 -0.1756 -0.1199  0.1860
   51MOL    H7516175   6.652   0.721   1.711  1.0118 -0.0536  2.5335
   51MOL    H7616176   6.515   1.051   1.816  0.0618  0.2409 -0.3363
   51MOL    H7716177   6.257   1.096   1.849  1.7099  0.2968  1.0646
   51MOL    H7816178   6.181   0.731   1.657 -1.1280  1.6022  0.2826
   51MOL    H7916179   6.434   0.683   1.639 -0.2139  0.3972  0.2326
   51MOL    H8016180   6.632   0.906   1.526  1.4081 -0.4915 -0.8649
   51MOL    H8116181   6.694   1.018   1.650  2.2335  0.1100 -0.5543
   51MOL    C8216182   6.839   0.880   1.571  0.3108 -0.5390 -0.2327
   51MOL    C8316183   6.840   0.737   1.514 -0.0244 -0.1281 -1.1725
   51MOL    C8416184   6.763   0.712   1.395  1.0023 -0.3991 -0.5263
   51MOL    C8516185   6.756   0.585   1.335 -0.7515  0.0872 -0.0270
   51MOL    C8616186   6.831   0.481   1.397  0.2227 -0.2771 -0.1155
   51MOL    F8716187   6.833   0.360   1.335  0.2079  0.1260  0.0206
   51MOL    C8816188   6.911   0.505   1.513 -0.1751 -0.4999  0.2356
   51MOL    C8916189   6.912   0.628   1.573  0.0308  0.9675  0.4235
   51MOL    C9016190   6.877   0.990   1.468  0.0134  0.2627 -0.6382
   51MOL    H9116191   6.906   0.880   1.657 -1.5726  1.7779  1.2999
   51MOL    H9216192   6.701   0.783   1.341  0.8451 -0.3781 -0.3237
   51MOL    H9316193   6.693   0.563   1.251 -1.5623  3.7570 -0.4735
   51MOL    H9416194   6.973   0.429   1.557  0.2572  1.2543  2.8054
   51MOL    H9516195   6.978   0.641   1.658  0.7607 -1.0229  0.2001
   51MOL    H9616196   6.804   1.006   1.388  0.8938 -0.7718 -1.6670
   51MOL    H9716197   6.884   1.086   1.518  0.3608  1.2967 -2.6377
   51MOL    C9816198   7.015   0.971   1.395  0.6905  0.0099 -0.4017
   51MOL    C9916199   7.038   1.077   1.283  0.5991 -0.0702  0.1705
   51MOL   C10016200   7.030   1.213   1.317 -0.6940 -0.4746 -0.8468
   51MOL   C10116201   7.057   1.309   1.211 -0.5455 -0.2507 -0.1414
   51MOL   C10216202   7.093   1.271   1.078  0.4526 -0.4066 -0.2916
   51MOL   F10316203   7.121   1.367   0.986  0.0325  0.0231  0.1795
   51MOL   C10416204   7.091   1.133   1.049  0.2890 -0.3541 -0.5484
   51MOL   C10516205   7.058   1.034   1.148 -0.2339 -0.0069  0.3604
   51MOL   C10616206   7.136   0.978   1.497  0.0429  0.7764 -0.0903
   51MOL   H10716207   7.013   0.880   1.336  1.0476 -0.1143 -0.2171
   51MOL   H10816208   7.000   1.234   1.418  2.5767 -1.1320  0.3330
   51MOL   H10916209   7.063   1.414   1.237 -1.5650 -0.0855 -0.5601
   51MOL   H11016210   7.122   1.103   0.950  0.5574  0.9526 -0.8632
   51MOL   H11116211   7.058   0.930   1.117  0.6018 -0.3284  1.4186
   51MOL   H11216212   7.166   1.081   1.511  0.7481  1.0213 -3.0452
   51MOL   H11316213   7.123   0.941   1.598  3.7076 -1.7498 -0.4137
   51MOL   C11416214   7.260   0.905   1.444  0.2261  0.0463  0.2352
   51MOL   C11516215   7.388   0.961   1.508 -0.4796 -0.0363 -0.1830
   51MOL   C11616216   7.427   0.922   1.639 -0.4104 -0.1892  0.4144
   51MOL   C11716217   7.544   0.971   1.693  0.4616 -0.5065  0.9970
   51MOL   C11816218   7.628   1.059   1.621 -0.7626 -0.3640  0.2411
   51MOL   F11916219   7.751   1.097   1.669 -0.1464  0.0967 -0.2127
   51MOL   C12016220   7.594   1.100   1.490 -0.0067  0.3897 -0.0670
   51MOL   C12116221   7.478   1.046   1.436  0.4940  0.5526 -0.2536
   51MOL   C12216222   7.247   0.747   1.438  0.1190 -0.3042 -0.2327
   51MOL   H12316223   7.257   0.935   1.339 -0.0691  0.2778  0.3107
   51MOL   H12416224   7.369   0.859   1.704  0.3950  0.2809  1.5954
   51MOL   H12516225   7.585   0.926   1.783  1.1533  0.2860  1.0826
   51MOL   H12616226   7.667   1.155   1.432  0.8092 -1.6190 -0.9966
   51MOL   H12716227   7.465   1.070   1.331 -3.5926 -0.4240 -0.0403
   51MOL   H12816228   7.291   0.722   1.534 -2.0265 -0.1637  0.8314
   51MOL   H12916229   7.140   0.725   1.445 -0.0764  1.0827  1.4593
   51MOL   C13016230   7.318   0.673   1.330  0.2263 -0.5881  0.6419
   51MOL   C13116231   7.318   0.527   1.357 -0.1777 -0.7808 -0.0998
   51MOL   C13216232   7.444   0.461   1.379 -0.5163  0.8889  0.3659
   51MOL   C13316233   7.452   0.324   1.396 -0.3059  0.3945 -0.4409
   51MOL   C13416234   7.340   0.242   1.394  0.6235 -1.2037  0.0640
   51MOL   F13516235   7.347   0.109   1.427 -0.4280  0.1257 -0.2949
   51MOL   C13616236   7.213   0.303   1.379  0.1636 -0.0196 -0.4396
   51MOL   C13716237   7.203   0.444   1.351  0.3475  0.3545 -1.1440
   51MOL   C13816238   7.253   0.704   1.195  0.4233 -0.4326 -0.2694
   51MOL   H13916239   7.423   0.700   1.323  0.3896 -0.7053  2.4492
   51MOL   H14016240   7.528   0.526   1.398  1.5576 -2.1014  1.7723
   51MOL   H14116241   7.544   0.276   1.426  0.3250  0.9734 -1.4629
   51MOL   H14216242   7.124   0.244   1.385 -0.7354  1.5063  2.0993
   51MOL   H14316243   7.103   0.480   1.331 -1.6360 -3.9194  0.4579
   51MOL   H14416244   7.145   0.686   1.203  0.1212  1.4939  0.3774
   51MOL   H14516245   7.263   0.811   1.177  4.3052 -0.6756  0.0186
   51MOL   C14616246   7.293   0.629   1.069 -0.0895  0.3972 -0.3675
   51MOL   C14716247   7.217   0.671   0.943 -0.6434 -0.1456  0.6613
   51MOL   C14816248   7.251   0.786   0.859 -0.5391  0.3063 -0.0863
   51MOL   C14916249   7.176   0.830   0.753  0.5765  0.2328  0.8857
   51MOL   C15016250   7.057   0.767   0.719 -0.0975  0.4354 -0.0542
   51MOL   F15116251   6.981   0.806   0.616 -0.3443 -0.0281 -0.4296
   51MOL   C15216252   7.018   0.653   0.785 -0.1509  0.0898  0.1825
   51MOL   C15316253   7.104   0.603   0.891  0.0103 -0.3559  0.2712
   51MOL   C15416254   7.441   0.627   1.043 -0.0612 -0.5431 -0.4470
   51MOL   H15516255   7.261   0.527   1.087  0.2130  0.1665 -1.1166
   51MOL   H15616256   7.338   0.842   0.889 -0.3310 -0.5603  0.9683
   51MOL   H15716257   7.200   0.923   0.704  0.0494 -0.4306 -0.6923
   51MOL   H15816258   6.931   0.601   0.748  0.2206 -0.0663 -0.4539
   51MOL   H15916259   7.081   0.505   0.929 -1.6024 -0.8122 -1.7818
   51MOL   H16016260   7.460   0.731   1.017  0.8885 -0.3788  0.8261
   51MOL   H16116261   7.498   0.612   1.135  1.4174  1.5253 -1.0138
   51MOL   C16216262   7.498   0.532   0.937 -0.3338  0.2885  0.1915
   51MOL   C16316263   7.644   0.568   0.908 -0.5631 -0.6752 -0.6255
   51MOL   C16416264   7.679   0.607   0.778  0.2265  0.6920 -0.7830
   51MOL   C16516265   7.813   0.650   0.752  0.0895 -0.1528 -0.2309
   51MOL   C16616266   7.913   0.641   0.851  0.6532  0.0766 -0.3225
   51MOL   F16716267   8.041   0.684   0.830 -0.1680 -0.5366  0.6102
   51MOL   C16816268   7.880   0.591   0.980  0.5397  0.4951  0.4062
   51MOL   C16916269   7.741   0.566   1.007 -0.1826 -0.3261 -0.4165
   51MOL   C17016270   7.481   0.383   0.986  0.1741 -0.1887  0.3179
   51MOL   H17116271   7.440   0.553   0.847  1.3012  1.7327 -0.5494
   51MOL   H17216272   7.600   0.615   0.706  0.3736  3.1258 -0.7053
   51MOL   H17316273   7.845   0.686   0.656  1.3749 -0.2631  0.1475
   51MOL   H17416274   7.949   0.583   1.062  0.0115  0.6788  0.8710
   51MOL   H17516275   7.706   0.529   1.102 -0.1261  2.0951  0.5723
   51MOL   H17616276   7.530   0.366   1.082  0.7449 -0.7144 -0.0585
   51MOL   H17716277   7.376   0.361   1.004 -0.3439  2.0054  0.0404
   51MOL   C17816278   7.551   0.273   0.910 -0.3851 -0.1784 -0.3093
   51MOL   C17916279   7.538   0.141   0.978 -0.0005 -0.2845  0.1303
   51MOL   C18016280   7.410   0.101   1.025  0.0489 -0.0921 -0.3481
   51MOL   C18116281   7.386   8.215   1.083  0.0188 -0.2782 -0.2717
   51MOL   C18216282   7.497   8.129   1.096  0.0593 -0.7517  0.2360
   51MOL   F18316283   7.463   8.006   1.145  0.2852  0.0285 -0.0484
   51MOL   C18416284   7.626   8.158   1.044  0.1342 -0.4740 -0.3448
   51MOL   C18516285   7.650   0.049   0.984  0.7160  0.4647 -0.2433
   51MOL   C18616286   7.492   0.260   0.768 -0.2927 -0.2364  0.5143
   51MOL   H18716287   7.657   0.297   0.901 -0.7735  1.4954 -0.5589
   51MOL   H18816288   7.323   0.160   0.999  0.7609  0.5277 -1.3352
   51MOL   H18916289   7.285   8.190   1.113  0.2652 -0.8432  0.0741
   51MOL   H19016290   7.704   8.083   1.034 -0.4456 -1.0195 -0.8049
   51MOL   H19116291   7.745   0.067   0.934  1.1972 -0.1723  0.4313
   51MOL   H19216292   7.390   0.225   0.781  0.5161 -3.3104 -0.9565
   51MOL   H19316293   7.462   0.359   0.734 -0.6750 -0.1743  1.0283
   51MOL   C19416294   7.564   0.183   0.661 -0.0322 -0.3389  0.3543
   51MOL   C19516295   7.467   0.125   0.552 -0.0542  0.1409  0.0197
   51MOL   C19616296   7.372   0.208   0.484 -0.2937 -0.1454 -0.0853
   51MOL   C19716297   7.288   0.158   0.388  0.1125 -0.4340 -0.6243
   51MOL   C19816298   7.282   0.016   0.359  0.5834  0.1778  0.1709
   51MOL   F19916299   7.194   8.203   0.265 -0.1481  0.3321 -0.6161
   51MOL   C20016300   7.375   8.168   0.429 -0.2759  0.4390 -0.1679
   51MOL   C20116301   7.466   8.221   0.518  0.0960 -0.1544  0.4652
   51MOL   C20216302   7.687   0.264   0.603  0.0119 -0.0467  0.4104
   51MOL   H20316303   7.599   0.103   0.726  0.1719  0.7033  1.5655
   51MOL   H20416304   7.378   0.314   0.508 -0.3446 -0.2335  0.3261
   51MOL   H20516305   7.234   0.220   0.319  0.5423  0.0267 -0.5522
   51MOL   H20616306   7.374   8.060   0.419  0.5773  0.2558  1.4446
   51MOL   H20716307   7.528   8.160   0.582 -0.4680  0.2161  1.3896
   51MOL   H20816308   7.651   0.360   0.567  0.7463 -0.0917 -0.4587
   51MOL   H20916309   7.753   0.282   0.687  1.1107 -0.8104 -0.2798
   51MOL   C21016310   7.766   0.207   0.481  1.0460 -0.9910  0.4273
   51MOL   C21116311   7.854   0.316   0.416 -0.2952  0.0822 -0.4138
   51MOL   C21216312   7.940   0.395   0.495 -0.0781  0.2772  0.0206
   51MOL   C21316313   8.019   0.495   0.444 -0.5022 -0.3142 -0.4163
   51MOL   C21416314   8.023   0.515   0.309  0.7360 -0.1625  0.1132
   51MOL   F21516315   8.111   0.598   0.253  0.1134  0.2326 -0.0995
   51MOL   C21616316   7.941   0.437   0.225  0.1272  0.6589 -0.4555
   51MOL   C21716317   7.850   0.348   0.275 -0.3940  0.8029  0.8921
   51MOL   C21816318   7.854   0.090   0.521 -1.0396  0.0016  0.1579
   51MOL   H21916319   7.698   0.187   0.398  1.0451  3.9651 -0.9413
   51MOL   H22016320   7.949   0.377   0.601 -0.4695 -0.1770 -0.0204
   51MOL   H22116321   8.074   0.556   0.515 -0.1263  0.1844 -1.1334
   51MOL   H22216322   7.931   0.473   0.124 -0.3666  2.2648  0.1554
   51MOL   H22316323   7.779   0.300   0.208 -0.7337  2.9970 -0.3529
   51MOL   H22416324   7.931   0.115   0.593 -0.7448  1.8270 -0.7570
   51MOL   H22516325   7.792   0.018   0.576  0.0211 -1.0277  0.0249
   51MOL   C22616326   7.918   0.016   0.392 -0.9541  0.8165 -0.1391
   51MOL   C22716327   8.035   8.156   0.426 -0.0548 -1.0241 -0.1605
   51MOL   C22816328   8.163   8.173   0.365 -0.2103 -0.4830  1.0440
   51MOL   C22916329   0.032   8.082   0.393  0.1081  0.3431  0.3003
   51MOL   C23016330   0.013   7.977   0.488 -0.0587  0.1897 -0.3351
   51MOL   F23116331   0.113   7.884   0.514 -0.2097 -0.3060  0.1491
   51MOL   C23216332   8.122   7.965   0.552  0.0609 -0.0040 -0.3885
   51MOL   C23316333   8.015   8.053   0.515 -0.2838  0.5479  0.4006
   51MOL   C23416334   7.818   8.181   0.292  0.0497  0.3122 -0.0061
   51MOL   H23516335   7.974   0.100   0.351 -0.6000  0.1537 -1.0377
   51MOL   H23616336   8.180   0.012   0.289  1.7541 -1.0352  0.9197
   51MOL   H23716337   0.123   8.076   0.335 -0.1047  0.8617 -0.0842
   51MOL   H23816338   8.104   7.886   0.623  0.8722 -1.1909 -1.4734
   51MOL   H23916339   7.914   8.037   0.551 -0.1248 -1.0282  0.1521
   51MOL   H24016340   7.799   8.086   0.343  1.7880 -0.3576 -0.5969
   51MOL   H24116341   7.722   8.233   0.286 -1.4904 -2.4764 -0.2780
   51MOL   C24216342   7.865   8.138   0.147 -0.3052  0.2039  1.2965
   51MOL   C24316343   7.765   8.047   0.077  0.5368  0.5153 -0.6327
   51MOL   C24416344   7.803   7.919   0.037  0.6086 -0.7496  0.3106
   51MOL   C24516345   7.716   7.826   8.217 -0.5309 -0.0685  0.2183
   51MOL   C24616346   7.587   7.876   8.187  0.0737 -0.1603  0.4139
   51MOL   F24716347   7.503   7.788   8.126  0.1711  0.2913  0.2713
   51MOL   C24816348   7.550   8.006   8.218 -1.0303 -0.5238 -0.5556
   51MOL   C24916349   7.633   8.089   0.057  0.3437  0.7727 -0.4023
   51MOL   C25016350   7.891   0.027   0.061  0.4152 -0.1064  0.4769
   51MOL   H25116351   7.966   8.097   0.153  0.2072  1.0076 -1.0749
   51MOL   H25216352   7.900   7.887   0.074  0.3953 -0.5965  1.0218
   51MOL   H25316353   7.745   7.723   8.203 -0.5876 -0.2310  1.2305
   51MOL   H25416354   7.459   8.060   8.198  0.3222  1.1611 -2.3042
   51MOL   H25516355   7.595   8.187   0.083  0.0251  0.9345 -1.4818
   51MOL   H25616356   7.801   0.089   0.050 -1.0268 -2.0372  0.9948
   51MOL   H25716357   7.965   0.087   0.114 -0.4716  0.5505  1.0117
   51MOL   C25816358   7.942   0.003   8.156  0.3223 -0.9814  0.1698
   51MOL   C25916359   7.945   0.134   8.076  0.2942  0.1509  0.4323
   51MOL   C26016360   7.883   0.146   7.949  0.2909 -0.3377 -0.2338
   51MOL   C26116361   7.877   0.263   7.879 -0.5845 -0.2167  0.7042
   51MOL   C26216362   7.942   0.377   7.931 -0.2375  0.7193  1.2303
   51MOL   F26316363   7.937   0.486   7.861  0.0568  0.3437 -0.6913
   51MOL   C26416364   8.003   0.371   8.053 -0.0261  0.0872 -0.2979
   51MOL   C26516365   8.004   0.250   8.129  0.3601 -0.5652  0.0583
   51MOL   C26616366   8.074   8.161   8.148 -0.3323  0.3497 -0.1197
   51MOL   H26716367   7.857   8.193   8.105  0.3816  0.1742 -0.9693
   51MOL   H26816368   7.835   0.061   7.903 -1.8994  1.4273 -1.2877
   51MOL   H26916369   7.830   0.267   7.782 -0.6983  0.1466  0.7731
   51MOL   H27016370   8.065   0.447   8.098  2.9243 -1.6119 -1.3038
   51MOL   H27116371   8.052   0.246   8.225 -0.2436  0.2180  0.3994
   51MOL   H27216372   8.146   8.210   8.213  0.8978  0.2232 -1.3713
   51MOL   H27316373   8.070   8.060   8.189 -0.6933  0.5593  0.3636
   51MOL   C27416374   8.165   8.158   8.019  0.3972 -0.5270 -0.7846
   51MOL   C27516375   0.078   8.110   8.027 -0.7710 -0.2714  0.5926
   51MOL   C27616376   0.111   8.005   8.112 -0.1665  0.4847 -1.0067
   51MOL   C27716377   0.247   7.966   8.138 -0.1482  0.1337  0.2902
   51MOL   C27816378   0.346   8.021   8.058  0.4141  1.0538  0.1810
   51MOL   F27916379   0.481   7.990   8.061  0.5996 -0.3498 -0.1139
   51MOL   C28016380   0.311   8.120   7.964 -0.3140 -0.2803 -0.0856
   51MOL   C28116381   0.183   8.176   7.958 -0.7238  0.1720  0.4432
   51MOL   C28216382   8.099   8.091   7.904 -0.0469  0.5825 -0.1007
   51MOL   H28316383   8.181   0.025   7.982  0.0531 -0.6712 -1.3190
   51MOL   H28416384   0.035   7.960   8.175  2.4282 -3.3333 -0.4270
   51MOL   H28516385   0.281   7.904   8.220  1.0884  0.3269 -0.0734
   51MOL   H28616386   0.392   8.156   7.902 -0.9606  0.7059 -0.3606
   51MOL   H28716387   0.166   0.020   7.886  1.0707 -1.1920 -1.5162
   51MOL   H28816388   8.100   7.988   7.940 -0.4592  0.8787  0.7848
   51MOL   H28916389   7.998   8.133   7.904 -1.7290 -3.1548 -3.5808
   51MOL   C29016390   8.158   8.098   7.756  0.2348  0.6189 -0.0612
   51MOL   C29116391   8.069   8.011   7.661  0.3531 -0.1737  0.4140
   51MOL   C29216392   7.930   8.039   7.641  0.3847  0.2278  0.1172
   51MOL   C29316393   7.850   7.955   7.553 -0.3379  0.2888 -0.9275
   51MOL   C29416394   7.915   7.841   7.493 -0.0245 -0.2768  0.2951
   51MOL   F29516395   7.842   7.759   7.420  0.2225 -0.0823  0.3812
   51MOL   C29616396   8.044   7.809   7.516  0.2410  0.2221  0.0989
   51MOL   C29716397   8.124   7.892   7.592 -0.0084 -0.6198 -0.2631
   51MOL   C29816398   8.164   0.006   7.710 -0.2319 -0.1246  0.6489
   51MOL   H29916399   0.026   8.062   7.760  0.1928  0.3926 -0.8358
   51MOL   H30016400   7.886   8.124   7.693 -2.3542 -1.5217  0.7920
   51MOL   H30116401   7.748   7.984   7.531 -0.8797 -0.6277  0.3666
   51MOL   H30216402   8.074   7.720   7.462  0.8539 -0.3170  1.3120
   51MOL   H30316403   8.230   7.872   7.587  0.4286  1.4930  0.2776
   51MOL   H30416404   8.065   0.051   7.706 -0.5255 -0.8530 -0.3591
   51MOL   H30516405   8.212   0.072   7.782  0.1366 -0.3752  0.6374
   51MOL   C30616406   8.231   0.037   7.579  0.0381  0.4935  0.9444
   51MOL   C30716407   8.184   0.170   7.524 -0.0316 -0.1616 -0.0469
   51MOL   C30816408   8.191   0.285   7.604 -0.8628 -0.7377 -0.0492
   51MOL   C30916409   8.154   0.409   7.558 -0.3714  0.2050 -0.7080
   51MOL   C31016410   8.099   0.420   7.430  0.5285  0.2115 -0.4520
   51MOL   F31116411   8.059   0.547   7.395  0.3207  0.3683 -0.0760
   51MOL   C31216412   8.086   0.307   7.346  0.1987 -0.7095 -0.2681
   51MOL   C31316413   8.132   0.181   7.391  0.7513  0.3374  1.2181
   51MOL   C31416414   0.153   0.031   7.578 -0.5427  0.9653 -0.6047
   51MOL   H31516415   8.211   8.195   7.503  0.9870 -0.5653  1.7418
   51MOL   H31616416   8.230   0.266   7.703  2.1908  0.6896 -0.9288
   51MOL   H31716417   8.168   0.492   7.625 -1.1835 -0.5126  0.3597
   51MOL   H31816418   8.047   0.314   7.246 -0.2459 -1.2381 -0.1366
   51MOL   H31916419   8.122   0.092   7.331 -0.9501  0.9834  0.5058
   51MOL   H32016420   0.188   8.173   7.625  1.2566  1.0309 -1.7809
   51MOL   H32116421   0.202   0.042   7.481 -1.5761 -3.7537 -1.8135
   51MOL   H32216422   0.198   0.111   7.636  2.3460 -2.1871  1.6674
   52MOL     C116423   1.168   7.366   4.804 -0.7546  0.1333 -0.1587
   52MOL     C216424   1.203   7.282   4.924 -0.6000  0.3451 -0.3431
   52MOL     C316425   1.331   7.245   4.965  0.1966  0.7670 -0.7291
   52MOL     C416426   1.358   7.184   5.085 -0.2155 -0.3234 -0.4721
   52MOL     C516427   1.258   7.154   5.178  0.1253  0.2001  0.1636
   52MOL     F616428   1.280   7.095   5.299 -0.0539  0.1217  0.3848
   52MOL     C716429   1.125   7.191   5.135  0.3849 -0.6336  0.0597
   52MOL     C816430   1.096   7.244   5.005 -0.8673 -0.3406  0.3492
   52MOL     C916431   1.289   7.400   4.720  0.6899  0.7820  0.7225
   52MOL    H1016432   1.121   7.454   4.848  0.5403  0.9524 -0.3607
   52MOL    H1116433   1.415   7.286   4.911  0.3752 -0.0984 -1.1079
   52MOL    H1216434   1.459   7.156   5.110 -0.7270 -1.6657  0.1296
   52MOL    H1316435   1.049   7.183   5.211  2.5275 -2.8115  2.0829
   52MOL    H1416436   1.000   7.287   4.983  0.1439  1.4702 -0.7131
   52MOL    H1516437   1.357   7.453   4.787  0.4088  1.0737  0.7799
   52MOL    H1616438   1.343   7.309   4.693 -0.2511  0.2423  0.6357
   52MOL    H1716439   1.082   7.320   4.757 -0.6463  0.5257 -0.7410
   52MOL    C1816440   1.262   7.485   4.600  0.1476  0.3723  0.2279
   52MOL    C1916441   1.180   7.606   4.624 -0.1563 -0.0629 -0.4097
   52MOL    C2016442   1.222   7.694   4.726  0.0775 -0.2005  0.7691
   52MOL    C2116443   1.146   7.805   4.753 -0.1895 -0.0511 -0.2239
   52MOL    C2216444   1.037   7.843   4.668  0.0184 -0.0231 -0.2383
   52MOL    F2316445   0.970   7.956   4.698  0.5629 -0.0735  0.1809
   52MOL    C2416446   0.999   7.755   4.564 -0.5292 -0.3510  0.3451
   52MOL    C2516447   1.064   7.632   4.543  0.4014 -0.3265 -0.0191
   52MOL    C2616448   1.381   7.517   4.513 -0.8072 -0.0249  0.1674
   52MOL    H2716449   1.200   7.417   4.542 -0.3283  1.1543 -0.1795
   52MOL    H2816450   1.311   7.661   4.778  0.4907 -0.6663 -0.2205
   52MOL    H2916451   1.170   7.871   4.835  1.9711  2.3658 -2.7059
   52MOL    H3016452   0.904   7.778   4.517  0.8227  2.8220 -1.0184
   52MOL    H3116453   1.037   7.559   4.468 -1.4800 -0.2186  0.5175
   52MOL    H3216454   1.354   7.606   4.456 -1.2332  0.5248  1.2234
   52MOL    H3316455   1.462   7.549   4.578 -0.0029  0.6132 -1.1160
   52MOL    C3416456   1.430   7.401   4.423  0.8866 -0.3073 -0.2596
   52MOL    C3516457   1.324   7.347   4.326 -0.4724  0.0056 -1.0985
   52MOL    C3616458   1.219   7.430   4.274 -0.0237  0.0073 -0.3750
   52MOL    C3716459   1.139   7.381   4.175  0.1304 -0.2511  0.0887
   52MOL    C3816460   1.159   7.256   4.122  0.7078  0.4668  0.1504
   52MOL    F3916461   1.068   7.210   4.040  0.0931  0.2777  0.3782
   52MOL    C4016462   1.255   7.171   4.174 -0.2645  0.4668  0.1009
   52MOL    C4116463   1.339   7.220   4.274  0.4124 -0.6877 -0.3040
   52MOL    C4216464   1.568   7.427   4.349  0.0844  0.6691  0.6007
   52MOL    H4316465   1.437   7.314   4.489 -0.3449 -0.1735  0.0539
   52MOL    H4416466   1.203   7.532   4.304 -2.0022  0.0159 -1.3342
   52MOL    H4516467   1.063   7.450   4.141  0.8883  2.1880  3.0652
   52MOL    H4616468   1.257   7.069   4.136  2.1469 -0.4806  2.6103
   52MOL    H4716469   1.415   7.156   4.316  0.4934 -1.5143 -1.6833
   52MOL    H4816470   1.563   7.466   4.247  0.1820 -0.1758  0.2714
   52MOL    H4916471   1.591   7.532   4.370 -1.1838  1.5151 -1.9795
   52MOL    C5016472   1.686   7.337   4.382  0.0594 -0.3426 -0.4254
   52MOL    C5116473   1.684   7.288   4.528  0.4949  0.1093  0.0826
   52MOL    C5216474   1.724   7.383   4.626 -0.3568 -0.5692  0.3390
   52MOL    C5316475   1.716   7.343   4.763  0.2117 -0.3223  0.6551
   52MOL    C5416476   1.665   7.214   4.793  0.3023 -0.4489 -0.8414
   52MOL    F5516477   1.649   7.170   4.917 -0.0853  0.1300 -0.1842
   52MOL    C5616478   1.642   7.120   4.693 -0.1483 -0.6284 -0.0002
   52MOL    C5716479   1.646   7.156   4.560 -0.3548  0.2592  0.2434
   52MOL    C5816480   1.705   7.227   4.268  0.2920 -0.6141  0.2242
   52MOL    H5916481   1.769   7.408   4.377 -0.3315 -0.0394 -3.4449
   52MOL    H6016482   1.746   7.486   4.601 -0.8331 -0.5492 -0.0111
   52MOL    H6116483   1.745   7.402   4.849 -0.2012 -1.0245  1.2941
   52MOL    H6216484   1.605   7.023   4.724  4.3620 -1.6127  2.7154
   52MOL    H6316485   1.609   7.092   4.482 -1.1865  0.1657  0.7067
   52MOL    H6416486   1.624   7.156   4.278  0.2341 -0.7285 -0.9726
   52MOL    H6516487   1.691   7.267   4.168 -0.4672 -2.6958 -0.5217
   52MOL    C6616488   1.837   7.157   4.279 -0.5709 -0.0723 -0.0168
   52MOL    C6716489   1.838   7.029   4.193  0.0995  0.5594 -1.0137
   52MOL    C6816490   1.833   6.906   4.260 -0.2477  0.5975 -0.6445
   52MOL    C6916491   1.833   6.783   4.180  0.1045  0.2894  0.1390
   52MOL    C7016492   1.842   6.794   4.040  0.1734  0.5644  0.6393
   52MOL    F7116493   1.845   6.680   3.958  0.3777 -0.0845 -0.0182
   52MOL    C7216494   1.849   6.918   3.975  0.3363 -0.9941  0.3060
   52MOL    C7316495   1.844   7.039   4.052  0.0973 -0.0283 -0.3090
   52MOL    C7416496   1.961   7.242   4.233 -0.0947  0.6368  0.1868
   52MOL    H7516497   1.844   7.137   4.385  0.1361 -1.2349 -0.2738
   52MOL    H7616498   1.832   6.904   4.368 -0.3582 -0.8647 -0.6557
   52MOL    H7716499   1.831   6.682   4.219 -2.7562  0.3387  0.2637
   52MOL    H7816500   1.855   6.921   3.867  0.7223 -2.6392  0.2758
   52MOL    H7916501   1.859   7.135   4.006 -0.7415 -0.4330 -1.4588
   52MOL    H8016502   1.953   7.287   4.134 -1.3516  1.5446  0.6850
   52MOL    H8116503   1.966   7.330   4.297 -1.2145  0.6756  0.2313
   52MOL    C8216504   2.101   7.174   4.249 -0.0547  0.7185  1.1071
   52MOL    C8316505   2.211   7.268   4.206 -0.5172 -0.3524  0.2617
   52MOL    C8416506   2.240   7.289   4.070 -0.0266  0.3551  0.6766
   52MOL    C8516507   2.339   7.371   4.019  0.1062  0.4159  0.1746
   52MOL    C8616508   2.404   7.456   4.106  0.1912  0.0658  0.0934
   52MOL    F8716509   2.494   7.548   4.053 -0.4133 -0.3283 -0.2587
   52MOL    C8816510   2.380   7.435   4.248 -0.1324 -0.5297  0.4627
   52MOL    C8916511   2.285   7.344   4.299  1.0093 -0.8393  0.0782
   52MOL    C9016512   2.116   7.119   4.395 -0.2173  0.6458  0.2579
   52MOL    H9116513   2.111   7.089   4.181  2.5510  1.6515  0.2770
   52MOL    H9216514   2.184   7.234   3.997 -2.0421 -0.5060  2.8004
   52MOL    H9316515   2.344   7.367   3.911  1.7202  0.8416  0.2051
   52MOL    H9416516   2.440   7.499   4.311 -1.0612  0.8630 -0.0203
   52MOL    H9516517   2.275   7.352   4.406  1.1643  1.9639 -0.0827
   52MOL    H9616518   2.131   7.198   4.468  0.4590  1.6272 -0.9177
   52MOL    H9716519   2.028   7.062   4.423  0.0188 -0.7313 -1.7303
   52MOL    C9816520   2.240   7.028   4.417 -0.1721 -0.5189  0.1635
   52MOL    C9916521   2.310   7.060   4.552 -0.2918  0.7026 -0.3512
   52MOL   C10016522   2.248   7.034   4.674 -0.6751  0.2963 -0.1234
   52MOL   C10116523   2.322   7.041   4.800  0.0053  0.6531  0.6297
   52MOL   C10216524   2.459   7.086   4.795 -0.2660 -0.0019 -0.3553
   52MOL   F10316525   2.536   7.100   4.909 -0.2608  0.1201  0.3477
   52MOL   C10416526   2.512   7.116   4.672  0.3541  0.3895 -0.3049
   52MOL   C10516527   2.442   7.097   4.550 -0.4033 -0.3116  0.3200
   52MOL   C10616528   2.195   6.885   4.398  0.4378  0.1060 -0.4623
   52MOL   H10716529   2.309   7.054   4.337  2.0168 -1.6240  1.6320
   52MOL   H10816530   2.146   6.998   4.679 -0.0726 -1.2728  1.7195
   52MOL   H10916531   2.278   7.027   4.898  0.1124 -0.7824  0.4831
   52MOL   H11016532   2.613   7.153   4.673 -0.4813  2.8103  0.3760
   52MOL   H11116533   2.492   7.118   4.457  0.4890  1.8662  1.2522
   52MOL   H11216534   2.122   6.859   4.475  1.0796  0.5132  0.2894
   52MOL   H11316535   2.148   6.875   4.300 -2.6610  2.8927  0.6198
   52MOL   C11416536   2.313   6.782   4.422  0.1269  0.7164  0.2044
   52MOL   C11516537   2.265   6.634   4.419  0.2724  0.1746  0.0135
   52MOL   C11616538   2.202   6.576   4.302 -0.4110 -0.2491 -0.2360
   52MOL   C11716539   2.180   6.439   4.291  0.5756 -0.2216  0.0569
   52MOL   C11816540   2.202   6.358   4.404  0.0204 -0.2702 -1.2148
   52MOL   F11916541   2.181   6.223   4.398  0.2571 -0.0818  0.2854
   52MOL   C12016542   2.258   6.409   4.522 -0.0577 -0.1564 -0.5409
   52MOL   C12116543   2.287   6.551   4.527  0.3480  0.6472 -0.6781
   52MOL   C12216544   2.438   6.808   4.337 -0.6925 -0.2957  0.9992
   52MOL   H12316545   2.344   6.802   4.525  2.4916  1.2065 -0.5814
   52MOL   H12416546   2.197   6.625   4.206 -0.8127  3.1695  1.4259
   52MOL   H12516547   2.148   6.398   4.196 -1.1246 -0.3476  0.6773
   52MOL   H12616548   2.283   6.349   4.609  0.2946  0.4266 -0.2348
   52MOL   H12716549   2.319   6.590   4.622 -3.4867 -1.0245  1.4370
   52MOL   H12816550   2.422   6.786   4.232  1.5947 -1.9052  0.9662
   52MOL   H12916551   2.454   6.916   4.341 -1.4935 -0.1882  1.5859
   52MOL   C13016552   2.568   6.733   4.383  1.2542 -0.5625 -0.2778
   52MOL   C13116553   2.648   6.701   4.254 -0.6051  0.6572  0.0755
   52MOL   C13216554   2.685   6.567   4.229 -0.4609 -0.2338  0.2644
   52MOL   C13316555   2.762   6.531   4.116  0.2714  0.2369 -0.1341
   52MOL   C13416556   2.785   6.626   4.018 -0.5315 -0.1975 -0.4667
   52MOL   F13516557   2.845   6.586   3.902 -0.8606  0.0253  0.1930
   52MOL   C13616558   2.749   6.763   4.046  0.0494 -0.0639 -0.2735
   52MOL   C13716559   2.689   6.800   4.164  0.1027 -0.0365  0.3025
   52MOL   C13816560   2.651   6.821   4.479  0.0008  0.0714 -0.4177
   52MOL   H13916561   2.538   6.640   4.432  0.8688  0.3800  1.3415
   52MOL   H14016562   2.656   6.496   4.305 -0.4123 -1.0768 -0.5035
   52MOL   H14116563   2.805   6.432   4.106 -0.8893 -0.2974  0.0710
   52MOL   H14216564   2.779   6.837   3.974  1.5414 -0.7536 -0.3618
   52MOL   H14316565   2.661   6.902   4.183  0.4524  0.0857  0.1597
   52MOL   H14416566   2.666   6.924   4.448 -2.0305 -0.3870 -3.1743
   52MOL   H14516567   2.587   6.820   4.566  0.8664  0.9443  0.2342
   52MOL   C14616568   2.790   6.782   4.529  0.1783  0.4558  0.0737
   52MOL   C14716569   2.859   6.882   4.619  0.0886  0.1485  0.2303
   52MOL   C14816570   2.979   6.948   4.591 -0.4684  0.1520 -0.5449
   52MOL   C14916571   3.033   7.033   4.689 -0.3791 -0.0315 -0.2094
   52MOL   C15016572   2.979   7.048   4.819  0.2233 -0.1847  1.1553
   52MOL   F15116573   3.048   7.108   4.914 -0.0539 -0.7965 -0.0738
   52MOL   C15216574   2.859   6.987   4.843 -0.2685  0.2776 -0.2619
   52MOL   C15316575   2.801   6.902   4.745 -0.1379  0.0248 -0.2383
   52MOL   C15416576   2.805   6.635   4.583 -0.8495  0.3882 -1.1318
   52MOL   H15516577   2.849   6.792   4.438 -0.7253  1.5464 -0.4038
   52MOL   H15616578   3.023   6.915   4.497 -4.0232  1.4079 -2.7345
   52MOL   H15716579   3.133   7.070   4.671 -0.1245 -0.4190  0.3828
   52MOL   H15816580   2.805   6.992   4.937  3.8328  1.8021  2.1442
   52MOL   H15916581   2.704   6.857   4.764 -0.9539  2.0030  0.4672
   52MOL   H16016582   2.742   6.636   4.672 -2.5668  1.0171 -2.3357
   52MOL   H16116583   2.754   6.577   4.507 -2.2459 -1.2675  1.0152
   52MOL   C16216584   2.954   6.599   4.594 -0.1390  0.2537 -0.1962
   52MOL   C16316585   2.989   6.524   4.722 -0.0236 -0.7694 -0.1909
   52MOL   C16416586   3.031   6.598   4.837  0.3088  0.4982 -0.4169
   52MOL   C16516587   3.061   6.530   4.958 -0.5784  0.2877  0.0986
   52MOL   C16616588   3.063   6.391   4.961 -0.3640  0.5025 -0.2339
   52MOL   F16716589   3.118   6.331   5.068  0.3463  0.2120 -0.1577
   52MOL   C16816590   3.041   6.321   4.848  0.0161  0.3599  0.1853
   52MOL   C16916591   3.006   6.388   4.731  0.5876  0.8460 -0.2512
   52MOL   C17016592   3.003   6.529   4.465 -0.3980  0.0452  0.9063
   52MOL   H17116593   3.014   6.690   4.602  0.6767 -0.4120  1.3093
   52MOL   H17216594   3.031   6.706   4.844 -2.7607  0.5068  0.3237
   52MOL   H17316595   3.083   6.580   5.051  1.1863 -0.6245  0.1898
   52MOL   H17416596   3.057   6.214   4.857  1.4600  0.6760  1.6741
   52MOL   H17516597   2.998   6.326   4.642  1.3257 -1.1422  1.0385
   52MOL   H17616598   2.935   6.448   4.440  0.8103 -0.5392 -0.6303
   52MOL   H17716599   2.995   6.606   4.388 -0.4247 -2.5868 -1.8556
   52MOL   C17816600   3.149   6.479   4.461  0.0543  0.3215 -0.3323
   52MOL   C17916601   3.163   6.376   4.346  0.3451  0.2368 -0.4079
   52MOL   C18016602   3.227   6.250   4.374 -0.6763 -0.5477  0.0393
   52MOL   C18116603   3.218   6.151   4.269 -0.0000 -0.0269 -0.1886
   52MOL   C18216604   3.148   6.167   4.142 -0.3297 -0.2052 -0.2184
   52MOL   F18316605   3.136   6.063   4.058 -0.1430 -0.1781 -0.7683
   52MOL   C18416606   3.084   6.290   4.121 -0.0036 -0.3003 -0.1420
   52MOL   C18516607   3.106   6.392   4.219 -0.3640  0.0306 -0.3444
   52MOL   C18616608   3.254   6.586   4.450 -0.3470 -0.0579  0.6278
   52MOL   H18716609   3.174   6.418   4.548  1.8107 -0.0121 -1.0360
   52MOL   H18816610   3.277   6.235   4.469  0.9557  2.1482 -0.3533
   52MOL   H18916611   3.270   6.058   4.287  1.0448  0.2071 -1.9068
   52MOL   H19016612   3.050   6.314   4.021  0.5257  3.7615  0.5782
   52MOL   H19116613   3.069   6.488   4.185  1.6337  0.5379 -1.1731
   52MOL   H19216614   3.335   6.558   4.383  1.0537 -0.4252  2.4385
   52MOL   H19316615   3.204   6.668   4.399 -1.3167 -0.5099  0.8522
   52MOL   C19416616   3.328   6.626   4.580 -0.2958 -0.4957 -0.5865
   52MOL   C19516617   3.431   6.516   4.620  0.2769 -0.0453 -1.1450
   52MOL   C19616618   3.551   6.514   4.556  0.8426  0.5401  0.2025
   52MOL   C19716619   3.657   6.426   4.595  0.2335 -0.5429 -0.6604
   52MOL   C19816620   3.627   6.344   4.711  0.3715  0.4861  0.2624
   52MOL   F19916621   3.734   6.275   4.756 -0.0592  0.7306  0.1098
   52MOL   C20016622   3.502   6.344   4.775  1.0237 -0.0583  0.0169
   52MOL   C20116623   3.399   6.427   4.724  0.4048  0.1753 -0.0460
   52MOL   C20216624   3.391   6.768   4.570 -0.6335 -0.2161 -0.9610
   52MOL   H20316625   3.249   6.647   4.652 -0.8553  0.2753 -1.4081
   52MOL   H20416626   3.572   6.585   4.478  3.5909 -0.5360 -0.1056
   52MOL   H20516627   3.754   6.422   4.548  0.5461 -0.6904 -0.0091
   52MOL   H20616628   3.489   6.296   4.871 -0.6774  1.7190  0.7138
   52MOL   H20716629   3.304   6.442   4.774 -0.1911 -0.4418 -0.9843
   52MOL   H20816630   3.451   6.761   4.479 -0.7648 -0.2073 -1.0467
   52MOL   H20916631   3.318   6.842   4.540 -0.3063  0.7806  0.6448
   52MOL   C21016632   3.480   6.804   4.688  0.9077 -0.4408 -0.4156
   52MOL   C21116633   3.567   6.927   4.653  0.4661 -0.9782 -0.3788
   52MOL   C21216634   3.503   7.054   4.638  0.5331  0.9113 -0.1607
   52MOL   C21316635   3.579   7.171   4.622  0.7195 -0.2654  0.1121
   52MOL   C21416636   3.719   7.169   4.627 -1.4266  0.4256 -0.5336
   52MOL   F21516637   3.788   7.278   4.594 -0.2436  0.1645 -0.1833
   52MOL   C21616638   3.781   7.048   4.651 -0.4578 -0.2505  0.6726
   52MOL   C21716639   3.708   6.926   4.667 -0.5107  0.3496 -0.3076
   52MOL   C21816640   3.393   6.825   4.820 -0.0964 -0.1888  0.5839
   52MOL   H21916641   3.565   6.737   4.698  2.8958  1.6369 -2.9321
   52MOL   H22016642   3.396   7.067   4.636  0.4513  0.3105  0.5757
   52MOL   H22116643   3.527   7.264   4.605 -0.4580 -0.6670  1.4483
   52MOL   H22216644   3.889   7.042   4.657 -0.5903  0.0341  4.4959
   52MOL   H22316645   3.751   6.830   4.693 -2.2375 -0.2292  0.5264
   52MOL   H22416646   3.309   6.887   4.789  1.1984  0.4154 -1.8372
   52MOL   H22516647   3.357   6.726   4.848  0.9514 -0.4875  0.9071
   52MOL   C22616648   3.467   6.873   4.948  0.3285  0.2346 -0.1791
   52MOL   C22716649   3.361   6.911   5.057 -0.2485 -0.1558 -0.2267
   52MOL   C22816650   3.326   7.047   5.065  0.1123 -0.2389 -0.4688
   52MOL   C22916651   3.238   7.084   5.168  0.3866  0.7834 -0.0359
   52MOL   C23016652   3.193   6.992   5.264 -0.6946 -0.4588 -0.7716
   52MOL   F23116653   3.121   7.036   5.374  0.1565 -1.3341 -0.1059
   52MOL   C23216654   3.218   6.852   5.243  0.3517 -0.5541  0.3752
   52MOL   C23316655   3.299   6.808   5.139 -0.4493 -0.4496  0.6529
   52MOL   C23416656   3.576   6.774   4.987 -0.4989 -0.6439 -0.1455
   52MOL   H23516657   3.525   6.963   4.928 -1.6282  1.9332  1.4157
   52MOL   H23616658   3.375   7.116   4.998 -0.5939 -0.0442 -0.7833
   52MOL   H23716659   3.217   7.190   5.175  0.3367  0.7870 -0.2506
   52MOL   H23816660   3.177   6.779   5.311  0.9400 -0.4063  0.8922
   52MOL   H23916661   3.321   6.704   5.121  0.0809 -0.4373  1.2097
   52MOL   H24016662   3.525   6.685   5.023  1.5497 -1.4234  0.9387
   52MOL   H24116663   3.642   6.760   4.902 -1.8052 -2.0546 -0.9408
   52MOL   C24216664   3.675   6.822   5.103 -0.1744  0.0712 -0.4270
   52MOL   C24316665   3.743   6.704   5.167 -0.2270  0.2800  0.0171
   52MOL   C24416666   3.658   6.625   5.250 -0.1237  0.4889  0.5863
   52MOL   C24516667   3.711   6.521   5.328  0.5281 -0.0070  0.0865
   52MOL   C24616668   3.845   6.490   5.320 -0.5693  0.0233 -0.6129
   52MOL   F24716669   3.894   6.398   5.403  0.0840  0.1062 -0.4978
   52MOL   C24816670   3.927   6.561   5.228 -0.1625  0.3552  0.1557
   52MOL   C24916671   3.878   6.669   5.157  0.2154 -0.3788  0.1265
   52MOL   C25016672   3.772   6.924   5.054  0.6990  0.0198 -0.1745
   52MOL   H25116673   3.621   6.870   5.184  1.8433  3.3891 -0.9771
   52MOL   H25216674   3.553   6.643   5.270 -0.3745  0.5719 -0.7586
   52MOL   H25316675   3.646   6.471   5.398 -1.6621 -2.0844 -3.2623
   52MOL   H25416676   4.032   6.539   5.232 -0.2799  0.0045  2.6850
   52MOL   H25516677   3.955   6.715   5.097 -2.1166  1.5791 -1.4239
   52MOL   H25616678   3.870   6.904   5.098 -0.3679  0.5727  2.5340
   52MOL   H25716679   3.801   6.909   4.950 -0.7278 -2.6464 -0.2414
   52MOL   C25816680   3.742   7.073   5.083 -0.0882  0.1481  0.5420
   52MOL   C25916681   3.718   7.098   5.233  0.2115  0.3084  0.1211
   52MOL   C26016682   3.597   7.161   5.287 -0.0732  0.7986  0.0420
   52MOL   C26116683   3.593   7.209   5.419 -0.9392  0.1024 -0.2551
   52MOL   C26216684   3.695   7.176   5.508  0.0989 -0.1183  0.3990
   52MOL   F26316685   3.680   7.202   5.643 -0.0287 -0.5798  0.3265
   52MOL   C26416686   3.814   7.114   5.458 -0.2676 -0.2732 -0.2457
   52MOL   C26516687   3.827   7.083   5.321 -0.3416  0.2839  0.2150
   52MOL   C26616688   3.849   7.162   5.020  0.0724 -0.1507 -0.2736
   52MOL   H26716689   3.644   7.089   5.038 -0.5524 -1.4432  0.9338
   52MOL   H26816690   3.516   7.187   5.221  1.3899  1.6889 -1.4423
   52MOL   H26916691   3.508   7.262   5.458  0.3129  2.1397 -0.2529
   52MOL   H27016692   3.895   7.094   5.526 -0.5200  0.8438  0.3958
   52MOL   H27116693   3.910   7.030   5.277 -1.0735 -1.7307  1.2389
   52MOL   H27216694   3.949   7.133   5.051  0.3180  0.2961 -0.6454
   52MOL   H27316695   3.847   7.154   4.911 -0.2069 -1.4183 -0.1761
   52MOL   C27416696   3.826   7.312   5.039 -0.1723 -0.1254 -0.0216
   52MOL   C27516697   3.952   7.385   4.990  0.6260 -0.0235 -0.4449
   52MOL   C27616698   4.048   7.423   5.086 -0.0626 -0.6172  0.7963
   52MOL   C27716699   4.172   7.476   5.046  0.4038 -0.0551 -0.0498
   52MOL   C27816700   4.191   7.496   4.904  0.2953 -0.3368 -0.4033
   52MOL   F27916701   4.309   7.542   4.865 -0.1548 -0.0018 -0.4317
   52MOL   C28016702   4.086   7.469   4.807 -1.1032 -0.3037  0.7401
   52MOL   C28116703   3.964   7.415   4.857 -0.3897  0.4591 -0.0781
   52MOL   C28216704   3.690   7.362   4.974 -0.3817 -0.3963 -0.2324
   52MOL   H28316705   3.820   7.334   5.146 -2.6492 -0.7152 -0.0008
   52MOL   H28416706   4.033   7.395   5.189  1.9303 -1.0370  0.9964
   52MOL   H28516707   4.251   7.493   5.118  0.9226 -0.8011 -0.4381
   52MOL   H28616708   4.097   7.504   4.706  0.2259 -0.1379  0.9325
   52MOL   H28716709   3.889   7.395   4.782 -1.9629  2.4243  0.9300
   52MOL   H28816710   3.697   7.370   4.865 -0.4343 -0.8564 -0.2682
   52MOL   H28916711   3.609   7.290   4.980  0.4731 -1.6358 -2.9395
   52MOL   C29016712   3.643   7.505   5.027 -0.3658 -0.0200  0.2356
   52MOL   C29116713   3.530   7.574   4.948 -0.4265 -0.8657 -0.2835
   52MOL   C29216714   3.400   7.522   4.940 -0.2859  0.6211  0.0679
   52MOL   C29316715   3.291   7.587   4.873  0.5477  0.0824 -0.6187
   52MOL   C29416716   3.319   7.713   4.811 -0.5857  0.0717 -0.0573
   52MOL   F29516717   3.223   7.791   4.754  0.1935  0.2657  0.1499
   52MOL   C29616718   3.450   7.767   4.818 -0.8984  0.2420 -0.0623
   52MOL   C29716719   3.549   7.694   4.886 -0.6844  0.2578 -0.0213
   52MOL   C29816720   3.612   7.507   5.176 -0.8369 -0.0801  0.0997
   52MOL   H29916721   3.725   7.577   5.033 -0.2196 -0.2594  1.2338
   52MOL   H30016722   3.387   7.425   4.986  2.3581  0.1429 -0.1332
   52MOL   H30116723   3.190   7.551   4.877  0.7056 -0.0714  2.9226
   52MOL   H30216724   3.476   7.865   4.781 -0.9617  0.4085  0.3286
   52MOL   H30316725   3.646   7.741   4.891 -0.8557  0.4550  2.0650
   52MOL   H30416726   3.551   7.419   5.201 -1.3168  0.0933 -0.4386
   52MOL   H30516727   3.701   7.493   5.237 -0.1449 -0.9572 -1.0703
   52MOL   C30616728   3.519   7.623   5.234  0.0848  0.0053  0.7447
   52MOL   C30716729   3.482   7.581   5.376 -0.2452 -0.4309 -0.2179
   52MOL   C30816730   3.366   7.505   5.393  0.9619  0.3417 -0.4704
   52MOL   C30916731   3.320   7.476   5.523  0.4691  0.6872 -0.5862
   52MOL   C31016732   3.410   7.495   5.633  0.4686  0.0979  0.1468
   52MOL   F31116733   3.379   7.449   5.756 -0.1662 -0.1168  0.6843
   52MOL   C31216734   3.532   7.563   5.613  0.3166  0.3990  0.4653
   52MOL   C31316735   3.563   7.615   5.481 -0.2362  0.5460  0.0102
   52MOL   C31416736   3.584   7.762   5.229 -0.0979  0.1136 -0.0939
   52MOL   H31516737   3.423   7.624   5.183  2.0656 -0.5336 -3.1308
   52MOL   H31616738   3.305   7.482   5.306 -1.5902 -2.9828  2.0897
   52MOL   H31716739   3.226   7.429   5.548  0.7738  0.4259  0.0666
   52MOL   H31816740   3.591   7.578   5.702 -1.0239 -0.2723  1.4836
   52MOL   H31916741   3.652   7.674   5.462  0.8864 -1.1086  0.0681
   52MOL   H32016742   3.613   7.793   5.129 -1.3843 -0.0327 -0.5310
   52MOL   H32116743   3.521   7.845   5.262 -1.0760  0.0121 -1.6542
   52MOL   H32216744   3.674   7.768   5.290 -0.4747 -0.3395  0.5170
   53MOL     C116745   7.757   7.965   6.346  0.0927  0.3216 -0.1953
   53MOL     C216746   7.760   7.854   6.451  0.6330  0.2779  0.1428
   53MOL     C316747   7.690   7.733   6.417 -0.0321  0.1120 -0.6571
   53MOL     C416748   7.685   7.634   6.516  0.2477  0.7075 -0.3148
   53MOL     C516749   7.734   7.652   6.649  0.3149  0.0652 -0.4964
   53MOL     F616750   7.707   7.560   6.742 -0.0465  0.9606 -0.5398
   53MOL     C716751   7.812   7.766   6.674 -0.1182  0.0492 -0.6290
   53MOL     C816752   7.822   7.868   6.577  0.0421  0.6082  0.1342
   53MOL     C916753   7.724   8.103   6.393  0.0539 -0.7521 -0.3046
   53MOL    H1016754   7.683   7.944   6.269 -0.0304 -0.8440  0.2393
   53MOL    H1116755   7.638   7.720   6.323 -0.0111  1.2374 -0.8303
   53MOL    H1216756   7.622   7.548   6.503 -0.1641  1.1100 -0.9900
   53MOL    H1316757   7.866   7.782   6.767  0.1536 -1.7187 -0.4661
   53MOL    H1416758   7.872   7.962   6.598 -0.9203  1.9930 -3.3726
   53MOL    H1516759   7.712   8.095   6.501  1.2655 -1.0960 -0.1817
   53MOL    H1616760   7.816   8.158   6.376 -0.6745  0.5450 -0.0591
   53MOL    H1716761   7.854   7.974   6.297  0.2697  0.4394  0.1696
   53MOL    C1816762   7.609   8.185   6.332  0.3036 -0.7669 -0.7150
   53MOL    C1916763   7.468   8.131   6.365  0.0182  0.5404  0.1110
   53MOL    C2016764   7.379   8.098   6.261  0.5695 -0.2289  0.1604
   53MOL    C2116765   7.253   8.051   6.283  0.2111 -0.0730 -0.7102
   53MOL    C2216766   7.200   8.046   6.412  0.7544  0.8894  0.7410
   53MOL    F2316767   7.074   7.999   6.431 -0.5702  0.1473  0.2348
   53MOL    C2416768   7.282   8.097   6.515 -0.2788 -0.3347  0.1804
   53MOL    C2516769   7.416   8.129   6.501  0.1046  0.4805  1.1420
   53MOL    C2616770   7.619   0.109   6.351 -0.9851  0.3632  0.0600
   53MOL    H2716771   7.622   8.161   6.227 -2.9689 -1.3160 -1.0413
   53MOL    H2816772   7.412   8.101   6.158  1.4512 -0.4070  0.4253
   53MOL    H2916773   7.195   8.024   6.195  0.8352  0.8127 -1.4069
   53MOL    H3016774   7.238   8.115   6.612  0.4014 -1.2923  0.6866
   53MOL    H3116775   7.468   8.161   6.590 -0.0516  1.1851  0.9774
   53MOL    H3216776   7.610   0.126   6.459  2.3079 -0.5672  0.5495
   53MOL    H3316777   7.723   0.137   6.338 -0.7427 -0.1050  0.9209
   53MOL    C3416778   7.531   0.190   6.258  0.6145 -0.3611 -0.1200
   53MOL    C3516779   7.541   0.341   6.295 -0.2836  0.3460 -0.0916
   53MOL    C3616780   7.429   0.408   6.353  0.8728 -0.4536 -0.2207
   53MOL    C3716781   7.442   0.543   6.397 -0.5155  0.2005 -0.5770
   53MOL    C3816782   7.561   0.612   6.385  0.0544  0.1844  0.6406
   53MOL    F3916783   7.575   0.739   6.430  0.3929 -0.4068 -0.2426
   53MOL    C4016784   7.667   0.555   6.316  0.1714 -0.4560 -0.0575
   53MOL    C4116785   7.659   0.420   6.270  0.2078  0.3074  0.9953
   53MOL    C4216786   7.561   0.156   6.107 -0.3438  0.4524  0.3835
   53MOL    H4316787   7.431   0.156   6.283  0.8246 -0.8668  0.0270
   53MOL    H4416788   7.340   0.351   6.374  1.4141 -0.9268  0.8021
   53MOL    H4516789   7.363   0.594   6.450 -2.9416 -3.2077 -0.7096
   53MOL    H4616790   7.753   0.617   6.294 -0.1105  1.2583  3.4070
   53MOL    H4716791   7.742   0.375   6.217 -2.1184 -0.5182 -2.0963
   53MOL    H4816792   7.662   0.120   6.086 -0.1132  0.9306  0.6808
   53MOL    H4916793   7.495   0.075   6.074  0.6745  0.4936 -1.8460
   53MOL    C5016794   7.537   0.273   6.002 -0.8605  0.5489 -0.0652
   53MOL    C5116795   7.623   0.250   5.874 -0.1814  0.1008  0.2797
   53MOL    C5216796   7.701   0.353   5.824 -0.5793  0.1578 -0.4505
   53MOL    C5316797   7.775   0.338   5.709 -0.6866  0.1404 -0.2259
   53MOL    C5416798   7.782   0.210   5.647  0.4810 -0.7169  0.1408
   53MOL    F5516799   7.870   0.198   5.543  0.0054  0.2589  0.0527
   53MOL    C5616800   7.714   0.101   5.696 -0.6247  0.2648  0.6004
   53MOL    C5716801   7.626   0.123   5.804 -0.1472 -0.0707 -0.4438
   53MOL    C5816802   7.394   0.316   5.977 -0.2799  0.9222  0.3692
   53MOL    H5916803   7.584   0.364   6.041  4.8604 -2.4307  0.5988
   53MOL    H6016804   7.695   0.447   5.877 -0.4794 -1.0460  1.7428
   53MOL    H6116805   7.827   0.421   5.663  0.6593 -0.6209 -0.1080
   53MOL    H6216806   7.733   0.013   5.637 -1.9431  1.0978 -1.0993
   53MOL    H6316807   7.579   0.033   5.839 -0.1180 -0.6242 -1.8097
   53MOL    H6416808   7.355   0.238   5.912  0.8359  1.7363 -1.3079
   53MOL    H6516809   7.332   0.306   6.066 -1.7335  0.1186 -0.7089
   53MOL    C6616810   7.371   0.450   5.917 -0.0553 -0.3357  0.5067
   53MOL    C6716811   7.225   0.460   5.869 -0.6363 -0.2915 -0.3502
   53MOL    C6816812   7.114   0.469   5.952  0.1756  0.4166 -0.5721
   53MOL    C6916813   6.982   0.482   5.898  0.2682 -0.1994 -0.3734
   53MOL    C7016814   6.961   0.496   5.760  0.9260  0.0851 -0.3933
   53MOL    F7116815   6.835   0.524   5.711 -0.3053  0.1531  0.2321
   53MOL    C7216816   7.074   0.470   5.676  0.2897 -0.0592  0.7785
   53MOL    C7316817   7.203   0.452   5.732  0.0082 -1.0187 -0.3218
   53MOL    C7416818   7.404   0.566   6.015 -0.3586 -0.3068  0.2517
   53MOL    H7516819   7.435   0.464   5.829  1.3021  0.3902  1.6000
   53MOL    H7616820   7.119   0.474   6.060 -0.1905  2.2252 -0.6168
   53MOL    H7716821   6.894   0.508   5.955  0.1922 -0.0573 -0.5564
   53MOL    H7816822   7.057   0.495   5.572 -0.8292  1.2073  1.2432
   53MOL    H7916823   7.293   0.443   5.672 -0.8717  1.3618 -2.0602
   53MOL    H8016824   7.323   0.573   6.089 -1.2146 -0.8748 -0.6106
   53MOL    H8116825   7.484   0.549   6.087 -1.2404  0.3823  1.4127
   53MOL    C8216826   7.437   0.710   5.962  0.5015  0.5639 -0.7492
   53MOL    C8316827   7.575   0.718   5.895 -0.2496 -0.1900  0.6976
   53MOL    C8416828   7.688   0.754   5.972  1.2390  0.7249  0.2402
   53MOL    C8516829   7.809   0.773   5.905 -0.3806  0.0576  0.0584
   53MOL    C8616830   7.828   0.735   5.773 -0.0094  0.0526 -0.0250
   53MOL    F8716831   7.944   0.735   5.707 -1.1694  0.5488  0.1922
   53MOL    C8816832   7.717   0.678   5.702 -0.3740  0.3819 -0.1188
   53MOL    C8916833   7.591   0.678   5.763 -0.1853 -0.9732 -0.7310
   53MOL    C9016834   7.324   0.775   5.882 -0.1439  0.2544  0.5562
   53MOL    H9116835   7.447   0.757   6.060 -2.9312 -0.6661  0.2485
   53MOL    H9216836   7.666   0.781   6.074 -0.9110 -0.7359  0.1804
   53MOL    H9316837   7.897   0.817   5.949  0.3920  0.3772 -1.7614
   53MOL    H9416838   7.719   0.643   5.600 -0.4491 -0.2548  0.0932
   53MOL    H9516839   7.512   0.633   5.706 -1.1306  1.2571 -1.2333
   53MOL    H9616840   7.378   0.861   5.842 -0.3382  0.4311  0.6734
   53MOL    H9716841   7.297   0.723   5.791  0.7439  1.3056 -0.3247
   53MOL    C9816842   7.201   0.833   5.953  0.1181  0.1171  0.0332
   53MOL    C9916843   7.241   0.884   6.094 -0.3805  0.2105  0.2227
   53MOL   C10016844   7.186   0.818   6.208 -0.1191 -0.1075  0.6124
   53MOL   C10116845   7.224   0.857   6.337  0.3045 -0.3759 -0.2226
   53MOL   C10216846   7.311   0.964   6.347 -0.1559 -0.0833  0.7403
   53MOL   F10316847   7.347   1.000   6.469 -0.7730 -0.1267  0.1559
   53MOL   C10416848   7.354   1.039   6.235 -0.4478  0.6713 -0.5534
   53MOL   C10516849   7.323   0.998   6.102 -0.0884 -0.8463 -0.0806
   53MOL   C10616850   7.138   0.938   5.865  0.0412  0.2266  0.0180
   53MOL   H10716851   7.142   0.742   5.969  0.6949 -0.4085 -0.8489
   53MOL   H10816852   7.122   0.732   6.196  1.8777 -1.2241 -2.8058
   53MOL   H10916853   7.209   0.796   6.425  0.2127 -0.3183 -0.1983
   53MOL   H11016854   7.428   1.116   6.250  0.2429 -0.4057  1.7576
   53MOL   H11116855   7.373   1.041   6.016 -2.5037 -0.8605 -1.5452
   53MOL   H11216856   7.205   1.024   5.867  1.1833 -0.6587  1.2302
   53MOL   H11316857   7.146   0.905   5.762  0.4985 -2.1778  0.7840
   53MOL   C11416858   6.987   0.978   5.895  0.0684  0.3821 -0.1791
   53MOL   C11516859   6.941   0.966   6.036  0.2839  0.7242 -0.4740
   53MOL   C11616860   6.983   1.058   6.138 -0.0532  0.6542  0.0248
   53MOL   C11716861   6.935   1.040   6.272  0.3782 -0.2275 -0.3624
   53MOL   C11816862   6.847   0.936   6.306 -0.3578 -0.0013  0.6402
   53MOL   F11916863   6.795   0.919   6.428  0.1848 -0.3478  0.2143
   53MOL   C12016864   6.799   0.851   6.206  0.8363 -0.0527  0.7909
   53MOL   C12116865   6.852   0.862   6.073 -0.1219 -0.3862 -0.2868
   53MOL   C12216866   6.942   1.116   5.835  0.3531 -0.6662  0.4398
   53MOL   H12316867   6.926   0.899   5.852  0.4301  0.6835 -1.2431
   53MOL   H12416868   7.053   1.139   6.122 -0.8801  1.4335  0.3088
   53MOL   H12516869   6.976   1.107   6.346  1.9058 -1.7167  0.1522
   53MOL   H12616870   6.728   0.771   6.224 -0.0727  0.6761  0.5041
   53MOL   H12716871   6.804   0.796   6.002  1.2687 -2.5283  0.6995
   53MOL   H12816872   6.839   1.144   5.861  0.4390  0.3214 -0.2347
   53MOL   H12916873   7.004   1.198   5.872 -1.4368 -0.7132  3.8255
   53MOL   C13016874   6.942   1.129   5.681  0.0996 -0.1362  0.2737
   53MOL   C13116875   6.808   1.065   5.636 -0.3461  0.8218  0.1033
   53MOL   C13216876   6.685   1.132   5.645 -0.4124  0.0425 -0.0934
   53MOL   C13316877   6.563   1.072   5.596  0.5146  0.6237 -0.1520
   53MOL   C13416878   6.564   0.942   5.539 -0.1663  0.6595  0.3915
   53MOL   F13516879   6.447   0.894   5.499  0.1418 -0.7262 -0.3550
   53MOL   C13616880   6.684   0.875   5.525 -0.8839  0.2214 -0.0513
   53MOL   C13716881   6.804   0.940   5.576  0.1496  0.2945  1.3863
   53MOL   C13816882   6.966   1.271   5.621 -1.1337 -0.0284 -0.6607
   53MOL   H13916883   7.024   1.067   5.645 -1.4248 -1.2993 -1.2936
   53MOL   H14016884   6.684   1.235   5.676 -2.9090 -0.6259  2.2228
   53MOL   H14116885   6.471   1.128   5.589  0.2452  0.3601  1.1442
   53MOL   H14216886   6.697   0.776   5.484 -0.0248  0.0703  0.5714
   53MOL   H14316887   6.899   0.889   5.571  0.6816  1.4120 -0.6222
   53MOL   H14416888   6.872   1.309   5.581 -1.8085 -0.1070  0.8164
   53MOL   H14516889   6.988   1.337   5.705 -0.4072 -1.8876  0.6635
   53MOL   C14616890   7.079   1.291   5.518  0.2665  0.0757  0.6527
   53MOL   C14716891   7.216   1.264   5.573  0.2939  0.0785  0.0066
   53MOL   C14816892   7.284   1.148   5.533  0.8066 -0.0364 -0.7170
   53MOL   C14916893   7.416   1.126   5.584  0.9268  0.3574 -0.1158
   53MOL   C15016894   7.480   1.213   5.668 -0.8122 -0.3948  0.3766
   53MOL   F15116895   7.607   1.187   5.711  0.5387  0.1076 -0.4212
   53MOL   C15216896   7.409   1.335   5.696 -0.7337  0.2509 -0.1196
   53MOL   C15316897   7.275   1.355   5.661  0.8974 -0.1323 -0.2999
   53MOL   C15416898   7.053   1.216   5.384  0.1623  0.1995  0.0391
   53MOL   H15516899   7.080   1.398   5.498 -0.6636 -0.1365 -0.6192
   53MOL   H15616900   7.243   1.075   5.465  0.1549 -0.1128 -0.2397
   53MOL   H15716901   7.480   1.045   5.553  1.9437  0.3813  1.8332
   53MOL   H15816902   7.455   1.404   5.766  0.2896 -1.9058  1.3748
   53MOL   H15916903   7.223   1.443   5.695  2.0482  1.2649 -2.0173
   53MOL   H16016904   7.138   1.218   5.316 -0.5402 -1.5370 -0.9252
   53MOL   H16116905   7.031   1.111   5.402 -1.3476  0.2983 -1.1305
   53MOL   C16216906   6.935   1.264   5.300 -0.2187 -0.7285  0.1905
   53MOL   C16316907   6.970   1.395   5.221  0.4236  0.8279  1.0507
   53MOL   C16416908   7.045   1.391   5.098 -0.3587 -0.4323 -0.2564
   53MOL   C16516909   7.092   1.507   5.038  0.0353  0.2702  0.4591
   53MOL   C16616910   7.054   1.632   5.096  0.1944  0.1704 -0.9299
   53MOL   F16716911   7.078   1.748   5.037 -0.1209 -0.0505  0.3488
   53MOL   C16816912   6.975   1.636   5.214 -0.2020 -0.0565 -0.1755
   53MOL   C16916913   6.943   1.519   5.279  0.2041 -0.1697  0.7794
   53MOL   C17016914   6.881   1.150   5.210  0.6240 -0.5941  0.0624
   53MOL   H17116915   6.863   1.293   5.376 -0.2617 -0.5281  0.0741
   53MOL   H17216916   7.076   1.298   5.052  0.2833  0.4748 -1.7094
   53MOL   H17316917   7.144   1.492   4.944 -0.3459  0.2869  0.2416
   53MOL   H17416918   6.938   1.729   5.256  1.4773  0.9282 -0.8365
   53MOL   H17516919   6.890   1.523   5.373 -0.2508 -1.7378  0.6014
   53MOL   H17616920   6.960   1.119   5.142 -1.8005 -1.5380 -2.4655
   53MOL   H17716921   6.855   1.066   5.274  0.8305 -0.8331 -0.1673
   53MOL   C17816922   6.759   1.182   5.115 -0.7307  0.2218 -0.2734
   53MOL   C17916923   6.769   1.083   4.997 -0.3567 -0.5942 -0.3122
   53MOL   C18016924   6.745   0.947   5.016 -0.4327  0.2206  0.4076
   53MOL   C18116925   6.758   0.854   4.907 -0.0827 -0.4434 -0.1694
   53MOL   C18216926   6.782   0.903   4.779  0.5452  0.6287  0.5644
   53MOL   F18316927   6.766   0.818   4.667 -0.5806  0.1931 -0.1399
   53MOL   C18416928   6.828   1.034   4.763  0.3890  0.2323  0.2987
   53MOL   C18516929   6.818   1.126   4.870  0.4327 -0.4325 -0.1425
   53MOL   C18616930   6.617   1.185   5.173 -0.3739  0.5040  0.8122
   53MOL   H18716931   6.779   1.282   5.077 -1.0890  0.4739  0.2079
   53MOL   H18816932   6.717   0.912   5.115 -1.0493 -1.8133 -0.4600
   53MOL   H18916933   6.732   0.750   4.921 -0.7404  0.0373  2.4952
   53MOL   H19016934   6.849   1.072   4.664 -1.4891 -1.0730 -0.6245
   53MOL   H19116935   6.824   1.233   4.852  1.9030 -0.5725 -0.5061
   53MOL   H19216936   6.544   1.138   5.107 -0.2153 -1.5211  2.0046
   53MOL   H19316937   6.614   1.116   5.258  0.4512  0.6964  1.0006
   53MOL   C19416938   6.568   1.325   5.222 -0.0049 -0.6148 -0.0626
   53MOL   C19516939   6.571   1.431   5.116  0.3318 -0.3667 -1.0645
   53MOL   C19616940   6.515   1.394   4.995 -0.2579  0.3426 -0.5003
   53MOL   C19716941   6.508   1.493   4.896 -0.4229  0.0959  0.9442
   53MOL   C19816942   6.557   1.623   4.918 -0.1817  0.1155 -0.8585
   53MOL   F19916943   6.563   1.710   4.817 -0.3504 -0.4746 -0.2090
   53MOL   C20016944   6.613   1.658   5.039  0.0932 -0.4327 -0.6848
   53MOL   C20116945   6.625   1.561   5.139  0.1144 -0.3228 -0.1554
   53MOL   C20216946   6.431   1.304   5.283 -0.2827  0.6201 -0.2890
   53MOL   H20316947   6.637   1.357   5.300  0.3158  0.2309 -0.6782
   53MOL   H20416948   6.493   1.292   4.968 -3.5205  1.1627 -1.1853
   53MOL   H20516949   6.485   1.470   4.793 -0.6301 -1.6215  1.3648
   53MOL   H20616950   6.652   1.758   5.050 -1.1714 -0.0751  0.6581
   53MOL   H20716951   6.671   1.587   5.233  1.3312  0.3095 -0.8988
   53MOL   H20816952   6.377   1.242   5.212  1.4655 -2.3059  0.8476
   53MOL   H20916953   6.437   1.249   5.377 -2.4669  0.1216 -0.3932
   53MOL   C21016954   6.348   1.432   5.315  0.4713 -0.6484  0.0120
   53MOL   C21116955   6.206   1.378   5.348  0.1380 -0.3926 -0.4927
   53MOL   C21216956   6.174   1.285   5.452  0.0454  0.3569 -0.4487
   53MOL   C21316957   6.042   1.232   5.457 -0.1431  0.6044  0.1980
   53MOL   C21416958   5.939   1.280   5.376 -0.1669 -0.4302 -0.7785
   53MOL   F21516959   5.811   1.223   5.380 -0.3049  0.7102  0.4157
   53MOL   C21616960   5.962   1.380   5.284 -0.4875 -0.5616  1.1565
   53MOL   C21716961   6.094   1.431   5.271  0.0992  0.0741  0.2607
   53MOL   C21816962   6.399   1.512   5.437  0.6469 -0.4541  0.2520
   53MOL   H21916963   6.347   1.497   5.227 -3.4093 -0.6967 -0.0808
   53MOL   H22016964   6.251   1.258   5.523  0.4142 -0.3727 -1.1054
   53MOL   H22116965   6.002   1.160   5.526  0.8697  0.5900  0.7912
   53MOL   H22216966   5.890   1.416   5.212  0.6111 -1.7040 -0.5561
   53MOL   H22316967   6.121   1.497   5.190 -0.7258 -0.4341 -0.4386
   53MOL   H22416968   6.390   1.451   5.527 -2.6072 -1.9564 -1.0165
   53MOL   H22516969   6.508   1.503   5.444  0.3859 -2.7565  2.2073
   53MOL   C22616970   6.329   1.648   5.474  1.0917  0.1551  0.1515
   53MOL   C22716971   6.373   1.711   5.610 -0.5143 -0.2064  0.0217
   53MOL   C22816972   6.307   1.699   5.735  0.3921  0.0778  0.1987
   53MOL   C22916973   6.349   1.762   5.858  0.4893 -0.0674 -0.3734
   53MOL   C23016974   6.473   1.824   5.859  0.1917  0.6554  0.0706
   53MOL   F23116975   6.518   1.889   5.959 -0.1586  0.8850 -0.3124
   53MOL   C23216976   6.551   1.820   5.740 -0.1481  0.2737 -0.1350
   53MOL   C23316977   6.504   1.763   5.617 -0.5148  0.4432  0.3285
   53MOL   C23416978   6.339   1.753   5.353 -1.0136 -0.1734 -1.0308
   53MOL   H23516979   6.226   1.617   5.490 -0.1195  3.7064 -0.3916
   53MOL   H23616980   6.206   1.663   5.745  0.2733  0.2365 -0.4116
   53MOL   H23716981   6.286   1.760   5.946 -0.8870 -0.0952 -1.3294
   53MOL   H23816982   6.644   1.873   5.746  0.3956 -0.5383 -1.2635
   53MOL   H23916983   6.558   1.767   5.523 -1.2070 -1.8158 -0.1809
   53MOL   H24016984   6.445   1.771   5.337 -1.3789  2.8080 -0.2738
   53MOL   H24116985   6.294   1.707   5.265 -0.4941 -1.6075 -0.5764
   53MOL   C24216986   6.268   1.893   5.372 -0.1611  0.6175 -0.2880
   53MOL   C24316987   6.277   1.980   5.248  0.2344 -0.0364 -0.6614
   53MOL   C24416988   6.319   2.112   5.260  0.5592 -0.5286  0.3148
   53MOL   C24516989   6.326   2.196   5.143 -0.8811 -0.4546 -0.0045
   53MOL   C24616990   6.297   2.141   5.017 -0.6912  0.4937 -0.2937
   53MOL   F24716991   6.298   2.223   4.914 -0.1280  0.2128  0.3368
   53MOL   C24816992   6.254   2.006   5.007  0.4755 -0.9057  0.1565
   53MOL   C24916993   6.238   1.928   5.121  0.0274 -0.2696 -0.1280
   53MOL   C25016994   6.112   1.884   5.419  0.6463 -0.2508  0.2300
   53MOL   H25116995   6.329   1.950   5.442 -0.1425 -1.0453  1.0816
   53MOL   H25216996   6.356   2.153   5.352 -1.6381 -0.6566  1.2833
   53MOL   H25316997   6.352   2.300   5.147  2.0236 -1.1375  0.3133
   53MOL   H25416998   6.228   1.962   4.913 -0.0930 -0.8148  0.2657
   53MOL   H25516999   6.204   1.827   5.103 -0.0775 -0.4370  0.9518
   53MOL   H25617000   6.051   1.817   5.357  1.1180  0.1064 -0.6189
   53MOL   H25717001   6.101   1.838   5.517  3.7421  0.2045  0.8306
   53MOL   C25817002   6.041   2.021   5.435  0.6204  0.5475 -0.1817
   53MOL   C25917003   5.937   2.029   5.326 -0.6340  0.1426  0.2317
   53MOL   C26017004   5.811   1.966   5.341 -0.5923  0.6758  0.3594
   53MOL   C26117005   5.711   1.985   5.240 -0.2744  0.0607 -0.1199
   53MOL   C26217006   5.743   2.059   5.125 -0.6388 -0.3298 -0.1316
   53MOL   F26317007   5.653   2.059   5.018 -0.4272  0.4002 -0.3131
   53MOL   C26417008   5.868   2.121   5.106 -0.5945  0.6562 -1.7662
   53MOL   C26517009   5.966   2.105   5.210  0.1435 -0.0051  0.4593
   53MOL   C26617010   5.997   2.052   5.583  0.4077 -0.1816 -0.1211
   53MOL   H26717011   6.113   2.102   5.421 -0.0353  1.8603  3.4143
   53MOL   H26817012   5.789   1.903   5.426 -3.4771 -0.0577 -0.8445
   53MOL   H26917013   5.623   1.924   5.248  0.5246 -1.0457  0.3052
   53MOL   H27017014   5.896   2.165   5.011  1.6608  0.8830 -1.0325
   53MOL   H27117015   6.060   2.157   5.198 -0.0582  0.6558  1.6908
   53MOL   H27217016   5.907   1.995   5.604 -0.5779  1.2941 -0.2351
   53MOL   H27317017   6.076   2.031   5.655  0.3474 -1.0914 -0.3136
   53MOL   C27417018   5.947   2.198   5.602 -0.2347 -0.1648  1.0689
   53MOL   C27517019   5.838   2.205   5.713 -0.2643 -0.2481  0.5483
   53MOL   C27617020   5.722   2.278   5.683 -0.5230 -0.3963  0.5805
   53MOL   C27717021   5.618   2.278   5.776 -0.8098  0.4794 -0.4496
   53MOL   C27817022   5.627   2.214   5.903 -0.2033 -0.1921  0.2909
   53MOL   F27917023   5.519   2.227   5.984 -0.0983  0.1102 -0.0607
   53MOL   C28017024   5.740   2.131   5.928  0.0142 -0.1037  0.2734
   53MOL   C28117025   5.845   2.135   5.837  0.2809  0.2413  0.4338
   53MOL   C28217026   6.066   2.292   5.625 -0.1266  0.6650 -0.4041
   53MOL   H28317027   5.891   2.215   5.510  0.4964 -2.1420  0.2115
   53MOL   H28417028   5.716   2.329   5.588  0.8704  1.3200  1.3909
   53MOL   H28517029   5.525   2.319   5.740 -1.3375 -2.8372 -3.0445
   53MOL   H28617030   5.759   2.077   6.019  0.0753  0.7295  0.7506
   53MOL   H28717031   5.938   2.086   5.864  0.3252 -0.4373 -0.9328
   53MOL   H28817032   6.065   2.314   5.732  0.1415  0.7496 -0.4192
   53MOL   H28917033   6.168   2.260   5.607 -1.1861 -3.4808  0.4730
   53MOL   C29017034   6.035   2.429   5.564  0.4448 -0.9344 -0.3935
   53MOL   C29117035   6.110   2.538   5.640  0.1453 -0.4611  0.5779
   53MOL   C29217036   6.247   2.567   5.613 -0.2439 -0.3167  0.0996
   53MOL   C29317037   6.320   2.669   5.681  0.0861  0.6318 -0.3931
   53MOL   C29417038   6.247   2.736   5.782  0.2892 -0.5304 -0.6115
   53MOL   F29517039   6.328   2.809   5.869 -0.2311  0.3390  0.0992
   53MOL   C29617040   6.115   2.707   5.815 -0.0670 -0.4283 -0.0086
   53MOL   C29717041   6.045   2.607   5.742  0.1897 -0.2617 -0.2323
   53MOL   C29817042   6.054   2.437   5.411 -0.6484 -0.2741 -0.4138
   53MOL   H29917043   5.928   2.447   5.574  0.4198 -0.3905 -1.5374
   53MOL   H30017044   6.303   2.516   5.536  1.2963  0.0258  0.9569
   53MOL   H30117045   6.426   2.680   5.670 -0.0488  1.3361 -0.9482
   53MOL   H30217046   6.072   2.773   5.889  1.2189  0.9098 -0.4045
   53MOL   H30317047   5.944   2.587   5.773  0.8035  0.3931  2.2821
   53MOL   H30417048   6.159   2.433   5.381 -0.1587 -0.2677  1.2612
   53MOL   H30517049   6.006   2.347   5.373 -2.4130 -0.0732  1.2470
   53MOL   C30617050   6.001   2.564   5.338 -0.0404 -0.6098 -0.1822
   53MOL   C30717051   6.075   2.578   5.200 -0.6223 -0.1249 -0.2604
   53MOL   C30817052   6.168   2.684   5.183 -0.1975  0.4927  0.0214
   53MOL   C30917053   6.225   2.706   5.052 -0.4704 -0.3022 -0.2571
   53MOL   C31017054   6.194   2.622   4.946  0.5034  0.7907 -0.4037
   53MOL   F31117055   6.246   2.632   4.819  0.5091  0.1273 -0.1182
   53MOL   C31217056   6.098   2.520   4.963 -0.6427  0.1666 -0.2491
   53MOL   C31317057   6.034   2.505   5.091 -0.0427  0.5847  0.3049
   53MOL   C31417058   5.842   2.551   5.327 -0.1883  0.5319 -0.3691
   53MOL   H31517059   6.023   2.656   5.392  0.6980 -0.8063 -0.1356
   53MOL   H31617060   6.193   2.750   5.264  1.9964 -1.6058  1.1229
   53MOL   H31717061   6.301   2.779   5.027 -1.9057  1.7192  1.1183
   53MOL   H31817062   6.081   2.453   4.880 -1.7347 -2.0237  1.7172
   53MOL   H31917063   5.964   2.424   5.104 -1.6883  1.9461  0.1221
   53MOL   H32017064   5.805   2.611   5.243 -2.1050 -0.6640 -0.4129
   53MOL   H32117065   5.823   2.451   5.288 -1.6919  0.9297 -0.6928
   53MOL   H32217066   5.799   2.561   5.426  1.1810 -0.9800  0.3872
   54MOL     C117067   2.988   7.006   6.379 -0.7116  0.3837 -0.8581
   54MOL     C217068   2.852   6.929   6.378 -0.4805 -0.0983  0.3426
   54MOL     C317069   2.744   6.970   6.459 -0.2616  0.5668  0.1241
   54MOL     C417070   2.620   6.905   6.462  0.3710 -0.0836 -0.2657
   54MOL     C517071   2.600   6.790   6.380  1.3069  0.1238  0.0308
   54MOL     F617072   2.491   6.712   6.392 -0.3326  0.3391  0.1194
   54MOL     C717073   2.705   6.755   6.292  0.2083  0.2659  0.5272
   54MOL     C817074   2.826   6.825   6.284 -0.0742 -0.5245  0.3629
   54MOL     C917075   2.974   7.160   6.353  1.1896 -0.4694  0.4390
   54MOL    H1017076   3.041   6.954   6.300 -1.5125 -1.4100 -0.2452
   54MOL    H1117077   2.765   7.050   6.529  3.3997  1.6924 -2.1235
   54MOL    H1217078   2.545   6.949   6.526  0.1176  3.4815 -2.8926
   54MOL    H1317079   2.682   6.679   6.218  2.4820 -0.2412  0.3179
   54MOL    H1417080   2.902   6.793   6.214  0.3715 -1.5030  1.2709
   54MOL    H1517081   2.934   7.182   6.254 -1.1252  0.4391  1.5375
   54MOL    H1617082   2.896   7.205   6.414  1.0327 -1.3138  0.8765
   54MOL    H1717083   3.041   6.983   6.472 -0.9855  1.9288 -0.3019
   54MOL    C1817084   3.104   7.242   6.381  0.4403 -0.2939  0.3846
   54MOL    C1917085   3.223   7.197   6.296  0.0844  0.1470 -0.4418
   54MOL    C2017086   3.350   7.165   6.355 -0.3078 -0.3421  0.6929
   54MOL    C2117087   3.458   7.142   6.267  0.2954 -0.1718  0.0837
   54MOL    C2217088   3.440   7.158   6.123  0.2923  0.1946  0.1714
   54MOL    F2317089   3.549   7.167   6.042 -0.6970  0.3198  0.3576
   54MOL    C2417090   3.320   7.200   6.070 -0.1125  0.1711 -0.2554
   54MOL    C2517091   3.210   7.214   6.156 -0.5199 -0.3166 -0.2048
   54MOL    C2617092   3.098   7.404   6.353  0.0362 -1.3551 -0.7359
   54MOL    H2717093   3.130   7.221   6.485 -0.0395 -0.9527  0.3715
   54MOL    H2817094   3.378   7.167   6.459  2.8765  1.1156 -0.1448
   54MOL    H2917095   3.556   7.123   6.307  1.1256  0.3225 -1.6615
   54MOL    H3017096   3.302   7.218   5.965 -1.8328 -2.0606 -0.3727
   54MOL    H3117097   3.121   7.254   6.108 -1.3493 -0.2624  1.3626
   54MOL    H3217098   3.194   7.436   6.313 -0.3587 -1.7716 -2.0511
   54MOL    H3317099   3.030   7.428   6.271  2.2207  1.6168 -1.7753
   54MOL    C3417100   3.056   7.491   6.474  0.3580 -0.9018 -0.1320
   54MOL    C3517101   3.162   7.476   6.582 -0.0683 -0.2770 -0.1041
   54MOL    C3617102   3.279   7.558   6.589  0.4978 -0.6037  0.3215
   54MOL    C3717103   3.382   7.539   6.686 -0.7627  0.0034  0.5828
   54MOL    C3817104   3.360   7.443   6.786 -0.5542  0.3113 -0.7866
   54MOL    F3917105   3.459   7.417   6.877  0.1516  0.4891 -0.1222
   54MOL    C4017106   3.249   7.365   6.791  0.1028  0.1174  0.1301
   54MOL    C4117107   3.151   7.378   6.689  0.6529  0.0795 -0.2073
   54MOL    C4217108   3.037   7.639   6.436 -0.0578  0.1127 -0.7090
   54MOL    H4317109   2.963   7.454   6.515  0.9979  1.0071  3.2625
   54MOL    H4417110   3.283   7.629   6.508  0.6402 -0.6061  0.3248
   54MOL    H4517111   3.470   7.602   6.687 -0.3471 -0.5782  1.3427
   54MOL    H4617112   3.246   7.287   6.865 -1.2600 -0.7688 -0.8368
   54MOL    H4717113   3.063   7.317   6.699 -0.6204  2.5126  4.9259
   54MOL    H4817114   3.040   7.698   6.528 -2.6844 -1.4712  0.4345
   54MOL    H4917115   3.130   7.663   6.384  0.0166 -1.1193 -1.1635
   54MOL    C5017116   2.914   7.665   6.347  0.2102  0.5078 -0.5845
   54MOL    C5117117   2.797   7.668   6.436  0.9591  0.2236  0.0351
   54MOL    C5217118   2.766   7.781   6.518  0.4865 -0.2744  0.1277
   54MOL    C5317119   2.674   7.763   6.621  0.1827 -0.1338  0.4775
   54MOL    C5417120   2.606   7.635   6.634  0.4151  0.2087 -0.3488
   54MOL    F5517121   2.515   7.626   6.730  0.4617 -0.1110 -0.2360
   54MOL    C5617122   2.627   7.522   6.547 -0.0049 -0.3965  0.3143
   54MOL    C5717123   2.726   7.544   6.454 -0.2376 -0.0885  0.2391
   54MOL    C5817124   2.926   7.789   6.253  0.8279  0.8059 -0.0647
   54MOL    H5917125   2.912   7.577   6.282  1.5140 -2.1143  2.7418
   54MOL    H6017126   2.826   7.871   6.513 -1.0016  0.7591  0.5770
   54MOL    H6117127   2.647   7.847   6.683 -1.8972  0.0397 -0.6252
   54MOL    H6217128   2.585   7.423   6.553  1.1949 -0.9105  0.3838
   54MOL    H6317129   2.756   7.463   6.389 -1.6178 -0.3909 -0.0316
   54MOL    H6417130   2.823   7.803   6.219  0.1862  1.2482  1.9247
   54MOL    H6517131   2.954   7.886   6.295  1.0198  0.4570  0.6338
   54MOL    C6617132   3.017   7.763   6.133  0.0018  0.0960  0.7727
   54MOL    C6717133   2.951   7.676   6.025 -0.3483 -0.5611  0.6713
   54MOL    C6817134   2.831   7.712   5.965 -0.0650 -0.1602  0.8820
   54MOL    C6917135   2.780   7.636   5.855  0.5354  0.4253 -0.0901
   54MOL    C7017136   2.859   7.540   5.794  0.6185 -0.7898 -1.2395
   54MOL    F7117137   2.828   7.488   5.678  0.2841  0.2643  0.3494
   54MOL    C7217138   2.985   7.507   5.853  0.2360 -0.2609  0.4759
   54MOL    C7317139   3.031   7.568   5.973  0.5045  0.2066  0.7498
   54MOL    C7417140   3.080   7.894   6.064  0.5179 -0.0991  0.0267
   54MOL    H7517141   3.101   7.704   6.169  0.8183  0.6367 -0.2348
   54MOL    H7617142   2.770   7.793   6.005  0.1450 -0.6272  2.1473
   54MOL    H7717143   2.687   7.661   5.806  0.4471  0.0421 -0.1216
   54MOL    H7817144   3.044   7.432   5.802  1.1029 -0.3182  1.5314
   54MOL    H7917145   3.128   7.546   6.015  0.5714  0.1957  0.5896
   54MOL    H8017146   3.117   7.865   5.966  2.6073 -1.5875  1.2165
   54MOL    H8117147   3.001   7.967   6.046  0.3176 -0.5682 -1.0087
   54MOL    C8217148   3.183   7.970   6.154 -0.0319  0.2695 -0.3731
   54MOL    C8317149   3.308   7.883   6.158 -0.2571 -0.8730 -0.2933
   54MOL    C8417150   3.377   7.855   6.037  0.2887 -0.2680 -0.1715
   54MOL    C8517151   3.495   7.779   6.036 -0.4714  0.4521 -0.1549
   54MOL    C8617152   3.547   7.722   6.157 -0.1615  0.3599  0.5124
   54MOL    F8717153   3.663   7.653   6.159  0.1918 -0.4268 -0.2556
   54MOL    C8817154   3.482   7.754   6.279 -0.1177 -0.5406 -0.3592
   54MOL    C8917155   3.364   7.831   6.274 -0.5190  0.1179 -0.2741
   54MOL    C9017156   3.216   8.116   6.104  0.4849 -0.0455 -0.1050
   54MOL    H9117157   3.140   7.977   6.254  1.5068 -1.5329  0.4534
   54MOL    H9217158   3.339   7.879   5.939 -1.3311  0.3769  0.5890
   54MOL    H9317159   3.533   7.765   5.936  3.0139  0.8199  1.0467
   54MOL    H9417160   3.522   7.722   6.374  3.2144  0.7092 -1.2421
   54MOL    H9517161   3.313   7.856   6.365  3.7314  1.2403  1.9306
   54MOL    H9617162   3.288   8.155   6.177  0.7762 -0.1228 -0.3476
   54MOL    H9717163   3.269   8.120   6.009  0.4998 -0.0262 -0.0955
   54MOL    C9817164   3.098   8.214   6.096  0.4135 -0.3506 -0.4058
   54MOL    C9917165   3.033   0.010   6.229  0.2714 -1.0148 -0.4105
   54MOL   C10017166   2.898   8.213   6.245  0.2925 -0.3814 -0.1748
   54MOL   C10117167   2.838   8.211   6.375  0.6395  0.0691  0.4437
   54MOL   C10217168   2.908   0.016   6.485  0.1135  0.3634 -0.8649
   54MOL   F10317169   2.847   0.018   6.605  0.1295 -0.4722 -0.0322
   54MOL   C10417170   3.036   0.063   6.470  0.1394 -0.9059  0.2556
   54MOL   C10517171   3.103   0.049   6.343 -0.4988  0.0074 -0.1225
   54MOL   C10617172   3.145   0.109   6.027  0.3436  0.2499  0.2367
   54MOL   H10717173   3.016   8.166   6.041 -0.4098  3.1516 -2.3716
   54MOL   H10817174   2.847   8.168   6.161  0.4163 -0.2617 -0.3139
   54MOL   H10917175   2.736   8.177   6.376 -0.1966  2.4524  3.3518
   54MOL   H11017176   3.080   0.118   6.551  0.4141  2.1355 -1.8660
   54MOL   H11117177   3.207   0.075   6.327 -0.1999  0.3644  2.2490
   54MOL   H11217178   3.061   0.178   6.040 -0.5146 -0.9677  1.4303
   54MOL   H11317179   3.231   0.155   6.075  2.4247 -0.8194 -2.3736
   54MOL   C11417180   3.190   0.097   5.875 -0.5883 -0.4952 -0.3891
   54MOL   C11517181   3.107   0.008   5.781 -0.6220 -0.6337 -0.3923
   54MOL   C11617182   2.964   0.007   5.777 -0.7514  0.0074  0.3273
   54MOL   C11717183   2.899   8.163   5.685 -0.1762  0.5970  0.2093
   54MOL   C11817184   2.970   8.082   5.593  0.2088  0.0436 -0.0455
   54MOL   F11917185   2.905   8.001   5.507 -0.0268 -0.3827  0.0060
   54MOL   C12017186   3.113   8.090   5.591  0.2620 -0.2167 -0.2700
   54MOL   C12117187   3.179   8.168   5.687  0.8611 -0.2217  0.1927
   54MOL   C12217188   3.196   0.245   5.826  0.8824 -0.4765  0.0207
   54MOL   H12317189   3.293   0.062   5.873  0.2446  1.7053  1.4682
   54MOL   H12417190   2.900   0.054   5.851 -0.3302 -0.4442  0.9847
   54MOL   H12517191   2.791   8.152   5.686 -0.0640 -0.5948  2.1979
   54MOL   H12617192   3.168   8.033   5.518 -0.6635 -0.3803 -0.8389
   54MOL   H12717193   3.287   8.172   5.691  0.9509  0.7501 -2.2270
   54MOL   H12817194   3.108   0.306   5.843  1.9492  1.0351  0.2310
   54MOL   H12917195   3.265   0.293   5.895 -1.5171 -0.6325  2.6114
   54MOL   C13017196   3.244   0.270   5.682 -0.1977  0.1506  0.3204
   54MOL   C13117197   3.191   0.406   5.632  0.3989 -0.1819 -0.3700
   54MOL   C13217198   3.117   0.409   5.513 -0.0507  0.0388  0.6145
   54MOL   C13317199   3.066   0.531   5.469 -0.2227  0.1149 -0.1123
   54MOL   C13417200   3.081   0.654   5.533 -0.2863 -0.0610 -0.4187
   54MOL   F13517201   3.022   0.764   5.485 -0.5611  0.0553 -0.0187
   54MOL   C13617202   3.147   0.652   5.655  0.4815 -0.1263  0.2459
   54MOL   C13717203   3.204   0.532   5.708  0.0795  0.5612  0.1904
   54MOL   C13817204   3.401   0.257   5.662 -0.8975 -0.4746 -0.2577
   54MOL   H13917205   3.197   0.189   5.625 -2.7272  1.9002 -0.1820
   54MOL   H14017206   3.098   0.318   5.458  2.5209  0.0163 -0.2624
   54MOL   H14117207   3.010   0.531   5.377  0.3809 -0.9380 -0.4801
   54MOL   H14217208   3.164   0.743   5.711  2.0597 -0.1881 -0.1241
   54MOL   H14317209   3.251   0.532   5.805 -0.6696  3.1765  0.5905
   54MOL   H14417210   3.440   0.332   5.731  1.2329 -0.9926 -0.8722
   54MOL   H14517211   3.425   0.161   5.707  1.0664  0.1813  0.1480
   54MOL   C14617212   3.455   0.275   5.514  0.2491 -0.5160 -0.2839
   54MOL   C14717213   3.470   0.427   5.477  0.2892  0.0955  0.2675
   54MOL   C14817214   3.401   0.473   5.366  1.1069 -0.4520 -0.2597
   54MOL   C14917215   3.428   0.612   5.343 -0.4976 -0.4656  0.0883
   54MOL   C15017216   3.506   0.693   5.432  0.1520  0.7482 -0.0055
   54MOL   F15117217   3.510   0.825   5.423  0.4343  0.4593  0.0145
   54MOL   C15217218   3.568   0.636   5.538  0.3081 -0.3915 -0.5249
   54MOL   C15317219   3.556   0.502   5.560 -0.1822  0.2178  0.5404
   54MOL   C15417220   3.593   0.208   5.496 -0.5397  0.4932 -0.8840
   54MOL   H15517221   3.379   0.223   5.456 -0.9484  0.2723  0.5375
   54MOL   H15617222   3.329   0.427   5.300 -1.0760  1.5720  0.6003
   54MOL   H15717223   3.368   0.656   5.265  1.3473  0.1489 -1.0259
   54MOL   H15817224   3.641   0.694   5.593  0.7533  0.0696 -1.5978
   54MOL   H15917225   3.620   0.461   5.636 -1.3782  0.8698  1.9281
   54MOL   H16017226   3.651   0.247   5.580 -1.3262 -2.2619  1.0308
   54MOL   H16117227   3.586   0.103   5.525  1.4655  0.5145 -0.2196
   54MOL   C16217228   3.660   0.200   5.351  0.3810  0.0766 -0.5852
   54MOL   C16317229   3.712   0.337   5.310 -0.2452  0.3671 -1.3003
   54MOL   C16417230   3.797   0.408   5.397 -0.0528 -0.3303 -1.7081
   54MOL   C16517231   3.834   0.536   5.361 -0.6855  0.6567 -0.2214
   54MOL   C16617232   3.782   0.600   5.240 -0.4735  0.8492 -0.5496
   54MOL   F16717233   3.830   0.727   5.207 -0.1955 -0.5018 -0.3794
   54MOL   C16817234   3.701   0.528   5.152  0.1817 -0.1526 -0.0407
   54MOL   C16917235   3.667   0.393   5.193 -0.4993 -0.0810  0.5088
   54MOL   C17017236   3.762   0.080   5.337 -0.5459  0.1406 -0.1712
   54MOL   H17117237   3.575   0.163   5.293 -0.3939 -1.3117  1.3582
   54MOL   H17217238   3.829   0.364   5.490  0.7052 -0.4648 -2.0235
   54MOL   H17317239   3.889   0.597   5.431  0.0032  1.9107 -1.8284
   54MOL   H17417240   3.668   0.577   5.062 -0.8332 -0.5025  0.1406
   54MOL   H17517241   3.599   0.341   5.126  0.8881 -0.6244 -0.5093
   54MOL   H17617242   3.822   0.090   5.246 -0.6935 -0.2216 -0.3102
   54MOL   H17717243   3.838   0.098   5.412  0.0503  1.4847 -1.0795
   54MOL   C17817244   3.696   8.172   5.348  0.4549  0.7450  0.2178
   54MOL   C17917245   3.594   8.149   5.236  0.0029 -0.1067  0.7481
   54MOL   C18017246   3.457   8.157   5.266  0.6717  0.0538 -0.3526
   54MOL   C18117247   3.355   8.132   5.177  0.1224 -0.0500 -0.6280
   54MOL   C18217248   3.390   8.092   5.047  0.3665 -0.4841 -0.5270
   54MOL   F18317249   3.299   8.068   4.957 -0.0084  0.4889  0.1716
   54MOL   C18417250   3.525   8.071   5.017 -0.8336  0.1311  0.0971
   54MOL   C18517251   3.627   8.111   5.108  0.8392  0.5133  0.0436
   54MOL   C18617252   3.801   8.063   5.349  0.5487  0.2391 -0.7976
   54MOL   H18717253   3.644   8.150   5.441  1.4308  2.2458  1.1288
   54MOL   H18817254   3.435   8.167   5.371 -0.7414  1.8629 -0.7961
   54MOL   H18917255   3.251   8.141   5.206  0.2380 -0.1430 -0.1742
   54MOL   H19017256   3.550   8.032   4.920 -0.5248 -0.3614  0.3747
   54MOL   H19117257   3.728   8.093   5.075  0.0399  1.1522 -2.9003
   54MOL   H19217258   3.756   7.970   5.316  0.9437  0.1715 -1.1573
   54MOL   H19317259   3.875   8.077   5.269  0.9349  1.3309 -0.2681
   54MOL   C19417260   3.891   8.046   5.479  0.1233 -0.3144 -0.1235
   54MOL   C19517261   3.808   8.046   5.606 -0.3067 -0.6021 -0.5001
   54MOL   C19617262   3.807   8.153   5.693 -0.8809 -0.2665 -0.6952
   54MOL   C19717263   3.694   8.169   5.771 -0.4234 -0.1767  0.1946
   54MOL   C19817264   3.597   8.075   5.784  1.0505  0.3145 -0.0464
   54MOL   F19917265   3.485   8.092   5.863 -0.0894  0.6273 -0.1270
   54MOL   C20017266   3.607   7.961   5.705 -0.0790 -0.5377 -0.0888
   54MOL   C20117267   3.705   7.946   5.609 -0.6456  0.2843  0.3655
   54MOL   C20217268   3.980   7.918   5.462  0.4081  0.0057  0.0234
   54MOL   H20317269   3.950   8.136   5.499  1.8426 -1.5148  0.3287
   54MOL   H20417270   3.880   8.232   5.687 -1.9026  0.7013 -0.5806
   54MOL   H20517271   3.697   0.029   5.824  0.1904  0.3018 -0.6748
   54MOL   H20617272   3.527   7.891   5.721  0.0878 -0.5201  0.8597
   54MOL   H20717273   3.693   7.866   5.538  0.9837 -1.7887  2.3131
   54MOL   H20817274   3.913   7.838   5.428  3.6813 -1.6230 -2.8722
   54MOL   H20917275   4.049   7.941   5.382  0.1438 -2.4652 -0.9725
   54MOL   C21017276   4.055   7.886   5.602  0.4237 -0.3700  0.2556
   54MOL   C21117277   3.971   7.791   5.691 -0.7305 -0.5497 -0.2480
   54MOL   C21217278   3.954   7.824   5.828  1.1617  0.7787 -1.0193
   54MOL   C21317279   3.872   7.741   5.909 -0.0392 -0.0454 -0.3725
   54MOL   C21417280   3.823   7.622   5.853 -0.8642 -0.0590  0.5798
   54MOL   F21517281   3.756   7.543   5.934  0.4138 -0.5463 -0.4673
   54MOL   C21617282   3.849   7.587   5.721 -0.1166 -1.3032 -0.4677
   54MOL   C21717283   3.917   7.671   5.638 -0.0954 -1.0643 -0.1155
   54MOL   C21817284   4.196   7.821   5.584  0.5953  0.0896  0.4899
   54MOL   H21917285   4.068   7.979   5.657  0.1826  0.1359 -0.5290
   54MOL   H22017286   3.996   7.910   5.878  2.2536 -0.1704 -0.2964
   54MOL   H22117287   3.871   7.763   6.015 -2.8678 -1.0915 -0.1492
   54MOL   H22217288   3.814   7.491   5.686 -0.9695 -0.5413 -1.7501
   54MOL   H22317289   3.927   7.636   5.536 -0.7734  0.3376 -0.6807
   54MOL   H22417290   4.218   7.744   5.659  1.9415  0.0861  0.0978
   54MOL   H22517291   4.188   7.783   5.483 -0.8752  2.4304 -0.3097
   54MOL   C22617292   4.310   7.920   5.589 -0.5012  0.4254 -0.1123
   54MOL   C22717293   4.312   8.004   5.716  0.2700 -0.3875  0.0015
   54MOL   C22817294   4.321   7.943   5.843 -0.4268 -0.4697 -0.2860
   54MOL   C22917295   4.299   8.021   5.959 -0.1494  0.0371 -0.0408
   54MOL   C23017296   4.280   8.161   5.951 -0.2631  0.6690 -0.7558
   54MOL   F23117297   4.262   8.229   6.070 -0.0022  0.1244 -0.4101
   54MOL   C23217298   4.287   8.222   5.825  0.2382 -0.4958 -0.1276
   54MOL   C23317299   4.294   8.147   5.710  0.2983  0.2834 -0.4605
   54MOL   C23417300   4.445   7.851   5.575 -0.2560 -0.2939 -0.3273
   54MOL   H23517301   4.296   7.991   5.507 -0.2823  4.0251  2.8411
   54MOL   H23617302   4.335   7.836   5.841  0.9569 -0.3239  0.9453
   54MOL   H23717303   4.307   7.965   6.051  0.2771  2.0939  1.2039
   54MOL   H23817304   4.266   0.091   5.805  0.1072 -0.7146 -1.1137
   54MOL   H23917305   4.277   8.199   5.617  0.7894 -1.8304 -1.7855
   54MOL   H24017306   4.522   7.928   5.565  0.6423 -0.9575  1.2090
   54MOL   H24117307   4.462   7.807   5.673 -0.2913  1.8721  0.6654
   54MOL   C24217308   4.457   7.756   5.457  0.0267 -0.2647  0.0466
   54MOL   C24317309   4.405   7.815   5.321  0.1706 -0.6499 -0.3415
   54MOL   C24417310   4.457   7.941   5.274 -0.4823  0.4947  0.3299
   54MOL   C24517311   4.409   8.000   5.152  0.0789 -0.2192  0.8141
   54MOL   C24617312   4.314   7.927   5.075 -0.6465 -0.5826 -0.3700
   54MOL   F24717313   4.257   7.985   4.969 -0.0230 -0.0971  0.0476
   54MOL   C24817314   4.264   7.807   5.125  0.2123  0.4140  0.2755
   54MOL   C24917315   4.309   7.750   5.243 -0.2258  0.5295 -0.6209
   54MOL   C25017316   4.594   7.693   5.441 -0.2895  0.1650 -0.0638
   54MOL   H25117317   4.392   7.672   5.482  1.8682 -1.5388  0.6589
   54MOL   H25217318   4.533   7.985   5.336 -0.7148 -1.3041  1.9656
   54MOL   H25317319   4.449   8.099   5.139  1.0159 -0.5951  0.7500
   54MOL   H25417320   4.193   7.756   5.061  0.3169  0.3836  0.1829
   54MOL   H25517321   4.277   7.653   5.277  0.3360  0.3286 -0.6577
   54MOL   H25617322   4.591   7.621   5.359 -0.0403  0.6045 -0.4652
   54MOL   H25717323   4.661   7.774   5.411 -0.6364  1.7454  3.1582
   54MOL   C25817324   4.650   7.636   5.574 -0.1339 -0.6958  0.6851
   54MOL   C25917325   4.595   7.494   5.597  0.1350  0.2255  0.6854
   54MOL   C26017326   4.637   7.380   5.523 -0.5572 -0.1765  0.0044
   54MOL   C26117327   4.590   7.254   5.554 -0.6895  0.8407  0.7008
   54MOL   C26217328   4.493   7.242   5.651 -0.4570  0.4163  0.1581
   54MOL   F26317329   4.448   7.117   5.672  0.2816 -0.1703 -0.1986
   54MOL   C26417330   4.449   7.349   5.727  0.7313  0.4387  0.2108
   54MOL   C26517331   4.493   7.479   5.696 -0.0075 -0.4257  0.5053
   54MOL   C26617332   4.806   7.645   5.576  0.0183 -0.0524 -0.5609
   54MOL   H26717333   4.628   7.696   5.662  0.5775 -1.5465  1.4491
   54MOL   H26817334   4.711   7.395   5.446 -0.7336 -1.6394 -0.4540
   54MOL   H26917335   4.612   7.162   5.502  2.0190  2.1351 -0.5254
   54MOL   H27017336   4.368   7.322   5.793  0.4045 -0.8505 -0.7120
   54MOL   H27117337   4.450   7.561   5.751 -1.3758 -1.1869  0.5892
   54MOL   H27217338   4.830   7.599   5.480  2.0562 -2.6723  1.1253
   54MOL   H27317339   4.826   7.752   5.573 -0.7276  0.1191  0.1626
   54MOL   C27417340   4.882   7.577   5.688  0.6465 -0.0017 -0.2087
   54MOL   C27517341   5.029   7.608   5.671 -0.1927  0.1413  0.3507
   54MOL   C27617342   5.122   7.522   5.610  0.1974  0.2100  0.0768
   54MOL   C27717343   5.255   7.557   5.588 -0.5676  0.0259  0.1879
   54MOL   C27817344   5.293   7.684   5.630  0.0364 -0.1000  0.4058
   54MOL   F27917345   5.420   7.727   5.620 -0.0173 -0.0407 -0.5030
   54MOL   C28017346   5.208   7.773   5.694 -0.0817 -0.2434  0.2722
   54MOL   C28117347   5.074   7.736   5.706  0.0607 -0.0219 -0.0778
   54MOL   C28217348   4.831   7.605   5.831  0.1696 -0.2400 -0.2508
   54MOL   H28317349   4.870   7.471   5.669  0.9695 -0.2987  1.1924
   54MOL   H28417350   5.084   7.423   5.589  1.0430 -0.7238  2.7455
   54MOL   H28517351   5.330   7.492   5.546 -0.6715  0.1702 -0.2289
   54MOL   H28617352   5.246   7.869   5.725  1.3185  0.2231 -2.7285
   54MOL   H28717353   5.006   7.810   5.745  0.7234  1.4350 -1.5904
   54MOL   H28817354   4.821   7.713   5.838  0.9030 -0.3728  3.5694
   54MOL   H28917355   4.729   7.565   5.833  0.5378 -1.1557  0.3622
   54MOL   C29017356   4.920   7.557   5.948 -0.3245  0.2797  0.6726
   54MOL   C29117357   5.009   7.660   6.014 -0.5317  0.1302 -0.7737
   54MOL   C29217358   4.951   7.776   6.070 -0.3331  0.4167 -0.0762
   54MOL   C29317359   5.036   7.868   6.134 -0.1025 -0.5064  0.2640
   54MOL   C29417360   5.179   7.860   6.125  0.3128  0.1039  0.5287
   54MOL   F29517361   5.260   7.962   6.170 -0.0484 -0.4365 -0.2705
   54MOL   C29617362   5.235   7.743   6.071  0.0820  0.5482  0.3025
   54MOL   C29717363   5.148   7.641   6.025 -1.3333 -0.4849 -0.2505
   54MOL   C29817364   4.829   7.496   6.053 -0.5172 -0.1868 -0.4113
   54MOL   H29917365   4.977   7.476   5.902  0.6285  1.9192 -1.0761
   54MOL   H30017366   4.844   7.779   6.077 -0.4334 -0.6164 -1.0808
   54MOL   H30117367   4.992   7.955   6.181 -0.6597 -0.8954  0.4710
   54MOL   H30217368   5.341   7.732   6.088  0.4454 -0.9252 -2.6024
   54MOL   H30317369   5.195   7.553   5.982  0.1583 -0.6501  1.6535
   54MOL   H30417370   4.763   7.579   6.077  0.9861  0.7717  0.4501
   54MOL   H30517371   4.775   7.414   6.006 -0.6615 -0.5672  0.4164
   54MOL   C30617372   4.904   7.439   6.181  0.1843  0.2548 -0.5941
   54MOL   C30717373   4.808   7.386   6.280  0.3500 -0.0052 -0.7377
   54MOL   C30817374   4.820   7.417   6.418 -0.4108 -0.1268 -0.7344
   54MOL   C30917375   4.747   7.338   6.512 -0.0379  0.1936 -0.1257
   54MOL   C31017376   4.658   7.232   6.475  0.2404 -0.2248  0.1166
   54MOL   F31117377   4.597   7.151   6.564 -0.3184  0.1657  0.4353
   54MOL   C31217378   4.638   7.221   6.339  0.6063  0.6424 -0.5454
   54MOL   C31317379   4.705   7.298   6.246 -0.4960 -0.0013 -0.1258
   54MOL   C31417380   5.013   7.336   6.157 -0.1462  0.3082 -0.1330
   54MOL   H31517381   4.957   7.515   6.238  0.0991  0.6898 -1.0977
   54MOL   H31617382   4.894   7.486   6.456 -0.3602 -1.1552  1.0863
   54MOL   H31717383   4.765   7.354   6.618  0.5280  0.4518 -0.2613
   54MOL   H31817384   4.567   7.142   6.318  1.2715 -0.3861  0.9092
   54MOL   H31917385   4.686   7.288   6.140 -1.3840 -0.6958  0.0896
   54MOL   H32017386   4.972   7.235   6.148 -1.8461  1.0417 -1.0011
   54MOL   H32117387   5.074   7.367   6.072 -0.4171  2.9528  0.5985
   54MOL   H32217388   5.082   7.331   6.241  1.3494  1.3156 -1.2707
   55MOL     C117389   2.359   2.287   5.035  0.5490  1.0988 -0.0629
   55MOL     C217390   2.262   2.385   5.093 -0.3387  0.5815 -0.0855
   55MOL     C317391   2.313   2.512   5.133  0.2330 -0.5279 -0.3153
   55MOL     C417392   2.225   2.599   5.199 -0.4346  0.7143 -0.1102
   55MOL     C517393   2.091   2.559   5.221  1.0174 -0.0003  0.9434
   55MOL     F617394   2.016   2.645   5.286  0.5335 -0.1262 -0.1198
   55MOL     C717395   2.045   2.432   5.183  0.6798  0.3034 -0.0884
   55MOL     C817396   2.131   2.343   5.118  0.1957 -0.5241 -0.4125
   55MOL     C917397   2.465   2.235   5.132  0.1167  0.0278 -0.2441
   55MOL    H1017398   2.408   2.320   4.943  1.6309 -0.1312  0.0548
   55MOL    H1117399   2.416   2.543   5.123 -0.1449  0.9643  0.3539
   55MOL    H1217400   2.263   2.699   5.208  0.4837  0.3608 -0.0476
   55MOL    H1317401   1.943   2.405   5.205  0.7234  2.0524  2.4999
   55MOL    H1417402   2.094   2.244   5.097 -0.1428 -1.0108  2.2968
   55MOL    H1517403   2.491   2.313   5.203 -0.1570 -0.1335  0.0349
   55MOL    H1617404   2.424   2.156   5.196  1.2030 -1.6559 -1.5908
   55MOL    H1717405   2.289   2.210   5.001 -0.4655  1.9305  0.1114
   55MOL    C1817406   2.602   2.194   5.064  0.3390 -0.4562 -0.2084
   55MOL    C1917407   2.592   2.059   4.989 -0.4387 -0.4106  0.1972
   55MOL    C2017408   2.526   2.051   4.864 -0.5229  0.0195 -0.1566
   55MOL    C2117409   2.528   1.934   4.785 -0.2486  1.3753  0.3818
   55MOL    C2217410   2.606   1.826   4.831  0.3719 -0.5120  0.0538
   55MOL    F2317411   2.610   1.712   4.762 -0.2594 -0.2596 -0.0989
   55MOL    C2417412   2.677   1.832   4.951 -0.3487  0.3578  0.4469
   55MOL    C2517413   2.669   1.949   5.034 -0.3889  0.1250 -0.0249
   55MOL    C2617414   2.678   2.310   4.987 -0.6371  0.9745 -0.4694
   55MOL    H2717415   2.662   2.163   5.149  0.0351 -0.0760  0.1443
   55MOL    H2817416   2.475   2.141   4.834 -2.6726 -1.1103 -0.0241
   55MOL    H2917417   2.475   1.930   4.691  1.7530 -0.2488 -0.7362
   55MOL    H3017418   2.733   1.748   4.988 -0.6371 -0.1492 -0.2710
   55MOL    H3117419   2.733   1.959   5.121 -0.7474 -1.0972  0.4001
   55MOL    H3217420   2.611   2.330   4.904 -2.5801  2.4203  1.3996
   55MOL    H3317421   2.666   2.400   5.047 -0.7811  0.8703 -0.3422
   55MOL    C3417422   2.825   2.263   4.960 -0.0285  0.4899 -0.4269
   55MOL    C3517423   2.870   2.327   4.830 -0.0689 -0.3754 -0.6086
   55MOL    C3617424   2.860   2.265   4.707 -0.1084  0.2894 -0.1526
   55MOL    C3717425   2.899   2.329   4.588 -0.1293  0.5346 -0.4219
   55MOL    C3817426   2.965   2.450   4.589 -0.0625 -0.2390  0.2150
   55MOL    F3917427   3.005   2.511   4.474  0.2713 -0.0936 -0.0604
   55MOL    C4017428   2.967   2.516   4.717 -0.0642  0.2823 -0.5150
   55MOL    C4117429   2.922   2.455   4.834 -0.6169  0.4234  0.0312
   55MOL    C4217430   2.918   2.275   5.081 -0.5464  0.3510  0.5881
   55MOL    H4317431   2.815   2.159   4.930  1.0743  0.1284  0.4143
   55MOL    H4417432   2.832   2.161   4.693  0.0363  0.0098  1.5402
   55MOL    H4517433   2.888   2.274   4.496  0.2267  0.6105 -0.5106
   55MOL    H4617434   3.003   2.618   4.725  0.6572 -0.1033  1.1488
   55MOL    H4717435   2.923   2.519   4.921 -1.4580  1.4793 -0.7141
   55MOL    H4817436   2.925   2.379   5.113  2.1409  0.5519 -0.5467
   55MOL    H4917437   2.870   2.211   5.155 -1.1758 -2.9717 -2.5294
   55MOL    C5017438   3.062   2.219   5.062 -0.4121  0.1819 -0.1187
   55MOL    C5117439   3.167   2.303   5.136  0.0565  0.5605 -0.4558
   55MOL    C5217440   3.205   2.268   5.267  0.6743  0.3365  0.2965
   55MOL    C5317441   3.285   2.350   5.344 -0.8033 -0.1978  0.5382
   55MOL    C5417442   3.349   2.463   5.288  0.4112 -0.3517  0.8853
   55MOL    F5517443   3.398   2.559   5.366 -0.2196  0.1817 -0.6682
   55MOL    C5617444   3.322   2.494   5.155  0.0983 -0.4182 -0.0312
   55MOL    C5717445   3.228   2.419   5.074 -0.3176 -0.4366  0.3645
   55MOL    C5817446   3.065   2.071   5.079 -0.1131  0.7859  0.4035
   55MOL    H5917447   3.085   2.227   4.956 -2.3492  0.4316 -0.5505
   55MOL    H6017448   3.149   2.188   5.312 -0.1498 -0.2734 -1.7356
   55MOL    H6117449   3.305   2.330   5.448  0.3119 -0.6604  0.2411
   55MOL    H6217450   3.356   2.588   5.115  1.4400 -0.8767 -0.0110
   55MOL    H6317451   3.211   2.454   4.973 -3.1894  2.0616  1.6181
   55MOL    H6417452   3.069   2.048   5.185 -0.0415  1.2323  0.4979
   55MOL    H6517453   2.972   2.023   5.046 -0.6852  2.6904 -0.8369
   55MOL    C6617454   3.181   1.998   5.016 -0.4680  0.1532 -0.3814
   55MOL    C6717455   3.215   1.870   5.095  0.4730  0.0076 -0.1653
   55MOL    C6817456   3.161   1.741   5.072  0.2707  0.4881  0.1929
   55MOL    C6917457   3.206   1.630   5.148  0.3543 -0.0612  0.4589
   55MOL    C7017458   3.283   1.646   5.264 -0.1020  0.5927  0.0556
   55MOL    F7117459   3.331   1.541   5.338 -0.2404 -0.0345  0.1829
   55MOL    C7217460   3.337   1.776   5.288 -0.0250 -0.1193  0.5287
   55MOL    C7317461   3.301   1.885   5.202 -0.1618  0.2178  0.3129
   55MOL    C7417462   3.154   1.976   4.864  1.1426 -0.3068 -0.3701
   55MOL    H7517463   3.267   2.063   5.030 -0.5842  0.3153 -0.4166
   55MOL    H7617464   3.095   1.721   4.989  0.5472 -1.3821  0.3979
   55MOL    H7717465   3.173   1.532   5.117 -0.6148  0.3976  0.0313
   55MOL    H7817466   3.405   1.792   5.370  0.4083 -0.2853  0.2080
   55MOL    H7917467   3.344   1.977   5.240  0.4437  0.3963 -0.7826
   55MOL    H8017468   3.060   1.922   4.856  2.2526 -2.2231 -0.9605
   55MOL    H8117469   3.123   2.066   4.811  1.3417 -0.2810 -0.4440
   55MOL    C8217470   3.262   1.910   4.777  0.4098  0.3930  0.1526
   55MOL    C8317471   3.220   1.908   4.635  0.2532  0.4786 -0.0635
   55MOL    C8417472   3.205   2.028   4.559  0.3518 -0.3066  0.1051
   55MOL    C8517473   3.155   2.026   4.427  0.5421  0.1425 -0.2230
   55MOL    C8617474   3.129   1.904   4.362 -0.7969  0.5210  0.1752
   55MOL    F8717475   3.082   1.903   4.236  0.1625  0.8966  0.7919
   55MOL    C8817476   3.152   1.783   4.434  1.1290 -0.2550 -0.2774
   55MOL    C8917477   3.204   1.784   4.567  0.4845  0.2216  0.1751
   55MOL    C9017478   3.400   1.987   4.784  0.1162 -0.3471  0.0444
   55MOL    H9117479   3.283   1.805   4.798 -0.3631  0.3717  0.8074
   55MOL    H9217480   3.227   2.122   4.607 -0.1200  0.4979 -1.2231
   55MOL    H9317481   3.142   2.120   4.375  1.0416 -0.1167 -0.8348
   55MOL    H9417482   3.128   1.693   4.380 -0.7302  0.0009  0.0693
   55MOL    H9517483   3.211   1.693   4.624  0.7916 -0.4476 -0.9363
   55MOL    H9617484   3.448   1.983   4.686  1.4648 -0.9950  0.7220
   55MOL    H9717485   3.379   2.089   4.816 -0.1346 -1.3566  3.3408
   55MOL    C9817486   3.501   1.928   4.872 -0.4236 -0.1374  0.4117
   55MOL    C9917487   3.515   1.776   4.847  0.0539 -0.3503 -0.0048
   55MOL   C10017488   3.526   1.685   4.957 -0.1298 -0.1267 -0.5019
   55MOL   C10117489   3.513   1.546   4.930  0.0309 -0.0658 -0.5443
   55MOL   C10217490   3.495   1.496   4.797 -0.3280 -1.0208 -0.1306
   55MOL   F10317491   3.481   1.362   4.781 -0.0861 -0.4701 -0.2127
   55MOL   C10417492   3.502   1.585   4.683  0.0899 -0.3480  0.1891
   55MOL   C10517493   3.515   1.723   4.713  0.6678 -0.1787  0.7538
   55MOL   C10617494   3.631   1.998   4.871 -0.7674  0.1673  0.7468
   55MOL   H10717495   3.467   1.932   4.976  0.5857  0.0722  0.7452
   55MOL   H10817496   3.523   1.715   5.061 -0.7803  1.5427 -0.9888
   55MOL   H10917497   3.510   1.471   5.008 -0.2106  0.6566  0.1556
   55MOL   H11017498   3.503   1.546   4.582 -2.5202 -0.9812  0.3747
   55MOL   H11117499   3.511   1.793   4.631  0.0370 -1.8626 -0.6969
   55MOL   H11217500   3.712   1.931   4.901  1.2842  2.0816 -0.3849
   55MOL   H11317501   3.647   2.029   4.768 -0.5534  0.5701  0.9002
   55MOL   C11417502   3.642   2.123   4.961  0.0551  0.8170 -0.3091
   55MOL   C11517503   3.661   2.080   5.106 -0.7599 -0.1658 -0.5318
   55MOL   C11617504   3.570   2.117   5.200  0.3040  0.3423  0.1492
   55MOL   C11717505   3.571   2.075   5.335 -0.0969  0.3560 -0.1522
   55MOL   C11817506   3.688   2.004   5.378  0.6361  0.1399  0.0472
   55MOL   F11917507   3.704   1.989   5.508 -0.1267  0.1626 -0.0118
   55MOL   C12017508   3.787   1.973   5.281 -0.6179  0.2242 -0.0836
   55MOL   C12117509   3.775   2.005   5.148  0.0974  0.4942 -0.3730
   55MOL   C12217510   3.757   2.217   4.908 -0.0064 -0.3407  0.0505
   55MOL   H12317511   3.543   2.167   4.958  0.1596  1.0011 -1.0704
   55MOL   H12417512   3.487   2.181   5.175  0.8046  0.6155 -0.8159
   55MOL   H12517513   3.512   2.105   5.419 -1.3314 -2.2723 -0.0295
   55MOL   H12617514   3.872   1.916   5.314 -1.3771 -1.4121 -0.8891
   55MOL   H12717515   3.857   1.980   5.083  0.6290 -0.1614  0.5413
   55MOL   H12817516   3.772   2.295   4.983 -0.9607  0.2088 -0.3227
   55MOL   H12917517   3.851   2.163   4.916  0.4508  0.3277 -0.7617
   55MOL   C13017518   3.741   2.290   4.778 -0.2587 -0.0518 -0.1688
   55MOL   C13117519   3.628   2.383   4.785  0.2657 -0.0915  0.5785
   55MOL   C13217520   3.635   2.507   4.861  0.0740  0.1897  0.6563
   55MOL   C13317521   3.524   2.596   4.870 -0.4323  0.1827  0.5512
   55MOL   C13417522   3.401   2.556   4.810  0.2329  0.0831  0.8847
   55MOL   F13517523   3.287   2.634   4.810 -0.2546  0.0037  0.1881
   55MOL   C13617524   3.392   2.433   4.751 -0.4230 -0.0618  0.5448
   55MOL   C13717525   3.506   2.351   4.730 -0.3412  0.3143  0.2727
   55MOL   C13817526   3.874   2.358   4.729  0.6064  0.3475  0.2731
   55MOL   H13917527   3.719   2.223   4.696 -0.4641 -0.0750 -0.0953
   55MOL   H14017528   3.724   2.541   4.912 -0.8515  1.1765  1.6340
   55MOL   H14117529   3.522   2.690   4.924 -3.0040 -0.0772  0.9709
   55MOL   H14217530   3.301   2.385   4.716 -0.6486 -0.2590  1.3839
   55MOL   H14317531   3.500   2.256   4.679  0.5999 -0.2750  1.2413
   55MOL   H14417532   3.842   2.415   4.641  0.3807  0.2806  0.3124
   55MOL   H14517533   3.913   2.433   4.798  1.2190 -1.0910  1.5243
   55MOL   C14617534   3.984   2.268   4.672 -0.6037  0.0846  0.9268
   55MOL   C14717535   3.933   2.142   4.602 -0.6431  0.1646 -0.0084
   55MOL   C14817536   3.925   2.016   4.671 -0.7437 -0.0952  0.1816
   55MOL   C14917537   3.868   1.904   4.606 -0.3215  0.0179 -0.1072
   55MOL   C15017538   3.812   1.920   4.479  0.2738  0.9918  0.1091
   55MOL   F15117539   3.752   1.813   4.420  0.2321  0.2557  0.2542
   55MOL   C15217540   3.808   2.043   4.412  0.7496  0.4205 -0.1342
   55MOL   C15317541   3.877   2.157   4.473  0.4612  0.4448 -0.6600
   55MOL   C15417542   4.094   2.352   4.591  0.8233 -0.5020 -0.0243
   55MOL   H15517543   4.035   2.235   4.762 -0.7187 -2.1252  0.2056
   55MOL   H15617544   3.958   2.007   4.774 -2.0437 -0.4570  0.5749
   55MOL   H15717545   3.875   1.813   4.663 -0.9183  0.3029  0.4154
   55MOL   H15817546   3.745   2.052   4.324  0.4351 -0.3502  0.0121
   55MOL   H15917547   3.875   2.254   4.425 -0.8425  0.8757  0.2415
   55MOL   H16017548   4.068   2.367   4.486 -1.4232  1.3369  0.7439
   55MOL   H16117549   4.086   2.453   4.632 -1.3449  0.6893 -3.1551
   55MOL   C16217550   4.240   2.298   4.593  0.5449  0.4636 -0.0877
   55MOL   C16317551   4.284   2.245   4.734  0.2750 -0.5851  0.1130
   55MOL   C16417552   4.299   2.351   4.826 -0.5526 -0.5788 -0.0967
   55MOL   C16517553   4.322   2.329   4.960  0.1469  0.0644  0.0840
   55MOL   C16617554   4.360   2.201   5.003 -0.2897 -0.7206  0.2238
   55MOL   F16717555   4.396   2.184   5.134  0.9322  0.3834 -0.0814
   55MOL   C16817556   4.368   2.093   4.907 -0.4486  0.2692  0.2054
   55MOL   C16917557   4.321   2.118   4.774  0.2825  0.2428  0.0153
   55MOL   C17017558   4.275   2.188   4.487 -0.3400 -0.7114 -0.4189
   55MOL   H17117559   4.309   2.380   4.576 -0.6938  1.5754  0.2121
   55MOL   H17217560   4.275   2.450   4.792 -0.1172 -0.3960  0.1261
   55MOL   H17317561   4.333   2.414   5.027 -2.6034  1.2700 -0.9197
   55MOL   H17417562   4.394   1.994   4.943  0.6618  0.3143 -0.4523
   55MOL   H17517563   4.311   2.038   4.702 -0.5948  0.7671 -0.4556
   55MOL   H17617564   4.374   2.149   4.511 -0.1662 -0.4626 -0.7496
   55MOL   H17717565   4.203   2.109   4.510 -0.6729 -0.5571 -0.9260
   55MOL   C17817566   4.278   2.230   4.335 -0.8410 -0.0783 -0.4223
   55MOL   C17917567   4.386   2.338   4.308  0.0660  0.5756  0.5830
   55MOL   C18017568   4.361   2.431   4.204 -0.2580  0.2295  0.5214
   55MOL   C18117569   4.458   2.520   4.163  0.5273  0.2670 -0.0696
   55MOL   C18217570   4.586   2.511   4.225  0.2639  0.1714  0.3722
   55MOL   F18317571   4.686   2.596   4.193 -0.3551 -0.5879 -0.4120
   55MOL   C18417572   4.614   2.420   4.326 -0.7105  0.2843  0.0679
   55MOL   C18517573   4.515   2.330   4.367 -0.8244 -0.8526 -0.0328
   55MOL   C18617574   4.298   2.104   4.250  0.2282 -0.0666  0.1584
   55MOL   H18717575   4.179   2.271   4.314 -0.4243  1.6657  0.8837
   55MOL   H18817576   4.265   2.436   4.156 -0.3117  1.6835  0.7580
   55MOL   H18917577   4.435   2.596   4.090 -0.1982 -0.3847 -0.5152
   55MOL   H19017578   4.710   2.410   4.375 -1.3393  2.3813  1.7851
   55MOL   H19117579   4.543   2.253   4.438 -0.1819 -1.0845 -0.5331
   55MOL   H19217580   4.380   2.117   4.179  1.0310  0.7848  1.2191
   55MOL   H19317581   4.332   2.032   4.325 -2.4442  0.9830  2.4844
   55MOL   C19417582   4.169   2.045   4.183  0.2148  0.9137 -0.0837
   55MOL   C19517583   4.085   2.139   4.104 -0.3513  0.2284  0.3572
   55MOL   C19617584   3.942   2.129   4.093  0.1580 -0.2374  0.1270
   55MOL   C19717585   3.876   2.204   3.999 -0.1006 -0.5063 -0.2615
   55MOL   C19817586   3.951   2.291   3.917 -0.4021 -0.0958 -0.3914
   55MOL   F19917587   3.889   2.379   3.838 -0.5681 -0.1635 -0.1666
   55MOL   C20017588   4.085   2.308   3.932  0.6782 -0.6934  0.0692
   55MOL   C20117589   4.152   2.227   4.024  0.1187 -0.7420  0.3612
   55MOL   C20217590   4.202   1.926   4.089  0.1699 -0.6978 -0.6567
   55MOL   H20317591   4.105   2.005   4.262 -0.5551 -0.1428 -1.2156
   55MOL   H20417592   3.884   2.058   4.150  1.9450 -0.3298  1.8843
   55MOL   H20517593   3.771   2.198   3.976 -0.5959  1.6515  1.2926
   55MOL   H20617594   4.132   2.379   3.865 -0.6978 -0.1928 -0.3832
   55MOL   H20717595   4.259   2.236   4.026  0.2317 -1.7542 -1.1504
   55MOL   H20817596   4.106   1.889   4.053 -0.3253  1.1421 -1.2741
   55MOL   H20917597   4.261   1.966   4.006 -1.3772  0.8556 -1.0360
   55MOL   C21017598   4.270   1.807   4.154  0.1824  0.4520  0.0401
   55MOL   C21117599   4.212   1.750   4.287 -1.1637 -0.0917 -0.3613
   55MOL   C21217600   4.304   1.716   4.389  0.2581 -0.2428  0.3344
   55MOL   C21317601   4.264   1.641   4.500  0.7626 -0.6095  0.2287
   55MOL   C21417602   4.130   1.596   4.506  0.0260  0.4516 -0.1868
   55MOL   F21517603   4.094   1.520   4.609  0.8246 -0.5643  0.4221
   55MOL   C21617604   4.031   1.637   4.410  0.4130  0.3681  0.8364
   55MOL   C21717605   4.077   1.721   4.301 -0.4990  0.4844  0.1325
   55MOL   C21817606   4.306   1.696   4.055  0.1741  0.1333  0.9208
   55MOL   H21917607   4.362   1.857   4.185  0.2325  0.4327 -0.0749
   55MOL   H22017608   4.406   1.751   4.381  0.2471 -0.2575  0.1173
   55MOL   H22117609   4.335   1.601   4.571  0.6676  1.5826  1.6158
   55MOL   H22217610   3.926   1.617   4.431 -0.0541  0.0117 -1.6643
   55MOL   H22317611   4.011   1.755   4.222 -0.0725  1.1514  0.0568
   55MOL   H22417612   4.356   1.618   4.112 -0.8038  0.1647  1.8560
   55MOL   H22517613   4.212   1.660   4.013 -0.3259 -0.5279  2.5671
   55MOL   C22617614   4.387   1.744   3.931 -0.0347  0.2368 -0.1633
   55MOL   C22717615   4.505   1.827   3.971  0.5389 -0.1931 -0.2658
   55MOL   C22817616   4.602   1.769   4.052 -1.2559  0.0084  0.0822
   55MOL   C22917617   4.714   1.839   4.098  0.0039  0.3025 -0.1333
   55MOL   C23017618   4.726   1.977   4.062  0.2503  0.5279  0.1210
   55MOL   F23117619   4.803   2.058   4.133 -0.1666 -0.1872  0.0888
   55MOL   C23217620   4.635   2.034   3.969  0.5025 -0.3077  0.4235
   55MOL   C23317621   4.519   1.959   3.924 -0.5289 -0.1590 -0.5368
   55MOL   C23417622   4.445   1.626   3.848  0.2453 -0.6679  0.0221
   55MOL   H23517623   4.331   1.796   3.854 -2.6305 -0.8948  0.9252
   55MOL   H23617624   4.585   1.670   4.092 -0.3364  0.2219  1.0009
   55MOL   H23717625   4.782   1.793   4.169  0.5412  0.8253 -0.3038
   55MOL   H23817626   4.646   2.138   3.942 -1.8508 -0.0422  0.3939
   55MOL   H23917627   4.439   1.994   3.861 -1.4050  0.7570  1.0763
   55MOL   H24017628   4.521   1.666   3.781  1.1088 -2.5692 -0.1715
   55MOL   H24117629   4.515   1.563   3.904 -0.5478  0.1142  1.9584
   55MOL   C24217630   4.353   1.521   3.786 -0.0881 -0.6825 -0.0694
   55MOL   C24317631   4.252   1.585   3.700  0.6371 -0.0450  0.0962
   55MOL   C24417632   4.114   1.554   3.714  0.9392 -0.1799  0.6669
   55MOL   C24517633   4.016   1.611   3.627  0.3696  0.4502 -0.1210
   55MOL   C24617634   4.061   1.688   3.516  0.0486 -0.8589 -0.2145
   55MOL   F24717635   3.972   1.738   3.429 -0.3582  0.3410 -0.0627
   55MOL   C24817636   4.196   1.728   3.502 -0.4197 -0.0050  0.0561
   55MOL   C24917637   4.290   1.678   3.596  0.0846 -1.0758  0.0683
   55MOL   C25017638   4.443   1.420   3.704  0.4136  0.1280  0.2095
   55MOL   H25117639   4.303   1.466   3.865 -0.6835 -0.2587 -0.1521
   55MOL   H25217640   4.068   1.499   3.794 -1.2914  1.8812  0.8378
   55MOL   H25317641   3.910   1.595   3.641  0.9432 -3.2084  0.5114
   55MOL   H25417642   4.214   1.788   3.415 -0.0029 -0.7476 -0.3718
   55MOL   H25517643   4.395   1.701   3.585  0.4219 -1.0659  2.9487
   55MOL   H25617644   4.454   1.451   3.600 -0.0816 -0.9360 -0.1668
   55MOL   H25717645   4.545   1.426   3.742  0.2687  1.3239  0.4188
   55MOL   C25817646   4.419   1.265   3.706  0.4267  1.2289 -0.5618
   55MOL   C25917647   4.267   1.237   3.712 -0.3963  0.1169 -0.6633
   55MOL   C26017648   4.219   1.175   3.830 -0.1730  0.1225  0.0883
   55MOL   C26117649   4.080   1.155   3.845 -0.4525 -0.2065  0.4013
   55MOL   C26217650   3.990   1.200   3.750  0.2430 -0.0195 -0.1088
   55MOL   F26317651   3.859   1.195   3.763 -0.2681  0.2219  0.1996
   55MOL   C26417652   4.037   1.250   3.632  0.0784  0.7701  0.3657
   55MOL   C26517653   4.177   1.276   3.607  0.6116  0.3892 -0.3133
   55MOL   C26617654   4.488   1.188   3.588  0.1724  0.0944  0.3014
   55MOL   H26717655   4.458   1.221   3.797 -1.9015  0.3543  0.0470
   55MOL   H26817656   4.280   1.137   3.911  3.0893 -0.3167 -2.4966
   55MOL   H26917657   4.051   1.103   3.934 -2.5907  2.3672  1.2641
   55MOL   H27017658   3.957   1.281   3.567 -0.5528 -1.8197 -0.1337
   55MOL   H27117659   4.211   1.329   3.519  2.7715 -0.6290 -0.1155
   55MOL   H27217660   4.427   1.099   3.574 -3.0126  2.0241  1.2259
   55MOL   H27317661   4.464   1.240   3.495  0.2971  0.7927  0.6510
   55MOL   C27417662   4.634   1.183   3.606 -0.3374  0.0379 -0.3059
   55MOL   C27517663   4.665   1.044   3.663  0.5084  0.0327  0.0018
   55MOL   C27617664   4.724   1.025   3.789 -0.1046 -0.0402 -0.9245
   55MOL   C27717665   4.749   0.897   3.840 -0.3758 -0.0502 -0.6128
   55MOL   C27817666   4.711   0.789   3.759 -0.2970  0.2081 -0.3440
   55MOL   F27917667   4.726   0.658   3.799  0.4284 -0.4403  0.1208
   55MOL   C28017668   4.654   0.806   3.632 -0.7296 -0.1713  0.1245
   55MOL   C28117669   4.639   0.933   3.580  0.5011  1.3194  0.6197
   55MOL   C28217670   4.708   1.218   3.475  0.1044 -0.3169 -0.1931
   55MOL   H28317671   4.666   1.257   3.679  0.7655 -0.2211 -0.5088
   55MOL   H28417672   4.741   1.106   3.859  4.0473 -1.9253  0.3446
   55MOL   H28517673   4.779   0.870   3.940  0.6731 -1.6826 -1.3533
   55MOL   H28617674   4.652   0.711   3.582  0.9756  0.5149 -1.2927
   55MOL   H28717675   4.600   0.936   3.479  1.5814 -2.9104 -0.0285
   55MOL   H28817676   4.666   1.152   3.399 -3.2396  1.0617  0.3693
   55MOL   H28917677   4.691   1.324   3.454 -0.4841 -0.7259 -1.8990
   55MOL   C29017678   4.863   1.207   3.466 -0.4517 -0.6042 -0.0645
   55MOL   C29117679   4.912   1.224   3.325 -0.0407 -0.2327 -0.3483
   55MOL   C29217680   4.892   1.343   3.244  0.0907  0.3966  0.3651
   55MOL   C29317681   4.941   1.348   3.120  0.2180  0.1047 -0.0779
   55MOL   C29417682   4.993   1.232   3.061 -0.4666 -0.5256 -0.6302
   55MOL   F29517683   5.017   1.242   2.928 -0.6600  0.0480  0.0603
   55MOL   C29617684   5.015   1.112   3.132 -0.1301  0.2569  0.1006
   55MOL   C29717685   4.971   1.112   3.262 -0.9028  0.3713 -0.8758
   55MOL   C29817686   4.937   1.297   3.568  0.4884  0.4313 -0.0691
   55MOL   H29917687   4.900   1.111   3.502 -2.0023 -0.5776  1.6799
   55MOL   H30017688   4.851   1.435   3.282 -0.9240  0.6875 -1.3802
   55MOL   H30117689   4.925   1.435   3.058 -1.5273  0.3776  0.7035
   55MOL   H30217690   5.055   1.024   3.084  1.7292  0.7092  0.8004
   55MOL   H30317691   4.978   1.016   3.311 -2.0758  1.6043  1.7719
   55MOL   H30417692   4.889   1.395   3.573 -0.7955 -0.2230  0.7123
   55MOL   H30517693   4.913   1.262   3.668  0.7950 -0.3274 -0.2570
   55MOL   C30617694   5.090   1.301   3.550 -0.2397 -0.5333  0.0724
   55MOL   C30717695   5.150   1.410   3.642  0.7429  0.1785  0.0879
   55MOL   C30817696   5.132   1.402   3.782  0.2967 -0.5613 -0.5567
   55MOL   C30917697   5.203   1.490   3.868  1.1154 -0.6082 -0.4259
   55MOL   C31017698   5.270   1.603   3.812 -0.2583  0.4658  0.3880
   55MOL   F31117699   5.339   1.694   3.879 -0.0197 -0.2349 -0.1040
   55MOL   C31217700   5.277   1.615   3.671  0.0567  0.2331  0.5139
   55MOL   C31317701   5.210   1.527   3.590 -0.0127 -0.3158  0.3434
   55MOL   C31417702   5.165   1.167   3.576  0.2367 -0.1212 -0.0960
   55MOL   H31517703   5.122   1.334   3.451  0.0736  1.5239  0.8446
   55MOL   H31617704   5.075   1.318   3.820  0.2670 -0.6401 -0.7731
   55MOL   H31717705   5.197   1.461   3.972  0.1457 -0.1565 -0.3471
   55MOL   H31817706   5.331   1.696   3.622 -1.5328  0.5408 -0.7837
   55MOL   H31917707   5.212   1.551   3.485  3.0118 -2.9947 -0.2763
   55MOL   H32017708   5.271   1.166   3.603  0.1579  2.4276  0.4322
   55MOL   H32117709   5.127   1.127   3.670 -0.6130  2.6341  0.7908
   55MOL   H32217710   5.148   1.087   3.504 -2.4612  1.5692 -1.4451
   56MOL     C117711   4.344   7.245   0.964 -0.6272 -0.0989  0.5993
   56MOL     C217712   4.447   7.316   0.864 -0.4492  0.0771 -0.2279
   56MOL     C317713   4.571   7.257   0.864  0.3912  0.6041  0.3085
   56MOL     C417714   4.675   7.312   0.789 -0.3441 -0.0916 -1.2019
   56MOL     C517715   4.646   7.424   0.705  0.4128 -0.1528 -0.0292
   56MOL     F617716   4.750   7.482   0.648  0.0779 -0.1121 -0.0598
   56MOL     C717717   4.518   7.486   0.699  0.4054 -0.1727  0.6022
   56MOL     C817718   4.414   7.427   0.778 -1.1371  0.4251  0.3050
   56MOL     C917719   4.341   7.319   1.105  0.1473 -0.0675 -0.0729
   56MOL    H1017720   4.355   7.137   0.972  0.0899 -0.1730 -1.3153
   56MOL    H1117721   4.592   7.172   0.928 -1.1496  0.1230  0.1867
   56MOL    H1217722   4.777   7.276   0.787 -0.5435 -0.6795 -0.7722
   56MOL    H1317723   4.503   7.577   0.643 -1.7470 -1.5829 -1.1915
   56MOL    H1417724   4.317   7.474   0.772 -0.9224  0.7055 -1.0406
   56MOL    H1517725   4.442   7.345   1.138  1.0449 -2.4131 -0.8737
   56MOL    H1617726   4.280   7.410   1.102  0.4014  0.0844 -0.7686
   56MOL    H1717727   4.244   7.249   0.921 -0.6428 -1.1563  0.5348
   56MOL    C1817728   4.270   7.224   1.205  0.2635 -0.2116  0.1325
   56MOL    C1917729   4.125   7.195   1.161  0.1155 -1.3104  0.0922
   56MOL    C2017730   4.086   7.072   1.111  0.6517  0.6035  0.1060
   56MOL    C2117731   3.946   7.047   1.086 -0.8546 -0.2576  0.6175
   56MOL    C2217732   3.852   7.152   1.102 -0.0662 -0.3055 -0.8462
   56MOL    F2317733   3.724   7.136   1.069 -0.0611  0.5484 -0.1406
   56MOL    C2417734   3.889   7.276   1.145 -0.0061 -0.1994  0.2641
   56MOL    C2517735   4.029   7.298   1.175  0.4841  0.3101 -0.7483
   56MOL    C2617736   4.355   7.108   1.266  0.1282  0.2865 -0.1054
   56MOL    H2717737   4.259   7.280   1.298  0.5769  3.9189 -2.2164
   56MOL    H2817738   4.149   6.984   1.112  1.6280  1.2950 -0.0842
   56MOL    H2917739   3.905   6.953   1.051 -2.4463  1.9408 -3.7686
   56MOL    H3017740   3.815   7.355   1.145  0.9638  0.7605 -1.8487
   56MOL    H3117741   4.062   7.396   1.206 -0.2830  0.1539  0.5802
   56MOL    H3217742   4.293   7.043   1.327 -1.6684 -0.0794 -2.2198
   56MOL    H3317743   4.364   7.032   1.188 -3.7994 -0.8987  0.4756
   56MOL    C3417744   4.486   7.150   1.341  0.1098  0.5874 -0.2783
   56MOL    C3517745   4.468   7.263   1.444  0.1258 -0.4734 -0.5809
   56MOL    C3617746   4.514   7.393   1.415  0.8973 -0.6673 -0.9164
   56MOL    C3717747   4.496   7.499   1.510  0.3668  0.1037  0.3289
   56MOL    C3817748   4.432   7.471   1.629  0.7542 -0.0354  0.3496
   56MOL    F3917749   4.409   7.573   1.716 -0.8003 -0.6002  0.0136
   56MOL    C4017750   4.384   7.347   1.656  0.0679  0.6586 -0.5257
   56MOL    C4117751   4.403   7.237   1.567 -0.0074 -0.1873  0.3780
   56MOL    C4217752   4.554   7.025   1.395  0.1232 -0.7443 -0.2305
   56MOL    H4317753   4.548   7.190   1.261  2.2698  0.0729  1.1111
   56MOL    H4417754   4.579   7.413   1.332  0.6477  0.2636 -0.8956
   56MOL    H4517755   4.529   7.600   1.488  1.1228 -0.1630  0.2231
   56MOL    H4617756   4.334   7.333   1.751 -0.8010  0.3318 -1.0248
   56MOL    H4717757   4.361   7.140   1.590 -1.3003  0.0631 -0.8714
   56MOL    H4817758   4.483   6.985   1.468 -0.8474 -0.9072 -1.2355
   56MOL    H4917759   4.564   6.956   1.311  1.1328 -0.1020 -0.6479
   56MOL    C5017760   4.692   7.041   1.465 -0.5437 -0.0240  0.2242
   56MOL    C5117761   4.689   6.968   1.592 -0.3947  0.1959 -0.6455
   56MOL    C5217762   4.712   7.040   1.713 -0.7594  0.6276 -0.0230
   56MOL    C5317763   4.699   6.979   1.836  0.1506 -0.2502  0.2760
   56MOL    C5417764   4.678   6.837   1.848  0.2214 -0.5196  0.2227
   56MOL    F5517765   4.681   6.781   1.970  0.0900  0.1106 -0.4538
   56MOL    C5617766   4.671   6.761   1.732 -0.1803  0.8100 -0.3723
   56MOL    C5717767   4.667   6.831   1.608 -0.0384  1.0456 -0.5570
   56MOL    C5817768   4.820   6.993   1.384  0.5569 -0.1435  0.6327
   56MOL    H5917769   4.708   7.147   1.486 -3.0087  1.0777 -2.9981
   56MOL    H6017770   4.734   7.145   1.705  0.6426  0.2988 -0.6426
   56MOL    H6117771   4.719   7.036   1.925 -1.8912  0.1946  0.4946
   56MOL    H6217772   4.635   6.660   1.737  2.1644 -0.0841 -0.9227
   56MOL    H6317773   4.644   6.774   1.519  0.2899 -0.4205  0.2830
   56MOL    H6417774   4.912   7.010   1.440 -0.2284 -0.2333  1.9768
   56MOL    H6517775   4.819   6.886   1.364  0.2101  0.0055 -0.1459
   56MOL    C6617776   4.848   7.067   1.244  0.5628  0.7762 -0.1929
   56MOL    C6717777   4.868   7.219   1.258 -1.0830  0.3303  0.8674
   56MOL    C6817778   4.944   7.271   1.363 -0.3191 -0.1239  0.0640
   56MOL    C6917779   4.959   7.414   1.374 -0.0865  0.2174  0.1710
   56MOL    C7017780   4.898   7.500   1.285  1.0406  0.4529  0.0038
   56MOL    F7117781   4.901   7.637   1.300 -0.4412  0.1459 -0.2416
   56MOL    C7217782   4.833   7.447   1.172 -0.0684  0.2328  0.1395
   56MOL    C7317783   4.817   7.304   1.155 -0.5667  0.4794 -0.0861
   56MOL    C7417784   4.956   6.994   1.155  0.3473 -0.2256 -0.4650
   56MOL    H7517785   4.759   7.061   1.181  1.1115 -1.5596 -0.7982
   56MOL    H7617786   4.990   7.217   1.445  1.4066  2.6616  1.0024
   56MOL    H7717787   5.003   7.459   1.461 -0.5066  0.6710  0.1530
   56MOL    H7817788   4.782   7.516   1.106  0.2215  0.1924 -0.1299
   56MOL    H7917789   4.767   7.260   1.071 -0.5704 -0.9390  0.6509
   56MOL    H8017790   4.950   7.046   1.060  0.9071  2.0616  0.7036
   56MOL    H8117791   5.048   7.032   1.198  0.0468 -0.9520  0.8548
   56MOL    C8217792   4.957   6.843   1.143  0.4940 -0.0119 -0.4926
   56MOL    C8317793   4.824   6.782   1.095  0.4377 -0.0294 -0.1892
   56MOL    C8417794   4.777   6.810   0.961 -0.0041 -0.1730  0.7827
   56MOL    C8517795   4.658   6.753   0.914  0.3810  0.1944  0.0729
   56MOL    C8617796   4.577   6.681   1.001  0.4063  0.5186 -0.4208
   56MOL    F8717797   4.456   6.635   0.951  0.0858  0.3355  0.2738
   56MOL    C8817798   4.625   6.647   1.129  0.2667  0.0542  0.2374
   56MOL    C8917799   4.749   6.701   1.175 -0.3833  0.5051 -0.1901
   56MOL    C9017800   5.078   6.812   1.042 -0.7714  0.1699  0.0808
   56MOL    H9117801   4.991   6.807   1.240 -0.2665 -1.8930 -0.8939
   56MOL    H9217802   4.828   6.872   0.888  1.5258 -2.7050 -0.3731
   56MOL    H9317803   4.635   6.768   0.809  3.0448 -0.7890 -0.7054
   56MOL    H9417804   4.569   6.581   1.193  0.8288  0.7476  1.4703
   56MOL    H9517805   4.781   6.675   1.275 -1.8514 -0.7754 -0.0275
   56MOL    H9617806   5.056   6.831   0.937  1.8896 -2.2787 -0.9990
   56MOL    H9717807   5.159   6.881   1.067 -1.0072  0.5471 -0.1924
   56MOL    C9817808   5.148   6.673   1.050 -0.1971 -0.4322 -1.2612
   56MOL    C9917809   5.235   6.651   1.177  0.2146 -0.3089  0.0823
   56MOL   C10017810   5.176   6.597   1.288  0.5046 -0.2748  0.4028
   56MOL   C10117811   5.263   6.561   1.397  0.0862  0.1643  0.9522
   56MOL   C10217812   5.400   6.588   1.387 -0.3016 -0.6518 -0.4520
   56MOL   F10317813   5.472   6.559   1.499 -0.7037  0.0257  0.4530
   56MOL   C10417814   5.456   6.648   1.275  0.0793  0.3163 -0.9540
   56MOL   C10517815   5.369   6.697   1.175 -0.1275  0.6182  0.0209
   56MOL   C10617816   5.052   6.553   1.024 -0.0611  0.7006 -0.1906
   56MOL   H10717817   5.222   6.668   0.970  1.9892  1.4557  0.5262
   56MOL   H10817818   5.071   6.574   1.304 -0.1481  1.2616 -1.4552
   56MOL   H10917819   5.227   6.508   1.484  3.2867 -1.7558  1.2020
   56MOL   H11017820   5.560   6.677   1.270 -0.5809  3.1159  0.6610
   56MOL   H11117821   5.409   6.753   1.092  1.7222 -0.0210  0.4618
   56MOL   H11217822   5.117   6.466   1.039  1.5830  1.7820 -0.8299
   56MOL   H11317823   4.982   6.543   1.107  1.1925 -1.7280  0.6247
   56MOL   C11417824   4.983   6.541   0.886 -0.4537  0.6407  0.1610
   56MOL   C11517825   5.080   6.568   0.765 -0.4779  0.3482  0.1003
   56MOL   C11617826   5.051   6.679   0.686  0.0244  0.4310  0.3842
   56MOL   C11717827   5.131   6.704   0.571 -0.2447 -0.3975  0.6584
   56MOL   C11817828   5.239   6.624   0.532 -0.1010 -0.0780  0.7133
   56MOL   F11917829   5.314   6.656   0.426 -0.0700 -0.2788 -0.0073
   56MOL   C12017830   5.272   6.515   0.615 -0.8582  0.3836  0.7931
   56MOL   C12117831   5.193   6.486   0.733 -0.3089  0.8079  0.2073
   56MOL   C12217832   4.897   6.416   0.873 -0.4932 -0.0026 -1.4581
   56MOL   H12317833   4.912   6.623   0.889 -1.9136 -0.6557  2.8914
   56MOL   H12417834   4.972   6.745   0.718  0.6454  0.8643  1.0759
   56MOL   H12517835   5.106   6.789   0.509 -1.4212 -1.3297 -0.1595
   56MOL   H12617836   5.355   6.448   0.594 -1.6476  0.6794 -3.7810
   56MOL   H12717837   5.225   6.416   0.808  0.7570  1.5311  0.4219
   56MOL   H12817838   4.958   6.326   0.883  0.1815  0.5984  0.0271
   56MOL   H12917839   4.831   6.428   0.959 -1.1325  0.7835 -2.0562
   56MOL   C13017840   4.808   6.408   0.749  0.1503  0.2805 -0.2131
   56MOL   C13117841   4.873   6.363   0.623 -0.2873 -0.0975 -0.1424
   56MOL   C13217842   4.909   6.232   0.590  0.3214 -0.0613 -0.2349
   56MOL   C13317843   4.972   6.202   0.469 -0.2472  0.1489 -0.3435
   56MOL   C13417844   4.992   6.302   0.375  0.2807 -0.0022  0.2340
   56MOL   F13517845   5.032   6.273   0.253 -0.3080  0.0153  0.6201
   56MOL   C13617846   4.950   6.436   0.401 -0.4200  0.1998 -0.0031
   56MOL   C13717847   4.887   6.466   0.524  0.1813 -0.2995  0.5353
   56MOL   C13817848   4.686   6.324   0.782  0.0406  0.4501 -0.3191
   56MOL   H13917849   4.770   6.509   0.735 -0.1101  0.5482  2.2996
   56MOL   H14017850   4.887   6.159   0.667  2.2091 -0.4472 -0.0422
   56MOL   H14117851   4.999   6.100   0.443  1.1220 -0.3164  2.7420
   56MOL   H14217852   4.961   6.519   0.333 -1.0572  0.5301  0.2907
   56MOL   H14317853   4.859   6.568   0.544 -1.7299 -0.9876  1.5518
   56MOL   H14417854   4.707   6.218   0.798 -1.6132  0.2606  0.6988
   56MOL   H14517855   4.638   6.356   0.874  1.3958  0.6762  0.3153
   56MOL   C14617856   4.558   6.321   0.690  0.1585  0.3869 -0.1426
   56MOL   C14717857   4.448   6.224   0.729 -0.3909 -0.1604  0.4874
   56MOL   C14817858   4.371   6.244   0.848 -0.7929 -0.2832 -0.6537
   56MOL   C14917859   4.281   6.144   0.884 -0.0492 -0.1387 -0.1321
   56MOL   C15017860   4.272   6.023   0.808 -0.4491  0.1868 -0.0095
   56MOL   F15117861   4.196   5.912   0.857 -0.0290  0.1758  0.1923
   56MOL   C15217862   4.340   6.010   0.685 -0.2143  0.0175 -0.4516
   56MOL   C15317863   4.429   6.110   0.646 -0.6347  0.0317  0.6224
   56MOL   C15417864   4.506   6.463   0.653 -0.3221 -0.4636  0.5466
   56MOL   H15517865   4.595   6.282   0.595  1.6318  0.0208  0.5650
   56MOL   H15617866   4.386   6.336   0.902 -0.1477 -0.1382 -1.0709
   56MOL   H15717867   4.218   6.155   0.971  0.5733  0.9082  0.1938
   56MOL   H15817868   4.317   5.914   0.640 -1.3221  0.8610 -1.7473
   56MOL   H15917869   4.491   6.100   0.559  0.8770  0.2430  1.6496
   56MOL   H16017870   4.485   6.527   0.739  1.6458 -1.5803  1.9130
   56MOL   H16117871   4.595   6.507   0.607  0.0599 -0.1045  1.6045
   56MOL   C16217872   4.376   6.468   0.558  0.0200  0.2227 -0.2057
   56MOL   C16317873   4.237   6.461   0.631 -0.2217  0.5018 -0.1695
   56MOL   C16417874   4.203   6.563   0.726 -0.7930  0.5078  0.0253
   56MOL   C16517875   4.090   6.547   0.810 -0.1718  0.5999  0.3562
   56MOL   C16617876   3.999   6.448   0.791  0.0832 -0.0761 -0.6396
   56MOL   F16717877   3.889   6.448   0.869  0.2083  0.0703 -0.5936
   56MOL   C16817878   4.025   6.349   0.697 -0.7718 -0.2289 -0.3787
   56MOL   C16917879   4.146   6.351   0.620 -0.4624  0.0099  0.5432
   56MOL   C17017880   4.383   6.585   0.450 -0.0777 -0.0295 -0.3413
   56MOL   H17117881   4.378   6.381   0.492 -2.1025 -0.7037  0.9046
   56MOL   H17217882   4.286   6.629   0.750 -1.0304  0.6703  0.3977
   56MOL   H17317883   4.071   6.612   0.894  0.7837 -0.2951  1.2678
   56MOL   H17417884   3.953   6.270   0.679 -1.0439 -0.0156 -0.2229
   56MOL   H17517885   4.159   6.278   0.541 -1.4637  0.3336  0.0661
   56MOL   H17617886   4.281   6.582   0.412 -0.9444 -0.6989  1.9467
   56MOL   H17717887   4.384   6.683   0.499  0.3932 -0.2983  0.1928
   56MOL   C17817888   4.485   6.578   0.333  0.0030  0.1565  0.7644
   56MOL   C17917889   4.510   6.439   0.275  0.5708 -0.4421 -0.4126
   56MOL   C18017890   4.639   6.386   0.262  0.5012 -0.2822 -0.3376
   56MOL   C18117891   4.652   6.253   0.213 -1.2762 -0.4904  0.2106
   56MOL   C18217892   4.546   6.164   0.198  0.2265 -0.6572 -0.3621
   56MOL   F18317893   4.569   6.028   0.186  0.4832  0.0605 -0.3619
   56MOL   C18417894   4.421   6.224   0.203 -0.3278  1.0782 -0.7100
   56MOL   C18517895   4.404   6.359   0.232 -0.3134 -0.4605  0.5407
   56MOL   C18617896   4.460   6.675   0.219 -0.2845 -0.3488 -0.3625
   56MOL   H18717897   4.579   6.603   0.382  1.3347  0.9144 -2.1083
   56MOL   H18817898   4.724   6.447   0.288  0.7291 -0.6593 -0.1968
   56MOL   H18917899   4.751   6.212   0.212 -2.1241 -2.6293  0.8938
   56MOL   H19017900   4.332   6.162   0.209  0.0253  0.5231 -1.1080
   56MOL   H19117901   4.303   6.397   0.243 -0.0073  0.5137  0.0361
   56MOL   H19217902   4.544   6.662   0.150  0.1077 -0.4046  0.1282
   56MOL   H19317903   4.367   6.651   0.167 -1.6111 -1.0379  2.2872
   56MOL   C19417904   4.454   6.825   0.255 -0.0262  0.3113 -0.1885
   56MOL   C19517905   4.570   6.865   0.349  0.2387 -0.2040  0.6523
   56MOL   C19617906   4.529   6.916   0.475 -0.7871 -0.5618  0.1884
   56MOL   C19717907   4.625   6.954   0.571  0.8367 -0.1149  0.1047
   56MOL   C19817908   4.763   6.940   0.538  0.3897  0.1561 -0.3586
   56MOL   F19917909   4.862   6.966   0.632 -0.0581 -0.0685  0.5482
   56MOL   C20017910   4.810   6.889   0.414  1.1520 -0.3648  0.4585
   56MOL   C20117911   4.709   6.860   0.315 -0.4565  0.1393  0.0029
   56MOL   C20217912   4.462   6.904   0.114 -0.5267 -0.4749 -0.0991
   56MOL   H20317913   4.359   6.848   0.304  0.3347  1.3632  0.0304
   56MOL   H20417914   4.422   6.910   0.492 -1.0348  0.4413 -0.9763
   56MOL   H20517915   4.598   7.013   0.657 -1.0449  0.0392 -0.5676
   56MOL   H20617916   4.917   6.876   0.407  0.9592 -1.5548 -0.4571
   56MOL   H20717917   4.723   6.826   0.214 -0.4809 -0.3899  0.1751
   56MOL   H20817918   4.558   6.878   0.069 -0.0667 -1.5039  1.4333
   56MOL   H20917919   4.387   6.855   0.051 -1.8080 -1.8926  2.4569
   56MOL   C21017920   4.441   7.052   0.117  0.3542  0.4395  0.2446
   56MOL   C21117921   4.298   7.092   0.085  0.2782 -0.2056  0.6782
   56MOL   C21217922   4.204   7.125   0.187  0.2065 -0.1236 -0.2457
   56MOL   C21317923   4.083   7.181   0.144 -0.7012 -0.0164 -0.0771
   56MOL   C21417924   4.044   7.202   0.011 -0.4717  0.6963  0.0438
   56MOL   F21517925   3.922   7.243   8.213 -0.0683 -0.0911 -0.1757
   56MOL   C21617926   4.136   7.163   8.144 -0.6364 -0.1718  0.4497
   56MOL   C21717927   4.264   7.114   8.185 -0.1093 -0.2195  0.6598
   56MOL   C21817928   4.518   7.144   0.218  0.5864  0.1381  0.3954
   56MOL   H21917929   4.494   7.079   0.026 -0.3743 -0.6974 -0.5343
   56MOL   H22017930   4.227   7.117   0.292  3.0664  1.9594 -0.6639
   56MOL   H22117931   4.013   7.214   0.220  1.6471  1.6694  1.4403
   56MOL   H22217932   4.108   7.167   8.040 -2.9937  0.1158  1.0720
   56MOL   H22317933   4.341   7.087   8.114  0.8202  1.1042  1.1428
   56MOL   H22417934   4.469   7.155   0.315  0.6339  1.7395  0.2540
   56MOL   H22517935   4.618   7.108   0.242 -1.1513 -4.1490  1.6254
   56MOL   C22617936   4.562   7.283   0.166 -0.0184 -0.3964 -0.0660
   56MOL   C22717937   4.451   7.393   0.184 -0.2117 -0.5385  1.0895
   56MOL   C22817938   4.394   7.415   0.312 -0.0288 -0.3199  0.1390
   56MOL   C22917939   4.285   7.504   0.331 -0.1126  0.4260  0.0545
   56MOL   C23017940   4.229   7.560   0.219 -0.1032 -0.0640 -0.2763
   56MOL   F23117941   4.124   7.651   0.235  0.0785  0.1702 -0.0002
   56MOL   C23217942   4.276   7.535   0.088  0.0599  0.2507  0.6836
   56MOL   C23317943   4.395   7.465   0.072  0.5101  0.5017  0.3440
   56MOL   C23417944   4.699   7.332   0.211  0.0130 -0.2323 -0.2213
   56MOL   H23517945   4.573   7.276   0.058  1.8005  2.6095 -0.1285
   56MOL   H23617946   4.439   7.370   0.399 -1.5800  1.1399  1.7270
   56MOL   H23717947   4.227   7.520   0.422  0.8141 -0.7302  0.8741
   56MOL   H23817948   4.227   7.564   8.231 -0.0756  0.6404  0.8782
   56MOL   H23917949   4.425   7.434   8.207  0.7723  0.0830  0.5477
   56MOL   H24017950   4.690   7.341   0.319 -1.9807 -1.5461 -0.2533
   56MOL   H24117951   4.775   7.253   0.210 -1.4426 -1.6463 -1.1326
   56MOL   C24217952   4.754   7.467   0.156 -0.2679  0.6584  0.1403
   56MOL   C24317953   4.761   7.566   0.266  0.0295  0.6482 -0.2586
   56MOL   C24417954   4.665   7.666   0.264  0.9091 -0.1634  0.8032
   56MOL   C24517955   4.674   7.777   0.343  0.2131 -0.3947  1.1029
   56MOL   C24617956   4.777   7.780   0.438 -0.1216  0.2754 -0.6974
   56MOL   F24717957   4.778   7.877   0.531  0.1784  0.1063 -0.2845
   56MOL   C24817958   4.871   7.672   0.449 -0.4954 -0.0144 -0.3856
   56MOL   C24917959   4.868   7.570   0.356 -0.7998 -0.6496 -0.2596
   56MOL   C25017960   4.895   7.456   0.084 -0.7658 -0.9151 -0.1475
   56MOL   H25117961   4.676   7.505   0.089 -2.5884 -0.7621  1.9613
   56MOL   H25217962   4.588   7.663   0.188  0.7494 -0.5578  0.9813
   56MOL   H25317963   4.599   7.853   0.334  0.4650 -0.5212 -2.8951
   56MOL   H25417964   4.946   7.666   0.527 -0.3092 -1.2608 -0.6592
   56MOL   H25517965   4.943   7.494   0.370 -0.2827 -0.1969 -0.5582
   56MOL   H25617966   4.930   7.557   0.065 -1.3697 -0.8670 -1.0316
   56MOL   H25717967   4.975   7.420   0.148  1.4862  3.3758 -0.4083
   56MOL   C25817968   4.899   7.363   8.193  0.4878 -0.7643 -0.3808
   56MOL   C25917969   4.802   7.413   8.092  0.1211  0.5485  0.2512
   56MOL   C26017970   4.822   7.532   8.022  0.6975 -0.0686 -1.0455
   56MOL   C26117971   4.735   7.581   7.920  0.1209  0.4787 -0.8361
   56MOL   C26217972   4.613   7.508   7.911  0.3372 -0.3024 -0.1976
   56MOL   F26317973   4.522   7.551   7.821  0.4290  0.1830 -0.4158
   56MOL   C26417974   4.595   7.382   7.978 -0.7323 -0.5784 -0.4435
   56MOL   C26517975   4.693   7.333   8.060  0.5768  0.6758  0.4363
   56MOL   C26617976   5.038   7.362   8.138  0.3944  0.3416  0.8461
   56MOL   H26717977   4.869   7.264   8.228  1.1907 -1.4208 -1.6100
   56MOL   H26817978   4.900   7.602   8.046 -0.7446  0.6635  1.6602
   56MOL   H26917979   4.757   7.674   7.870  0.6829  1.4508  1.1523
   56MOL   H27017980   4.507   7.322   7.959 -2.5447  2.2324 -1.3529
   56MOL   H27117981   4.677   7.239   8.112 -0.6890  0.4185 -0.3892
   56MOL   H27217982   5.071   7.465   8.121 -0.8167  0.6900  0.5816
   56MOL   H27317983   5.109   7.325   8.213  0.9045  0.1962  0.2959
   56MOL   C27417984   5.059   7.309   7.995  0.2714 -0.5637  0.5828
   56MOL   C27517985   5.205   7.333   7.950  0.1073  0.3961  0.2061
   56MOL   C27617986   5.232   7.406   7.830 -0.1970  0.1287 -0.1792
   56MOL   C27717987   5.362   7.437   7.791 -0.2094  0.6028  0.3795
   56MOL   C27817988   5.472   7.389   7.872 -0.0796  0.2491 -0.1899
   56MOL   F27917989   5.599   7.432   7.837 -0.0990  0.4599  0.5349
   56MOL   C28017990   5.448   7.302   7.983  0.1664 -0.3412 -0.0876
   56MOL   C28117991   5.321   7.280   8.021  0.0499 -0.2471  0.2864
   56MOL   C28217992   5.016   7.168   7.965 -0.0423  0.1065  0.7084
   56MOL   H28317993   5.003   7.381   7.936 -2.0632 -3.5040 -0.9294
   56MOL   H28417994   5.144   7.450   7.787 -0.9048  1.3721  2.4948
   56MOL   H28517995   5.395   7.500   7.710  1.6921  0.7571  1.2472
   56MOL   H28617996   5.534   7.282   8.046  0.1428  0.6850  0.2695
   56MOL   H28717997   5.316   7.224   8.113  1.3087 -2.0189 -0.7006
   56MOL   H28817998   5.093   7.103   8.007  0.6674  1.4385  1.4956
   56MOL   H28917999   4.920   7.155   8.016  0.4156 -1.4712  1.2019
   56MOL   C29018000   4.988   7.144   7.821 -0.5886 -0.6748  0.1187
   56MOL   C29118001   5.016   6.998   7.793  0.1499  0.4641 -0.1677
   56MOL   C29218002   4.930   6.905   7.849  0.4069 -0.7780 -0.4670
   56MOL   C29318003   4.955   6.769   7.837  0.2759  0.2460 -0.2533
   56MOL   C29418004   5.058   6.721   7.761 -0.0953  0.5582 -0.5971
   56MOL   F29518005   5.090   6.591   7.764 -0.1645 -0.3435  0.2521
   56MOL   C29618006   5.137   6.814   7.686 -0.6823 -0.5329  0.3001
   56MOL   C29718007   5.116   6.955   7.703  0.4678  0.0386  0.5909
   56MOL   C29818008   4.846   7.192   7.785 -0.1667 -0.1862  0.2559
   56MOL   H29918009   5.052   7.199   7.752 -1.3530  0.7460  0.5272
   56MOL   H30018010   4.852   6.938   7.916  1.4362  0.6665  0.0567
   56MOL   H30118011   4.898   6.696   7.893 -1.6151  3.8680  2.7663
   56MOL   H30218012   5.212   6.789   7.613 -1.2430 -0.7558 -0.2060
   56MOL   H30318013   5.170   7.025   7.641 -0.3235 -0.4121 -0.6248
   56MOL   H30418014   4.772   7.120   7.821 -1.2884  1.2514  0.8807
   56MOL   H30518015   4.828   7.289   7.833  1.3354 -0.4752  1.4589
   56MOL   C30618016   4.806   7.221   7.639 -0.4385  1.0579 -0.1587
   56MOL   C30718017   4.897   7.323   7.572  0.8259 -0.2143 -0.2559
   56MOL   C30818018   5.007   7.294   7.480  0.0663 -0.1534 -0.2763
   56MOL   C30918019   5.098   7.395   7.440 -0.3064  0.3967  0.2353
   56MOL   C31018020   5.077   7.521   7.489  0.8269 -0.5181  0.2114
   56MOL   F31118021   5.165   7.621   7.455  0.2624  0.3875 -0.1944
   56MOL   C31218022   4.962   7.553   7.572  0.2727  0.4375 -0.4371
   56MOL   C31318023   4.873   7.451   7.615 -0.4938 -0.6178  0.1592
   56MOL   C31418024   4.789   7.086   7.562 -0.0259 -0.1521  0.3801
   56MOL   H31518025   4.709   7.271   7.651  0.3902  2.5039  0.7592
   56MOL   H31618026   5.043   7.196   7.454  0.5185 -0.0139 -0.1754
   56MOL   H31718027   5.187   7.359   7.389  0.7417  0.2943  2.0926
   56MOL   H31818028   4.954   7.657   7.602  1.2354 -0.0560  1.5546
   56MOL   H31918029   4.793   7.458   7.688 -0.4741 -1.5380  0.2733
   56MOL   H32018030   4.737   7.013   7.624 -0.3180  0.9964  1.5053
   56MOL   H32118031   4.737   7.104   7.468  0.8784 -0.2874 -0.1546
   56MOL   H32218032   4.887   7.039   7.553  1.0647  2.0251  0.3759
   57MOL     C118033   5.801   7.755   4.047 -0.0796 -0.2936 -0.5472
   57MOL     C218034   5.850   7.607   4.051  0.1412  0.2171  0.3197
   57MOL     C318035   5.923   7.558   4.164  0.0481 -0.6723 -0.3294
   57MOL     C418036   5.969   7.429   4.169 -0.2014  0.4457 -0.2341
   57MOL     C518037   5.961   7.341   4.058 -0.1174  0.1969  0.3025
   57MOL     F618038   5.998   7.214   4.070 -0.2009 -0.0118  0.4651
   57MOL     C718039   5.883   7.386   3.949 -0.2612  0.9583  1.1275
   57MOL     C818040   5.826   7.513   3.946  0.4933  0.4134 -0.3721
   57MOL     C918041   5.917   7.859   4.049  0.0328  0.3328 -0.4430
   57MOL    H1018042   5.737   7.775   4.133 -1.6650  0.1047 -1.8009
   57MOL    H1118043   5.939   7.613   4.255 -0.0838  1.0138 -1.2923
   57MOL    H1218044   6.015   7.398   4.262 -0.3891  0.8755  0.0044
   57MOL    H1318045   5.872   7.329   3.857  0.7929  1.6591  0.5536
   57MOL    H1418046   5.758   7.534   3.864  1.1711 -1.5496 -1.4773
   57MOL    H1518047   5.971   7.850   4.143  1.7398  2.7309 -1.1339
   57MOL    H1618048   5.987   7.825   3.973 -1.1175 -0.5485 -1.1190
   57MOL    H1718049   5.733   7.771   3.964 -1.0279 -0.4523  0.1767
   57MOL    C1818050   5.865   8.007   4.023 -0.1326  0.4142  0.7117
   57MOL    C1918051   5.743   8.055   4.103  0.5420  0.7042  0.6064
   57MOL    C2018052   5.627   8.092   4.039 -0.2731 -0.5171  0.2323
   57MOL    C2118053   5.511   8.127   4.117 -0.4712 -0.7040  0.1353
   57MOL    C2218054   5.525   8.133   4.258 -0.6166  0.1817 -0.0951
   57MOL    F2318055   5.415   8.171   4.327  0.4699  0.2054 -0.1421
   57MOL    C2418056   5.647   8.099   4.324 -0.4356 -0.4807 -0.5130
   57MOL    C2518057   5.754   8.052   4.241 -0.1698 -0.2818  0.2144
   57MOL    C2618058   5.990   8.108   4.003  0.9273  0.1382  0.0292
   57MOL    H2718059   5.826   7.995   3.922  0.7555  1.3803  0.2454
   57MOL    H2818060   5.617   8.081   3.932  0.8701  1.8509 -0.1448
   57MOL    H2918061   5.418   8.134   4.063 -0.5867  0.0743  0.4231
   57MOL    H3018062   5.656   8.096   4.432 -4.2298 -2.9838 -0.1636
   57MOL    H3118063   5.843   8.013   4.287  0.9974  0.7871 -1.0876
   57MOL    H3218064   6.071   8.070   3.942  0.8378  0.6690 -0.4314
   57MOL    H3318065   5.947   8.191   3.945  0.7952  1.5367  2.0604
   57MOL    C3418066   6.031   8.191   4.128 -0.3754  0.2314 -0.1551
   57MOL    C3518067   6.178   8.211   4.133 -0.3747  0.1206  0.7834
   57MOL    C3618068   6.264   8.143   4.228  0.6711  0.3967  0.0884
   57MOL    C3718069   6.401   8.174   4.232 -0.5023 -0.4782 -0.3471
   57MOL    C3818070   6.457   0.032   4.140  0.6805 -0.1411 -1.0317
   57MOL    F3918071   6.585   0.050   4.155  0.3116 -0.1402 -0.0117
   57MOL    C4018072   6.378   0.096   4.045  0.2657  0.1128  0.4258
   57MOL    C4118073   6.241   0.063   4.044  0.0570  0.0366 -0.4417
   57MOL    C4218074   5.949   0.083   4.154  0.0043 -0.5042 -0.6009
   57MOL    H4318075   6.023   8.130   4.218  0.8846 -0.7682 -0.7064
   57MOL    H4418076   6.231   8.077   4.307 -0.7804 -0.5933 -1.3199
   57MOL    H4518077   6.473   8.135   4.303 -0.5514 -2.7989 -1.5490
   57MOL    H4618078   6.421   0.165   3.973  0.9271 -0.1927  0.5310
   57MOL    H4718079   6.173   0.122   3.985 -1.9952 -0.2463  1.6041
   57MOL    H4818080   5.992   0.162   4.093  3.0971 -0.8613  1.0093
   57MOL    H4918081   5.845   0.086   4.121  0.0960 -0.0448 -0.8550
   57MOL    C5018082   5.932   0.104   4.310 -0.1018 -0.1385  0.2193
   57MOL    C5118083   6.056   0.106   4.398 -0.5804 -0.1280 -0.4986
   57MOL    C5218084   6.068   0.022   4.512  0.8709 -0.1817  0.4359
   57MOL    C5318085   6.179   0.032   4.594  0.3220  0.4326 -0.2184
   57MOL    C5418086   6.285   0.113   4.565 -0.2503 -0.6611  0.9555
   57MOL    F5518087   6.397   0.107   4.638  0.0759 -0.1901 -0.0891
   57MOL    C5618088   6.270   0.201   4.458  0.7670  0.3253  0.3080
   57MOL    C5718089   6.154   0.205   4.374 -0.3334  0.0050  0.3304
   57MOL    C5818090   5.841   0.224   4.329 -0.4186  0.1745  0.3649
   57MOL    H5918091   5.876   0.019   4.349 -0.7953  0.8175  1.3595
   57MOL    H6018092   5.984   8.190   4.530  0.7022 -0.0777  0.0501
   57MOL    H6118093   6.184   8.201   4.680  0.8648  0.1842 -0.4350
   57MOL    H6218094   6.354   0.266   4.440  0.9397 -0.5459 -2.1202
   57MOL    H6318095   6.146   0.271   4.289  0.6852  0.1233  0.3177
   57MOL    H6418096   5.898   0.308   4.288 -1.4744  1.0920  0.7605
   57MOL    H6518097   5.751   0.216   4.269 -0.0451  2.0597 -0.4655
   57MOL    C6618098   5.791   0.253   4.479 -0.1227 -0.3684  0.5153
   57MOL    C6718099   5.709   0.381   4.486  0.2516 -0.0554  0.0500
   57MOL    C6818100   5.752   0.488   4.565  0.4171 -0.0286  0.5947
   57MOL    C6918101   5.661   0.597   4.576  0.0411  0.1671 -0.3227
   57MOL    C7018102   5.535   0.599   4.513  0.1727 -0.1617 -0.0677
   57MOL    F7118103   5.439   0.691   4.541  0.4358 -0.3054  0.1417
   57MOL    C7218104   5.503   0.492   4.428 -0.1978  0.2157 -0.4029
   57MOL    C7318105   5.594   0.388   4.413 -0.5814  0.3946 -0.1160
   57MOL    C7418106   5.706   0.131   4.532 -0.1416 -0.6283  0.2612
   57MOL    H7518107   5.877   0.248   4.545  0.6883 -0.8449 -0.5525
   57MOL    H7618108   5.850   0.500   4.609  1.0015 -1.6786 -0.2340
   57MOL    H7718109   5.684   0.678   4.644  1.6844  0.7549 -1.5332
   57MOL    H7818110   5.406   0.484   4.383 -1.1225 -0.8868  1.7266
   57MOL    H7918111   5.561   0.317   4.338  0.2398  3.7771 -3.8470
   57MOL    H8018112   5.620   0.124   4.466 -0.0291  0.8635 -0.0583
   57MOL    H8118113   5.758   0.036   4.544  0.6750 -0.1776  0.3411
   57MOL    C8218114   5.641   0.156   4.671 -0.2730  0.4463  0.1428
   57MOL    C8318115   5.532   0.050   4.698  0.3502  0.5231 -0.1564
   57MOL    C8418116   5.563   8.163   4.762 -0.4147 -0.4538 -0.3017
   57MOL    C8518117   5.474   8.057   4.769 -0.2311  0.0427 -0.2449
   57MOL    C8618118   5.353   8.075   4.705  0.2841  0.4761 -0.8067
   57MOL    F8718119   5.263   7.977   4.718  0.1329  0.2457  0.1815
   57MOL    C8818120   5.320   8.193   4.641 -0.6842 -0.3825  0.7040
   57MOL    C8918121   5.408   0.062   4.639 -0.0091 -0.2032 -0.3053
   57MOL    C9018122   5.741   0.180   4.788 -0.1642  0.7478 -1.1015
   57MOL    H9118123   5.584   0.248   4.659  0.6583  0.9068 -0.8824
   57MOL    H9218124   5.660   8.145   4.806 -0.3018  0.8760  0.0183
   57MOL    H9318125   5.501   7.960   4.806  1.3876 -0.1543 -1.8660
   57MOL    H9418126   5.223   8.206   4.595 -0.5228  0.2883  0.5426
   57MOL    H9518127   5.386   0.152   4.583  2.1713 -0.0043 -0.9018
   57MOL    H9618128   5.783   0.081   4.804 -0.4196  1.3568  3.8670
   57MOL    H9718129   5.821   0.246   4.753  0.2769  1.1868  0.7057
   57MOL    C9818130   5.671   0.240   4.912  0.3517  0.1835  0.1026
   57MOL    C9918131   5.753   0.216   5.046 -0.2673 -0.3079  0.3087
   57MOL   C10018132   5.709   0.115   5.129  0.3666  0.5166 -0.3317
   57MOL   C10118133   5.775   0.101   5.250 -0.5544 -0.1624 -0.1504
   57MOL   C10218134   5.889   0.177   5.291  0.3023 -0.0255 -0.2670
   57MOL   F10318135   5.944   0.151   5.408 -0.0124  0.8724 -0.1085
   57MOL   C10418136   5.937   0.273   5.200 -0.2359  0.1780 -0.4668
   57MOL   C10518137   5.869   0.291   5.075 -0.0793 -0.7166  0.6175
   57MOL   C10618138   5.627   0.387   4.895  0.7273 -0.5659 -0.4906
   57MOL   H10718139   5.579   0.182   4.919 -1.2935  2.3102 -2.7777
   57MOL   H10818140   5.621   0.062   5.095  0.4730  0.7748 -1.0099
   57MOL   H10918141   5.731   0.029   5.318  2.5629 -1.1113  0.9533
   57MOL   H11018142   6.029   0.327   5.217 -0.5693  0.9015 -0.9755
   57MOL   H11118143   5.897   0.378   5.018  0.2800 -1.5307 -0.4711
   57MOL   H11218144   5.715   0.451   4.890 -0.4556  1.0540 -0.9242
   57MOL   H11318145   5.570   0.419   4.808  0.6316  0.2357 -0.1359
   57MOL   C11418146   5.538   0.439   5.010 -0.1774  0.1243 -0.6755
   57MOL   C11518147   5.422   0.347   5.042  0.2303  0.2049  0.3254
   57MOL   C11618148   5.401   0.280   5.166 -0.3329  0.3971 -0.9378
   57MOL   C11718149   5.298   0.187   5.177  0.6605  0.3632 -0.6990
   57MOL   C11818150   5.211   0.158   5.070 -0.0680  0.6598  0.0358
   57MOL   F11918151   5.112   0.079   5.098  0.1117  0.0261 -0.1382
   57MOL   C12018152   5.230   0.225   4.946  0.4343  0.8004 -0.4179
   57MOL   C12118153   5.329   0.322   4.938  0.5566  1.0077  0.3574
   57MOL   C12218154   5.603   0.495   5.135 -0.4359 -0.5028 -0.9697
   57MOL   H12318155   5.486   0.525   4.967 -0.3630  1.7817  2.6448
   57MOL   H12418156   5.462   0.297   5.254 -2.8158 -0.2785  0.9589
   57MOL   H12518157   5.283   0.126   5.264 -2.8365 -0.8744 -2.0854
   57MOL   H12618158   5.160   0.210   4.865  1.2151 -4.0630 -0.3424
   57MOL   H12718159   5.349   0.373   4.844  1.5584 -1.2753 -0.7096
   57MOL   H12818160   5.524   0.513   5.209  0.2019  1.4288 -0.7242
   57MOL   H12918161   5.663   0.424   5.191 -0.4747  0.0681 -0.1916
   57MOL   C13018162   5.671   0.637   5.113 -0.1898  0.0948  0.6582
   57MOL   C13118163   5.568   0.731   5.062  0.9920 -0.6749 -0.3474
   57MOL   C13218164   5.590   0.790   4.936 -0.1711 -0.6964  0.5880
   57MOL   C13318165   5.504   0.894   4.886  0.2487  0.0194 -0.6472
   57MOL   C13418166   5.384   0.920   4.949  0.3547 -0.1480 -0.5917
   57MOL   F13518167   5.293   1.004   4.896  0.0746  0.2772  0.1196
   57MOL   C13618168   5.353   0.852   5.072 -0.0600 -0.0556  0.1116
   57MOL   C13718169   5.445   0.754   5.127  0.7421 -0.2628 -0.0823
   57MOL   C13818170   5.735   0.692   5.239  1.0968  0.2814  0.3909
   57MOL   H13918171   5.750   0.637   5.038 -1.0951 -0.6931 -0.3099
   57MOL   H14018172   5.674   0.765   4.873 -1.2937 -1.3480 -0.6866
   57MOL   H14118173   5.538   0.960   4.808  3.3999  1.3206  1.7462
   57MOL   H14218174   5.261   0.879   5.120  0.3815  0.1464  0.8558
   57MOL   H14318175   5.419   0.712   5.224 -0.6545 -0.4300 -0.5223
   57MOL   H14418176   5.663   0.740   5.305  0.2108 -1.1366  0.4849
   57MOL   H14518177   5.770   0.601   5.289  0.0363 -0.6817 -0.5896
   57MOL   C14618178   5.860   0.781   5.217  0.6056  0.6139  1.0365
   57MOL   C14718179   5.828   0.916   5.148  0.0699 -0.1216 -0.2671
   57MOL   C14818180   5.917   0.952   5.048  0.1131 -0.8079 -0.2461
   57MOL   C14918181   5.893   1.073   4.972 -0.1182 -0.1504 -0.8540
   57MOL   C15018182   5.779   1.150   5.007 -0.2898  0.2314  0.1688
   57MOL   F15118183   5.759   1.266   4.940  0.3502  0.2518  0.4434
   57MOL   C15218184   5.691   1.116   5.111 -0.5152 -0.1425 -0.2385
   57MOL   C15318185   5.717   0.996   5.181  0.1301  0.6381 -0.2105
   57MOL   C15418186   5.930   0.804   5.356 -0.1911  0.8766 -0.3814
   57MOL   H15518187   5.926   0.725   5.151 -1.1329  1.5700 -1.5530
   57MOL   H15618188   6.004   0.891   5.029  0.5181 -0.3916  0.2478
   57MOL   H15718189   5.953   1.104   4.888  1.6391 -1.4882 -0.1233
   57MOL   H15818190   5.605   1.179   5.129  0.1269  0.9734 -0.9784
   57MOL   H15918191   5.660   0.959   5.265  3.0331 -1.1393  1.0864
   57MOL   H16018192   5.965   0.906   5.343 -0.6368  1.2853  1.5411
   57MOL   H16118193   5.855   0.811   5.434 -0.0860 -1.3790 -0.0223
   57MOL   C16218194   6.046   0.712   5.402 -0.1035 -0.1359 -0.2370
   57MOL   C16318195   6.163   0.722   5.302 -0.2029 -0.2973  0.1691
   57MOL   C16418196   6.233   0.845   5.290  0.5958 -0.0615 -0.2497
   57MOL   C16518197   6.353   0.851   5.225 -0.4401 -0.5473  1.0806
   57MOL   C16618198   6.399   0.735   5.151  0.0420 -0.3655 -0.1183
   57MOL   F16718199   6.515   0.753   5.093 -0.1027  0.3067  0.0857
   57MOL   C16818200   6.319   0.620   5.144 -0.1707 -0.1748  0.2502
   57MOL   C16918201   6.202   0.612   5.214 -0.2312 -0.3470  0.2992
   57MOL   C17018202   6.095   0.743   5.544 -0.2793  0.3693 -0.1928
   57MOL   H17118203   6.015   0.607   5.401  0.0044 -0.1643 -1.4906
   57MOL   H17218204   6.204   0.927   5.355  0.3784  0.6354 -1.2145
   57MOL   H17318205   6.415   0.939   5.224 -1.8273  0.4610  2.0242
   57MOL   H17418206   6.353   0.530   5.094  0.4398 -0.3582  0.9818
   57MOL   H17518207   6.153   0.516   5.216  1.4699 -1.2268  1.4836
   57MOL   H17618208   6.134   0.844   5.558  1.0610 -0.0654 -0.7350
   57MOL   H17718209   6.007   0.732   5.608 -0.8227  0.3282 -0.9422
   57MOL   C17818210   6.206   0.652   5.601 -0.1239 -0.0095 -0.4430
   57MOL   C17918211   6.297   0.714   5.715 -0.9166  0.5142 -0.2214
   57MOL   C18018212   6.439   0.700   5.701  0.4836 -0.1304 -0.3222
   57MOL   C18118213   6.517   0.766   5.790 -0.0733  0.7056  0.2956
   57MOL   C18218214   6.456   0.817   5.905 -0.2591  0.3563 -0.0046
   57MOL   F18318215   6.537   0.870   6.000  0.2907 -0.2157  0.0462
   57MOL   C18418216   6.315   0.813   5.926 -0.4268 -0.0831  0.4615
   57MOL   C18518217   6.235   0.774   5.824  0.2051 -0.3953 -0.1723
   57MOL   C18618218   6.149   0.515   5.648 -0.3033 -0.1229 -0.9561
   57MOL   H18718219   6.280   0.642   5.522 -0.8693 -1.3770 -0.9942
   57MOL   H18818220   6.472   0.657   5.608 -2.2644 -1.4698 -0.7254
   57MOL   H18918221   6.622   0.785   5.772  0.2961 -1.0383  0.4641
   57MOL   H19018222   6.272   0.856   6.015  2.1000  3.5295  0.0711
   57MOL   H19118223   6.127   0.773   5.833 -0.1914  1.9873 -3.6203
   57MOL   H19218224   6.126   0.533   5.753 -3.7843 -1.6732 -1.3787
   57MOL   H19318225   6.045   0.505   5.614 -0.6929 -0.1306  0.2352
   57MOL   C19418226   6.240   0.390   5.627 -0.7118  0.2156  0.0754
   57MOL   C19518227   6.198   0.288   5.728  0.0038 -0.0118 -0.5129
   57MOL   C19618228   6.268   0.291   5.850  0.2145  0.6322 -0.1949
   57MOL   C19718229   6.219   0.213   5.958 -0.2496 -1.3387 -0.6738
   57MOL   C19818230   6.105   0.133   5.942 -0.8141  0.8020 -0.0184
   57MOL   F19918231   6.059   0.064   6.052 -0.1260 -0.5125 -0.0288
   57MOL   C20018232   6.035   0.125   5.819 -0.9737  0.6730  0.2402
   57MOL   C20118233   6.088   0.203   5.710  0.7484  0.8985 -1.1341
   57MOL   C20218234   6.248   0.346   5.478 -0.0975 -0.0580 -0.0295
   57MOL   H20318235   6.336   0.431   5.658 -0.9646 -0.6788  2.0975
   57MOL   H20418236   6.351   0.359   5.865 -0.8128  1.9422 -0.4180
   57MOL   H20518237   6.275   0.212   6.050 -1.7761 -0.1356  0.2964
   57MOL   H20618238   5.952   0.057   5.811 -0.6219  0.1100  1.3385
   57MOL   H20718239   6.032   0.219   5.619 -1.1181  1.8679  0.1461
   57MOL   H20818240   6.144   0.331   5.450 -0.3502  1.9406 -0.2359
   57MOL   H20918241   6.289   0.417   5.407 -1.8698 -0.6575 -1.6809
   57MOL   C21018242   6.308   0.201   5.456 -0.4151  0.1556 -0.3906
   57MOL   C21118243   6.277   0.148   5.318  0.6940  0.1137  0.4400
   57MOL   C21218244   6.192   0.038   5.296 -0.5751  0.6480 -0.0406
   57MOL   C21318245   6.167   8.223   5.169  0.6635  0.0943  0.2909
   57MOL   C21418246   6.221   0.058   5.056  0.7414 -0.3655  0.7199
   57MOL   F21518247   6.196   0.013   4.930  0.0575 -0.0689  0.4071
   57MOL   C21618248   6.312   0.160   5.080 -0.5802  0.0835  0.2160
   57MOL   C21718249   6.332   0.217   5.206  0.7293  0.5806  0.5692
   57MOL   C21818250   6.461   0.201   5.467  0.3145  0.0286  0.0237
   57MOL   H21918251   6.267   0.129   5.527 -2.0341  0.7214 -0.7280
   57MOL   H22018252   6.155   8.218   5.381  0.4144 -1.5535 -0.9730
   57MOL   H22118253   6.100   8.139   5.157  0.8803  0.1318 -1.2512
   57MOL   H22218254   6.363   0.200   4.993  1.0198 -2.5717 -0.1349
   57MOL   H22318255   6.389   0.308   5.200 -0.0959  1.0414 -0.5243
   57MOL   H22418256   6.506   0.283   5.411 -1.8747  1.3316  0.0897
   57MOL   H22518257   6.483   0.221   5.572 -0.0926 -2.2145  0.5803
   57MOL   C22618258   6.521   0.061   5.450 -0.0852  0.5767 -0.7680
   57MOL   C22718259   6.588   0.045   5.312 -0.2043  0.5862 -0.5248
   57MOL   C22818260   6.695   0.125   5.271  0.1778 -0.0236  0.1787
   57MOL   C22918261   6.743   0.121   5.141  0.4925  0.1511  0.4521
   57MOL   C23018262   6.686   0.024   5.051  0.4320 -0.0807 -0.0706
   57MOL   F23118263   6.742   0.011   4.931  0.3468 -0.4162  0.8821
   57MOL   C23218264   6.588   8.168   5.091  0.2361  0.0106 -0.8041
   57MOL   C23318265   6.538   8.187   5.221  0.4127  0.1027  0.3615
   57MOL   C23418266   6.626   0.024   5.559 -0.5282 -0.1595 -1.0692
   57MOL   H23518267   6.443   8.222   5.468  1.4773 -0.5700  1.5301
   57MOL   H23618268   6.727   0.204   5.337  0.7498  0.8003 -1.0771
   57MOL   H23718269   6.822   0.190   5.116  0.1759  0.9568  1.6516
   57MOL   H23818270   6.548   8.094   5.024 -0.3202 -0.4374  0.0148
   57MOL   H23918271   6.466   8.111   5.248  0.8844 -0.7341 -0.7416
   57MOL   H24018272   6.682   8.173   5.522  0.8965 -0.0744  0.8298
   57MOL   H24118273   6.704   0.100   5.569 -0.5318 -0.3292  0.2853
   57MOL   C24218274   6.568   8.208   5.696  0.0902  0.2850 -0.1595
   57MOL   C24318275   6.452   8.111   5.676 -0.2328  0.2066 -0.7262
   57MOL   C24418276   6.482   7.983   5.619 -0.6224 -0.8592 -0.8435
   57MOL   C24518277   6.382   7.906   5.565 -0.1160  0.0663 -0.0279
   57MOL   C24618278   6.247   7.941   5.573 -0.1119  0.3619  0.1090
   57MOL   F24718279   6.153   7.859   5.513 -0.1455 -0.1169  0.0594
   57MOL   C24818280   6.214   8.063   5.646 -0.4399  0.0898  0.0815
   57MOL   C24918281   6.315   8.148   5.691 -0.2813  0.6083 -0.9035
   57MOL   C25018282   6.680   8.156   5.795 -0.0512 -0.3643  0.4062
   57MOL   H25118283   6.526   0.055   5.755 -0.4641  0.6117 -0.9853
   57MOL   H25218284   6.586   7.957   5.607 -0.3894 -0.3199 -0.0616
   57MOL   H25318285   6.409   7.812   5.519 -0.6192 -0.9834  1.7763
   57MOL   H25418286   6.119   8.114   5.645 -0.8366 -0.6321  0.5395
   57MOL   H25518287   6.289   0.012   5.727 -1.0414  0.1989 -0.3228
   57MOL   H25618288   6.629   8.121   5.885  0.1145  0.3086  0.7683
   57MOL   H25718289   6.732   8.071   5.751  0.9987  1.1904 -1.4473
   57MOL   C25818290   6.787   0.034   5.837 -0.0595 -0.0385 -0.6642
   57MOL   C25918291   6.726   0.153   5.913  0.1004 -0.2010  0.9689
   57MOL   C26018292   6.676   0.140   6.043 -0.3582  0.4583 -0.3341
   57MOL   C26118293   6.622   0.250   6.115  0.4278 -0.1988 -0.0027
   57MOL   C26218294   6.609   0.377   6.050  0.0546  0.6739  0.0458
   57MOL   F26318295   6.556   0.481   6.115  0.0280 -0.0853  0.2142
   57MOL   C26418296   6.650   0.385   5.920  0.6825 -0.4614 -0.2482
   57MOL   C26518297   6.702   0.274   5.847  0.0462 -0.0105 -0.5423
   57MOL   C26618298   6.915   8.210   5.902  0.3034  0.0976 -0.1313
   57MOL   H26718299   6.821   0.088   5.749 -2.6701  3.4418  0.3416
   57MOL   H26818300   6.688   0.051   6.104  4.0032 -0.0075 -1.7259
   57MOL   H26918301   6.579   0.238   6.214  1.4852 -1.4245  0.3067
   57MOL   H27018302   6.642   0.478   5.865  1.2348  0.9310  1.9737
   57MOL   H27118303   6.745   0.293   5.749  1.5400  1.4747  0.3677
   57MOL   H27218304   6.989   0.052   5.927 -0.5605  1.2939 -1.2177
   57MOL   H27318305   6.885   8.161   5.995  0.3572 -0.4384 -0.3940
   57MOL   C27418306   7.002   8.117   5.812  0.0604 -0.7555  0.4879
   57MOL   C27518307   7.015   8.173   5.669  0.6867  0.6758  0.5873
   57MOL   C27618308   6.977   8.089   5.560  0.5224  0.5627 -0.2184
   57MOL   C27718309   6.989   8.136   5.424  0.0159  0.0974  0.1623
   57MOL   C27818310   7.047   0.026   5.404  0.6487 -0.3695 -0.5361
   57MOL   F27918311   7.050   0.086   5.281 -0.3293  0.1212 -0.2295
   57MOL   C28018312   7.088   0.104   5.516 -0.3205 -0.5988  0.1207
   57MOL   C28118313   7.078   0.062   5.646 -0.7101 -0.2176 -0.2581
   57MOL   C28218314   7.135   8.062   5.871 -0.1556  0.5564  0.1002
   57MOL   H28318315   6.934   8.034   5.794  0.0553 -0.3221 -1.5356
   57MOL   H28418316   6.933   7.991   5.571 -0.4051  1.0491  0.3992
   57MOL   H28518317   6.963   8.076   5.339 -2.2439  0.9274  0.2139
   57MOL   H28618318   7.124   0.205   5.502  0.8315 -1.1200 -0.7552
   57MOL   H28718319   7.117   0.125   5.725  1.3342 -0.9102 -0.6809
   57MOL   H28818320   7.188   8.155   5.892 -2.1386  1.8692 -0.5142
   57MOL   H28918321   7.112   8.036   5.974  0.4889  1.9406  0.6098
   57MOL   C29018322   7.225   7.966   5.792 -0.5977 -0.2124 -0.0425
   57MOL   C29118323   7.347   7.930   5.884  0.1952 -0.3889  0.5141
   57MOL   C29218324   7.479   7.962   5.838 -0.3370 -0.6902  0.0604
   57MOL   C29318325   7.587   7.912   5.916  0.0623 -0.4836 -0.3758
   57MOL   C29418326   7.567   7.840   6.033  0.1481 -0.0997  0.5835
   57MOL   F29518327   7.674   7.789   6.101 -0.0730 -0.0560  0.1982
   57MOL   C29618328   7.431   7.816   6.077 -0.7513 -0.2863 -0.6048
   57MOL   C29718329   7.323   7.882   6.014 -0.0665  0.8055 -0.1871
   57MOL   C29818330   7.148   7.841   5.761 -0.4531  0.1998  0.7129
   57MOL   H29918331   7.267   8.018   5.706  2.5404 -1.4081  0.7125
   57MOL   H30018332   7.494   8.005   5.741 -1.5472  0.5027  0.3907
   57MOL   H30118333   7.686   7.932   5.877  0.0048  1.7026  0.5363
   57MOL   H30218334   7.420   7.761   6.169  1.2222  0.9120  0.3749
   57MOL   H30318335   7.221   7.872   6.048  0.5545  1.5059  1.9242
   57MOL   H30418336   7.109   7.804   5.855  1.4475  0.8039  1.7644
   57MOL   H30518337   7.059   7.870   5.705 -1.1895 -2.6566  0.3596
   57MOL   C30618338   7.226   7.739   5.679 -1.1201 -0.1071  0.4611
   57MOL   C30718339   7.160   7.602   5.694  0.2309 -0.9514  0.3562
   57MOL   C30818340   7.208   7.518   5.790  0.9351  0.0164  0.0404
   57MOL   C30918341   7.150   7.390   5.807 -0.1633 -0.1885 -0.4504
   57MOL   C31018342   7.044   7.346   5.724 -0.1127 -0.2529 -0.7017
   57MOL   F31118343   6.990   7.221   5.733  0.3204  0.3085  0.2803
   57MOL   C31218344   6.994   7.439   5.631  0.6240  0.0468  0.1854
   57MOL   C31318345   7.057   7.559   5.615 -0.0485 -0.5889 -0.1420
   57MOL   C31418346   7.271   7.773   5.540  0.1790 -0.1140 -0.2889
   57MOL   H31518347   7.321   7.717   5.728  0.0875  0.6688 -1.4825
   57MOL   H31618348   7.295   7.554   5.842 -0.2079  0.8045  1.4317
   57MOL   H31718349   7.184   7.325   5.886 -0.8384  1.5738  1.3446
   57MOL   H31818350   6.915   7.405   5.567  0.3925 -1.9106  1.4712
   57MOL   H31918351   7.015   7.629   5.545  1.0784  0.8108  0.5546
   57MOL   H32018352   7.344   7.702   5.502 -0.9554 -1.2576 -0.3842
   57MOL   H32118353   7.186   7.788   5.472  1.4097 -0.6841 -1.9782
   57MOL   H32218354   7.319   7.871   5.537  0.8955 -0.4526  0.0805
   58MOL     C118355   1.379   1.694   6.036  0.3691  0.1849 -0.2916
   58MOL     C218356   1.358   1.593   6.140  0.1386  0.2265  0.3731
   58MOL     C318357   1.474   1.529   6.196 -0.4471 -0.2782  0.7147
   58MOL     C418358   1.459   1.434   6.298  0.2384  0.0652 -0.6199
   58MOL     C518359   1.331   1.404   6.342 -0.4250 -0.2559  0.6532
   58MOL     F618360   1.306   1.302   6.422  0.1807  0.2137  0.2543
   58MOL     C718361   1.222   1.467   6.284  0.0947  0.0892 -0.0860
   58MOL     C818362   1.231   1.558   6.182  0.2984  0.4841  0.8106
   58MOL     C918363   1.303   1.664   5.907 -0.2362  0.4389  0.1232
   58MOL    H1018364   1.482   1.685   6.002 -0.1283  0.4298 -1.9101
   58MOL    H1118365   1.575   1.548   6.165  0.1122 -2.0116  1.4254
   58MOL    H1218366   1.538   1.373   6.340  0.2801  1.2732  1.1453
   58MOL    H1318367   1.120   1.440   6.307 -0.3428  1.9181  0.1786
   58MOL    H1418368   1.150   1.600   6.124  1.5669 -2.9703 -3.8129
   58MOL    H1518369   1.316   1.561   5.875 -0.2243  0.1540  1.0143
   58MOL    H1618370   1.198   1.666   5.934 -0.3543  0.1996 -0.3234
   58MOL    H1718371   1.359   1.795   6.071  1.0893  0.2132  0.0587
   58MOL    C1818372   1.327   1.756   5.786 -0.7267  0.0633  0.3989
   58MOL    C1918373   1.469   1.737   5.722 -0.1399 -0.1033  0.1606
   58MOL    C2018374   1.528   1.607   5.711  0.4668 -0.1713 -0.8804
   58MOL    C2118375   1.645   1.598   5.635 -0.5094  0.9219  0.5566
   58MOL    C2218376   1.707   1.712   5.577 -0.0271 -0.4004  0.4843
   58MOL    F2318377   1.811   1.706   5.498  0.0606  0.2496  0.1028
   58MOL    C2418378   1.647   1.834   5.590 -0.2080  0.3249 -0.2365
   58MOL    C2518379   1.527   1.849   5.660  0.4184  0.6028  0.1951
   58MOL    C2618380   1.219   1.733   5.668  0.3774 -0.0700  0.1381
   58MOL    H2718381   1.332   1.862   5.809 -0.7332  0.7117 -2.4444
   58MOL    H2818382   1.485   1.519   5.756  1.1546  0.1070  0.3733
   58MOL    H2918383   1.695   1.507   5.605 -1.5686  0.8058 -0.8900
   58MOL    H3018384   1.704   1.920   5.556 -0.2701  0.2186 -0.6138
   58MOL    H3118385   1.493   1.949   5.682 -1.3918 -0.0987  0.6200
   58MOL    H3218386   1.267   1.707   5.573 -0.9778 -2.6443  0.1083
   58MOL    H3318387   1.163   1.641   5.680  0.0112  0.2482  0.8640
   58MOL    C3418388   1.125   1.853   5.646  0.3370  0.5783 -0.2925
   58MOL    C3518389   1.045   1.833   5.524  0.5602  0.2326 -0.0272
   58MOL    C3618390   0.971   1.714   5.511 -0.1768  0.7225  0.1351
   58MOL    C3718391   0.882   1.696   5.403 -0.7968 -0.2780  0.1411
   58MOL    C3818392   0.869   1.800   5.302  0.2002 -0.2051  0.3207
   58MOL    F3918393   0.787   1.787   5.200  0.3622  0.2633 -0.4028
   58MOL    C4018394   0.940   1.916   5.319  0.4923  0.3375  0.0303
   58MOL    C4118395   1.034   1.929   5.420 -0.0475 -0.5240 -0.5454
   58MOL    C4218396   1.035   1.879   5.773 -0.3560  0.1722 -0.8851
   58MOL    H4318397   1.181   1.943   5.623  0.9128 -0.0282 -1.2653
   58MOL    H4418398   0.956   1.645   5.592  1.2794  0.9349  0.5973
   58MOL    H4518399   0.823   1.606   5.394  0.6636 -1.3307  1.0857
   58MOL    H4618400   0.935   1.997   5.247 -0.0727 -1.6976 -2.2900
   58MOL    H4718401   1.097   2.017   5.424 -1.0610  0.1689  1.6146
   58MOL    H4818402   0.969   1.792   5.781 -0.2192  0.2251  1.0417
   58MOL    H4918403   1.086   1.885   5.869 -0.6242  1.8782 -0.8370
   58MOL    C5018404   0.957   2.012   5.760  0.5540 -1.1573  0.5645
   58MOL    C5118405   0.819   1.991   5.824  0.1079 -0.3017 -0.4819
   58MOL    C5218406   0.811   1.941   5.959  0.7221  0.3639  0.5395
   58MOL    C5318407   0.682   1.899   6.013 -0.3501  0.2494  0.3422
   58MOL    C5418408   0.568   1.934   5.940  0.1746 -0.2047 -0.0786
   58MOL    F5518409   0.447   1.898   5.984 -0.1189 -0.5581 -0.2068
   58MOL    C5618410   0.572   1.999   5.817 -0.3516 -0.9347 -0.0314
   58MOL    C5718411   0.700   2.027   5.759  0.3663  0.1727 -0.6125
   58MOL    C5818412   1.020   2.137   5.831  0.3377 -0.5959 -0.0179
   58MOL    H5918413   0.933   2.025   5.654 -2.5533 -0.6207  1.2931
   58MOL    H6018414   0.902   1.916   6.011  0.7543  0.7541  0.6679
   58MOL    H6118415   0.663   1.860   6.112  1.4159 -1.8421 -0.1254
   58MOL    H6218416   0.487   2.017   5.753  0.3280  0.7015 -0.5005
   58MOL    H6318417   0.708   2.073   5.661  0.5664 -1.8715 -1.5732
   58MOL    H6418418   0.948   2.219   5.820 -0.6526 -1.6114 -1.3179
   58MOL    H6518419   1.023   2.119   5.938 -1.1354  1.1811  0.3458
   58MOL    C6618420   1.166   2.174   5.804 -0.2215 -0.3062 -0.1258
   58MOL    C6718421   1.200   2.211   5.658 -0.6493 -0.0604  0.1993
   58MOL    C6818422   1.332   2.209   5.610  0.2583  0.7762  0.5942
   58MOL    C6918423   1.361   2.228   5.477  0.3887  0.4461  0.3564
   58MOL    C7018424   1.258   2.272   5.389 -0.9524  0.3114  0.1861
   58MOL    F7118425   1.290   2.307   5.259 -0.0435 -0.1129  0.1091
   58MOL    C7218426   1.128   2.278   5.432 -0.4696 -0.1067 -0.3178
   58MOL    C7318427   1.101   2.246   5.565 -0.5031 -0.3966 -0.0234
   58MOL    C7418428   1.210   2.274   5.914  0.5560  0.0811  0.1988
   58MOL    H7518429   1.220   2.084   5.830 -1.1362 -0.6328  0.6456
   58MOL    H7618430   1.407   2.177   5.681  0.9495  1.1066  0.0076
   58MOL    H7718431   1.466   2.222   5.453  1.0130  0.6858  2.8860
   58MOL    H7818432   1.050   2.314   5.365 -2.4346  0.6260  2.2733
   58MOL    H7918433   0.998   2.239   5.597  0.1327 -0.3530  2.0853
   58MOL    H8018434   1.174   2.250   6.014  1.3143 -0.0987  0.4301
   58MOL    H8118435   1.317   2.266   5.931  0.9476 -1.6621 -2.7693
   58MOL    C8218436   1.172   2.418   5.891 -0.4244 -0.0394 -0.1235
   58MOL    C8318437   1.024   2.454   5.879  0.3242  0.4160 -0.7352
   58MOL    C8418438   0.943   2.452   5.997 -0.1034  0.0495  0.9097
   58MOL    C8518439   0.805   2.473   5.979 -0.3854  0.7430  0.1115
   58MOL    C8618440   0.753   2.493   5.852  0.3609 -0.5719  0.2001
   58MOL    F8718441   0.619   2.501   5.833  0.1343 -0.0437  1.0299
   58MOL    C8818442   0.835   2.502   5.738  0.5808 -0.0401 -0.5260
   58MOL    C8918443   0.974   2.490   5.749  0.9178 -0.3067 -0.0898
   58MOL    C9018444   1.247   2.509   5.996 -0.0754  0.4911 -0.1686
   58MOL    H9118445   1.220   2.461   5.803  1.2892  0.4523  1.0269
   58MOL    H9218446   0.986   2.430   6.094  3.0636  2.2646  0.1034
   58MOL    H9318447   0.750   2.471   6.072 -0.9978 -1.3904 -0.2686
   58MOL    H9418448   0.783   2.522   5.646 -1.0610  1.3579  0.6883
   58MOL    H9518449   1.033   2.495   5.658  1.0739 -1.0366 -0.0305
   58MOL    H9618450   1.211   2.489   6.097  0.9190  2.5810  0.6251
   58MOL    H9718451   1.350   2.474   6.000  0.4131  1.9443 -0.0068
   58MOL    C9818452   1.257   2.666   5.972 -0.3246 -0.0827 -0.5314
   58MOL    C9918453   1.128   2.740   6.015 -0.0692 -0.6916  0.0044
   58MOL   C10018454   1.043   2.795   5.914  0.0868  0.0300  0.3340
   58MOL   C10118455   0.928   2.864   5.949  0.1924  0.0230 -0.3145
   58MOL   C10218456   0.886   2.864   6.089  0.7750 -0.6723 -0.1628
   58MOL   F10318457   0.775   2.935   6.128 -0.2894  0.8495 -0.5156
   58MOL   C10418458   0.971   2.809   6.184 -0.0601 -0.6681  0.4960
   58MOL   C10518459   1.095   2.754   6.152  0.6543 -0.2771  0.4812
   58MOL   C10618460   1.384   2.730   6.027  0.2470 -0.1826  0.6172
   58MOL   H10718461   1.259   2.676   5.864 -1.6850 -3.0364 -0.8699
   58MOL   H10818462   1.072   2.776   5.812  0.9115  0.0927  0.5526
   58MOL   H10918463   0.871   2.907   5.868 -0.6241 -0.5094 -0.0297
   58MOL   H11018464   0.946   2.821   6.289 -0.0707 -1.1863  0.5585
   58MOL   H11118465   1.156   2.704   6.226 -1.8361 -0.6547  2.3196
   58MOL   H11218466   1.374   2.836   6.004 -0.3882 -0.2048  0.7877
   58MOL   H11318467   1.399   2.715   6.134 -0.4804 -1.7103  0.5110
   58MOL   C11418468   1.512   2.685   5.950 -0.4533  0.2092 -0.3926
   58MOL   C11518469   1.500   2.693   5.795  0.0861 -0.2978  0.6327
   58MOL   C11618470   1.490   2.571   5.718 -0.9443  0.1921  0.4748
   58MOL   C11718471   1.495   2.580   5.571  0.0384 -0.0640 -0.0792
   58MOL   C11818472   1.513   2.705   5.505 -0.0269  0.6362 -0.0295
   58MOL   F11918473   1.534   2.704   5.372  0.0687 -0.4960 -0.4002
   58MOL   C12018474   1.505   2.824   5.588  0.3644  0.5921  0.2950
   58MOL   C12118475   1.501   2.815   5.726 -0.1497  0.1133 -0.4279
   58MOL   C12218476   1.631   2.769   6.005  0.7896 -0.6247  0.0947
   58MOL   H12318477   1.531   2.582   5.978 -1.8063  0.4415  1.4433
   58MOL   H12418478   1.476   2.472   5.759  2.5116 -0.0167  1.3033
   58MOL   H12518479   1.504   2.490   5.511 -0.3815  0.9925 -1.7574
   58MOL   H12618480   1.519   2.918   5.538 -2.1273 -0.3710 -2.4033
   58MOL   H12718481   1.511   2.908   5.779 -1.4146  0.3078 -0.5135
   58MOL   H12818482   1.715   2.750   5.939  1.0955 -2.2626  0.9411
   58MOL   H12918483   1.602   2.872   5.982  2.0855  0.0345  1.3535
   58MOL   C13018484   1.667   2.736   6.149 -0.2507 -0.1531  0.6392
   58MOL   C13118485   1.704   2.586   6.175  0.3371 -0.0480  0.2076
   58MOL   C13218486   1.826   2.530   6.121 -0.5005  0.2058  0.0220
   58MOL   C13318487   1.851   2.388   6.139  0.4009 -0.3085 -0.4947
   58MOL   C13418488   1.757   2.313   6.214 -0.2482 -0.0549  0.9160
   58MOL   F13518489   1.778   2.185   6.247 -0.1918 -0.1940  0.6188
   58MOL   C13618490   1.642   2.374   6.273  0.8754 -0.2453  0.2667
   58MOL   C13718491   1.615   2.511   6.262  0.2501  0.3183  0.6570
   58MOL   C13818492   1.775   2.831   6.199  0.4402 -0.1150  0.3882
   58MOL   H13918493   1.583   2.753   6.216 -1.0646 -0.5660 -0.2678
   58MOL   H14018494   1.905   2.588   6.074  1.0151 -0.6865  1.4003
   58MOL   H14118495   1.942   2.342   6.103 -0.2838 -2.6844  0.7306
   58MOL   H14218496   1.569   2.319   6.331  0.6446  0.0136  0.2214
   58MOL   H14318497   1.522   2.544   6.307 -0.2592  1.0065 -0.8522
   58MOL   H14418498   1.872   2.812   6.153  1.2761  1.0413  1.6267
   58MOL   H14518499   1.764   2.927   6.147  3.7984 -0.5606 -1.2862
   58MOL   C14618500   1.788   2.847   6.354  0.6254  0.0610 -0.0803
   58MOL   C14718501   1.844   2.722   6.429  0.6922 -0.8655  0.8404
   58MOL   C14818502   1.756   2.646   6.500 -0.8493 -0.0972 -0.3026
   58MOL   C14918503   1.809   2.535   6.574  0.5724 -0.9205  0.1355
   58MOL   C15018504   1.948   2.511   6.581 -0.4843 -0.2951  0.5187
   58MOL   F15118505   2.001   2.420   6.661 -0.0406 -0.3055  0.2064
   58MOL   C15218506   2.036   2.581   6.490  0.2665 -0.0531  0.2724
   58MOL   C15318507   1.984   2.689   6.417 -0.2931  0.6907 -0.0088
   58MOL   C15418508   1.868   2.971   6.403  0.6373  0.0222  0.4001
   58MOL   H15518509   1.684   2.852   6.388 -0.0059 -1.2866 -1.7405
   58MOL   H15618510   1.650   2.664   6.504 -0.9627 -0.6180 -0.9654
   58MOL   H15718511   1.747   2.484   6.646  0.1436 -0.4854  0.0840
   58MOL   H15818512   2.141   2.557   6.482  0.3848  0.1519  1.1298
   58MOL   H15918513   2.042   2.754   6.352 -0.5978  1.1585  0.1870
   58MOL   H16018514   1.974   2.949   6.398  0.5014 -0.4972 -0.2181
   58MOL   H16118515   1.854   3.058   6.338 -0.9045  0.5343  1.3641
   58MOL   C16218516   1.832   3.024   6.540 -0.0867 -0.4767 -0.0830
   58MOL   C16318517   1.928   3.135   6.574 -0.3314 -0.8125 -0.6529
   58MOL   C16418518   1.907   3.270   6.535  0.4832 -0.7592  0.9441
   58MOL   C16518519   2.007   3.364   6.549 -0.2652  0.3973 -0.1643
   58MOL   C16618520   2.131   3.319   6.600  0.3353 -0.3628 -0.1497
   58MOL   F16718521   2.223   3.418   6.611  0.0266  0.0150 -0.3630
   58MOL   C16818522   2.155   3.192   6.647  0.6867  0.5260  0.1841
   58MOL   C16918523   2.051   3.099   6.631 -0.6442 -0.3260 -0.3688
   58MOL   C17018524   1.682   3.052   6.560  0.0375  0.1618 -0.1373
   58MOL   H17118525   1.862   2.945   6.609 -0.0089 -0.7361 -0.4158
   58MOL   H17218526   1.816   3.300   6.486  0.5019 -1.3333  0.5472
   58MOL   H17318527   1.977   3.465   6.522 -0.5264  0.0902 -1.0622
   58MOL   H17418528   2.253   3.161   6.679  0.7512 -1.2899 -1.6933
   58MOL   H17518529   2.077   2.998   6.662 -1.7128  0.6356  3.9160
   58MOL   H17618530   1.645   3.102   6.471  0.0994 -1.3783 -1.0494
   58MOL   H17718531   1.625   2.959   6.563  1.7883 -0.9766 -1.6326
   58MOL   C17818532   1.648   3.134   6.688 -0.3400  0.4757 -0.1442
   58MOL   C17918533   1.495   3.165   6.679  0.3843  0.7128  0.0426
   58MOL   C18018534   1.396   3.076   6.725 -0.4393 -0.0257 -1.0072
   58MOL   C18118535   1.259   3.094   6.704  0.1233 -0.1665  0.9192
   58MOL   C18218536   1.228   3.200   6.624  0.4366 -0.4596 -0.1256
   58MOL   F18318537   1.103   3.212   6.587 -0.3254  0.4555 -0.5034
   58MOL   C18418538   1.316   3.298   6.586  0.1002  0.9660  0.4182
   58MOL   C18518539   1.452   3.286   6.621  0.5581 -0.5108 -0.3280
   58MOL   C18618540   1.687   3.049   6.820  0.1107  0.0403 -0.3455
   58MOL   H18718541   1.705   3.227   6.695 -1.1965  1.1163 -1.3964
   58MOL   H18818542   1.425   2.993   6.788 -1.9661  1.9254  2.4403
   58MOL   H18918543   1.192   3.017   6.738 -1.6070  0.1880 -1.6112
   58MOL   H19018544   1.274   3.382   6.533 -1.0411  0.8327  1.0917
   58MOL   H19118545   1.529   3.356   6.592  0.0323  0.6357  0.9394
   58MOL   H19218546   1.638   2.952   6.806  0.8023 -0.5090  1.0126
   58MOL   H19318547   1.793   3.023   6.817  0.2498  0.7027 -1.7495
   58MOL   C19418548   1.661   3.126   6.946 -0.1580 -0.1476 -0.1534
   58MOL   C19518549   1.630   3.025   7.057 -0.0347  0.1524  0.2011
   58MOL   C19618550   1.493   3.006   7.103 -0.2753  0.2639 -0.0297
   58MOL   C19718551   1.472   2.909   7.201  0.5664 -0.0024 -0.4311
   58MOL   C19818552   1.572   2.820   7.240  0.0392 -0.2935 -0.7183
   58MOL   F19918553   1.541   2.716   7.316 -0.1446 -0.0792  0.3545
   58MOL   C20018554   1.706   2.843   7.196 -1.0159 -0.6090  0.4090
   58MOL   C20118555   1.737   2.945   7.108 -0.2400  0.3846 -0.1430
   58MOL   C20218556   1.788   3.213   6.983 -0.6611 -0.1355 -0.4370
   58MOL   H20318557   1.575   3.192   6.935  0.2393  0.1682 -1.4873
   58MOL   H20418558   1.415   3.073   7.070  0.3220  0.8961 -0.1379
   58MOL   H20518559   1.378   2.902   7.254  0.4533  0.7983 -0.5111
   58MOL   H20618560   1.793   2.793   7.237 -0.7098 -1.6694 -1.5065
   58MOL   H20718561   1.841   2.971   7.096  0.1214 -0.7486  0.4409
   58MOL   H20818562   1.881   3.156   6.972 -0.8529 -0.2681 -1.4252
   58MOL   H20918563   1.798   3.294   6.911  0.6469  1.6260  1.6484
   58MOL   C21018564   1.793   3.269   7.129  0.1963  0.4559  0.2058
   58MOL   C21118565   1.935   3.278   7.173 -0.8314 -0.5412  0.3998
   58MOL   C21218566   2.039   3.333   7.093  0.1639 -1.5158  0.5778
   58MOL   C21318567   2.170   3.337   7.136  0.1550  0.2065  0.6607
   58MOL   C21418568   2.209   3.284   7.262 -0.1993  0.2547  0.0052
   58MOL   F21518569   2.331   3.290   7.303 -0.1109  0.0793 -0.1804
   58MOL   C21618570   2.110   3.243   7.350 -0.2148  0.8129 -0.1403
   58MOL   C21718571   1.977   3.232   7.303  0.1651  1.4372  0.1069
   58MOL   C21818572   1.708   3.394   7.152 -0.5787  0.0112  0.2444
   58MOL   H21918573   1.754   3.194   7.197  1.0225  1.3559  1.6894
   58MOL   H22018574   2.020   3.379   6.997  0.6028 -1.5852  0.4558
   58MOL   H22118575   2.250   3.366   7.070  1.8401 -1.0856  2.0793
   58MOL   H22218576   2.134   3.197   7.445 -2.1102 -0.2946 -0.1524
   58MOL   H22318577   1.907   3.188   7.373  1.9486  0.6809  1.4496
   58MOL   H22418578   1.609   3.379   7.111 -1.4419  1.3876  1.7522
   58MOL   H22518579   1.690   3.395   7.260  0.0771  1.7502  0.3498
   58MOL   C22618580   1.774   3.532   7.113  0.9683 -0.1661  0.5165
   58MOL   C22718581   1.769   3.558   6.964 -0.2019  0.1937 -0.3117
   58MOL   C22818582   1.888   3.599   6.900  0.3631  0.3010 -0.2231
   58MOL   C22918583   1.894   3.627   6.762  0.4280  0.7508 -0.4861
   58MOL   C23018584   1.777   3.611   6.679 -0.1574  0.4029 -0.1040
   58MOL   F23118585   1.780   3.645   6.548 -0.4619  0.1214 -0.1273
   58MOL   C23218586   1.655   3.579   6.745 -0.3653  0.3520  0.0432
   58MOL   C23318587   1.649   3.546   6.885 -0.0384 -0.3117 -0.5270
   58MOL   C23418588   1.715   3.653   7.203 -0.4924  0.2203  0.3962
   58MOL   H23518589   1.882   3.524   7.128  1.3758  0.6713 -1.7897
   58MOL   H23618590   1.981   3.613   6.953 -0.9711  1.9667  1.7507
   58MOL   H23718591   1.988   3.652   6.714  1.0312 -0.8670 -0.1962
   58MOL   H23818592   1.562   3.577   6.689 -0.3389  2.8295 -0.1204
   58MOL   H23918593   1.559   3.511   6.932 -1.3859  0.2932 -2.5943
   58MOL   H24018594   1.745   3.742   7.148 -2.7218  0.4577 -0.5068
   58MOL   H24118595   1.606   3.656   7.201 -0.4371  2.4672 -1.6946
   58MOL   C24218596   1.766   3.670   7.346 -1.0247  0.4918  0.0567
   58MOL   C24318597   1.918   3.661   7.353  0.9449 -0.4797  0.0056
   58MOL   C24418598   2.005   3.746   7.282  0.2971 -1.1570 -0.6587
   58MOL   C24518599   2.146   3.726   7.287  0.5432  0.3233 -0.2579
   58MOL   C24618600   2.197   3.626   7.369  0.1732 -0.1675 -0.6428
   58MOL   F24718601   2.329   3.603   7.368  0.2319  0.2188 -0.5269
   58MOL   C24818602   2.113   3.543   7.439 -0.0384 -0.3083  0.3722
   58MOL   C24918603   1.972   3.550   7.427 -0.3751 -0.8619 -0.2983
   58MOL   C25018604   1.716   3.807   7.410 -0.6794  0.5687  0.7279
   58MOL   H25118605   1.726   3.584   7.400  0.3957  0.1103  0.5156
   58MOL   H25218606   1.962   3.828   7.226  1.2147 -0.4527 -0.3570
   58MOL   H25318607   2.219   3.774   7.224  0.4012 -1.4447 -1.8125
   58MOL   H25418608   2.167   3.462   7.485 -0.4743 -0.9183 -0.1783
   58MOL   H25518609   1.903   3.477   7.466  0.6783 -0.6071  2.1741
   58MOL   H25618610   1.777   3.890   7.373 -0.9098  0.0423 -0.8517
   58MOL   H25718611   1.614   3.821   7.375  0.4011 -0.7931 -3.1834
   58MOL   C25818612   1.721   3.816   7.567  0.5764 -0.3867 -0.4503
   58MOL   C25918613   1.856   3.776   7.636  0.4673  0.0194  0.3691
   58MOL   C26018614   1.872   3.652   7.707  0.1519 -0.5245  0.4447
   58MOL   C26118615   1.995   3.614   7.763 -0.6774 -0.3047 -0.4460
   58MOL   C26218616   2.104   3.704   7.748  0.4553  0.2840 -0.8975
   58MOL   F26318617   2.228   3.677   7.797  0.1291  0.1552 -0.1243
   58MOL   C26418618   2.090   3.824   7.678  0.2623 -0.2658  0.0631
   58MOL   C26518619   1.964   3.864   7.621 -0.0860 -0.0599 -0.6123
   58MOL   C26618620   1.680   3.960   7.614  0.8360  0.0946  0.1187
   58MOL   H26718621   1.646   3.749   7.610  1.9369 -0.7609  1.3645
   58MOL   H26818622   1.784   3.590   7.702 -0.7713  0.7537  0.5430
   58MOL   H26918623   2.007   3.517   7.808  0.7712 -0.1735 -0.5356
   58MOL   H27018624   2.169   3.898   7.669 -1.0599  1.0175 -1.3442
   58MOL   H27118625   1.960   3.957   7.566 -0.1023  1.9836  2.6762
   58MOL   H27218626   1.720   3.983   7.712  0.6793 -0.3014  0.2735
   58MOL   H27318627   1.734   4.038   7.560 -0.5778  1.5490  0.7579
   58MOL   C27418628   1.535   3.995   7.644 -0.4553  0.1945  0.1529
   58MOL   C27518629   1.446   3.878   7.687  0.0173  0.1704  0.0778
   58MOL   C27618630   1.463   3.827   7.816  0.2616  0.1000 -0.3378
   58MOL   C27718631   1.385   3.721   7.862 -0.5737  0.1815 -0.2176
   58MOL   C27818632   1.290   3.663   7.774 -0.2310 -0.0309  0.1035
   58MOL   F27918633   1.203   3.564   7.815  0.0962 -0.3186 -0.1944
   58MOL   C28018634   1.284   3.700   7.637  0.1619  0.4984 -0.0179
   58MOL   C28118635   1.365   3.805   7.600 -0.2205 -0.5427  0.2011
   58MOL   C28218636   1.522   4.121   7.736  0.6985  0.2465 -0.2561
   58MOL   H28318637   1.498   4.013   7.543 -1.2670  0.1117  0.4314
   58MOL   H28418638   1.533   3.865   7.890  1.3992 -1.7599 -0.4283
   58MOL   H28518639   1.394   3.685   7.964 -2.2051 -1.0769 -0.5002
   58MOL   H28618640   1.231   3.630   7.574  1.8237 -2.7115  1.9786
   58MOL   H28718641   1.368   3.825   7.493 -0.9920  0.9887  0.4592
   58MOL   H28818642   1.560   4.103   7.836 -1.3937 -0.0017  0.5136
   58MOL   H28918643   1.594   4.196   7.701  0.0098  1.4566  0.9113
   58MOL   C29018644   1.384   4.190   7.737 -0.2947  0.3566  0.2727
   58MOL   C29118645   1.282   4.106   7.809  0.0899  0.2639 -0.8342
   58MOL   C29218646   1.186   4.037   7.730 -0.2622 -0.7284 -0.3433
   58MOL   C29318647   1.082   3.966   7.796 -0.6060  0.1549 -0.0416
   58MOL   C29418648   1.076   3.951   7.939  0.2778 -0.7182 -0.3886
   58MOL   F29518649   0.972   3.883   7.994 -0.7426 -0.1624  0.6088
   58MOL   C29618650   1.168   4.023   8.011  0.4612  0.2738  0.7656
   58MOL   C29718651   1.275   4.095   7.950 -0.0757  0.3909  0.0822
   58MOL   C29818652   1.387   4.336   7.791  0.2484 -0.5432 -0.3754
   58MOL   H29918653   1.343   4.202   7.637 -0.7841  0.8335  0.5274
   58MOL   H30018654   1.197   4.046   7.623  1.5029 -2.1589 -0.3144
   58MOL   H30118655   0.996   3.921   7.751 -1.5395 -1.0477  2.8102
   58MOL   H30218656   1.165   4.010   8.118  0.6033  1.6076  0.9424
   58MOL   H30318657   1.343   4.155   8.009 -0.0924 -1.2335  1.8068
   58MOL   H30418658   1.283   4.354   7.819  0.7323  2.6804 -0.5516
   58MOL   H30518659   1.439   4.340   7.887 -0.6055 -0.1948  0.0747
   58MOL   C30618660   1.434   4.447   7.698 -0.6445  0.1838 -0.1638
   58MOL   C30718661   1.390   4.429   7.561  0.4103  0.2188 -0.2750
   58MOL   C30818662   1.478   4.393   7.457  0.6846 -0.0511 -0.1023
   58MOL   C30918663   1.431   4.382   7.326 -0.3038 -0.5599  0.6689
   58MOL   C31018664   1.293   4.392   7.299  0.8451  0.3154 -0.7220
   58MOL   F31118665   1.239   4.389   7.171  0.2947  0.3388  0.3382
   58MOL   C31218666   1.204   4.409   7.407  0.3756  0.2630  0.1887
   58MOL   C31318667   1.246   4.439   7.531 -0.7599  0.0266 -0.2125
   58MOL   C31418668   1.426   4.588   7.756 -0.1204 -0.1545 -0.0120
   58MOL   H31518669   1.542   4.432   7.691 -0.4163  2.4745 -2.3636
   58MOL   H31618670   1.579   4.361   7.482  0.9232  0.5674 -0.2718
   58MOL   H31718671   1.508   4.374   7.251  0.9683  0.5447  1.8288
   58MOL   H31818672   1.099   4.403   7.383  0.2129  1.3274  0.5994
   58MOL   H31918673   1.172   4.471   7.603 -0.0858 -2.2194  1.5293
   58MOL   H32018674   1.500   4.656   7.715  0.1478  0.8695  2.0922
   58MOL   H32118675   1.325   4.626   7.738 -1.0793 -2.7734 -0.3613
   58MOL   H32218676   1.429   4.602   7.864 -0.9528  1.8678 -0.2228
   59MOL     C118677   1.407   3.808   6.951  0.1149 -0.3242 -0.0124
   59MOL     C218678   1.476   3.919   7.031 -0.5227  0.5046  0.0116
   59MOL     C318679   1.612   3.954   7.007 -0.4045  0.6905  0.5646
   59MOL     C418680   1.682   4.048   7.090 -0.4383  0.2817  0.0233
   59MOL     C518681   1.619   4.080   7.211  0.1635 -0.0911 -0.4909
   59MOL     F618682   1.692   4.149   7.297  0.1744  0.1463 -0.5877
   59MOL     C718683   1.482   4.045   7.237  0.5828  0.1191  0.2927
   59MOL     C818684   1.412   3.968   7.144 -0.3392 -0.0817 -0.2354
   59MOL     C918685   1.263   3.838   6.904  0.0969 -0.0599  0.4532
   59MOL    H1018686   1.406   3.724   7.020  0.1572  1.4950  2.2463
   59MOL    H1118687   1.657   3.911   6.918  2.9612  0.7004  2.2106
   59MOL    H1218688   1.783   4.074   7.064 -0.2063  0.0782  0.6905
   59MOL    H1318689   1.435   4.082   7.327  2.0952  2.3971  0.1906
   59MOL    H1418690   1.311   3.945   7.173 -0.6582 -0.4905 -1.6536
   59MOL    H1518691   1.199   3.857   6.991  0.6711 -0.8634  1.0556
   59MOL    H1618692   1.261   3.923   6.835  0.8600 -2.4189 -2.5462
   59MOL    H1718693   1.473   3.790   6.866 -0.8055  0.4205 -0.9097
   59MOL    C1818694   1.204   3.720   6.827  0.0033  0.4326 -0.3770
   59MOL    C1918695   1.193   3.603   6.922  0.0055 -0.0613  0.5964
   59MOL    C2018696   1.280   3.492   6.916  0.4588  0.8861  0.4215
   59MOL    C2118697   1.255   3.380   7.003  0.1368 -0.1830  0.7426
   59MOL    C2218698   1.140   3.376   7.085  0.6496 -0.3162  0.1087
   59MOL    F2318699   1.116   3.276   7.165 -0.3459  0.3110 -0.1450
   59MOL    C2418700   1.063   3.489   7.096 -0.2291 -0.4639  1.1063
   59MOL    C2518701   1.075   3.599   7.005 -0.5462 -0.1464 -0.1002
   59MOL    C2618702   1.066   3.748   6.769 -0.2459 -0.5307  0.2633
   59MOL    H2718703   1.272   3.689   6.748 -0.4794 -1.3594 -0.1207
   59MOL    H2818704   1.362   3.485   6.845  1.4179  0.4911  1.5555
   59MOL    H2918705   1.326   3.302   6.984  0.2524  0.8258 -3.3494
   59MOL    H3018706   0.989   3.494   7.175  1.7989  0.7451  2.9657
   59MOL    H3118707   1.002   3.678   7.014  0.1477  0.5201 -0.2969
   59MOL    H3218708   0.991   3.669   6.768 -2.2614  1.3395 -0.6405
   59MOL    H3318709   1.013   3.806   6.844 -2.9549  0.4421 -2.3344
   59MOL    C3418710   1.051   3.818   6.636 -0.0703 -0.8514 -0.0689
   59MOL    C3518711   1.069   3.737   6.512 -0.3512 -0.3741 -0.0616
   59MOL    C3618712   1.078   3.799   6.389 -0.3342  0.0201 -0.0503
   59MOL    C3718713   1.088   3.725   6.274 -0.4020 -0.3054  0.3413
   59MOL    C3818714   1.089   3.583   6.275  0.2671  0.2006 -0.1426
   59MOL    F3918715   1.093   3.522   6.155 -0.0770  0.2013  0.0314
   59MOL    C4018716   1.087   3.514   6.398 -0.2840  0.4998  0.0527
   59MOL    C4118717   1.059   3.593   6.515  0.3868 -0.3910 -0.8101
   59MOL    C4218718   0.926   3.905   6.624 -0.1135  0.2079 -0.2850
   59MOL    H4318719   1.144   3.875   6.633  0.0054 -0.8681  1.5883
   59MOL    H4418720   1.066   3.906   6.384 -2.1773 -0.0876  1.5066
   59MOL    H4518721   1.092   3.778   6.180  0.0853 -0.3375  0.3383
   59MOL    H4618722   1.077   3.406   6.400  1.2005  0.3618  0.3072
   59MOL    H4718723   1.043   3.543   6.610  1.3332  1.0524  0.1327
   59MOL    H4818724   0.906   3.974   6.705  0.7708  0.0595  0.0657
   59MOL    H4918725   0.944   3.981   6.548  0.6831 -1.1382 -1.4729
   59MOL    C5018726   0.787   3.822   6.591  0.9340 -0.2862 -0.5401
   59MOL    C5118727   0.695   3.806   6.705  0.1944 -0.0851 -0.2987
   59MOL    C5218728   0.653   3.919   6.771  0.6288 -0.4696 -0.0613
   59MOL    C5318729   0.548   3.907   6.865  0.2085 -0.1353  0.0618
   59MOL    C5418730   0.506   3.783   6.909  0.3448 -0.3527  0.2705
   59MOL    F5518731   0.423   3.777   7.016  0.3920 -0.1894 -0.0551
   59MOL    C5618732   0.559   3.666   6.850  0.0700 -0.2865 -0.1257
   59MOL    C5718733   0.651   3.678   6.744  0.2719 -0.5235 -0.1631
   59MOL    C5818734   0.728   3.890   6.465 -0.0264 -0.3405 -0.6698
   59MOL    H5918735   0.809   3.716   6.575 -0.9303 -0.8017  0.1547
   59MOL    H6018736   0.689   4.017   6.742 -0.5907  0.0249  0.0829
   59MOL    H6118737   0.500   3.994   6.907 -3.0440 -0.9459 -1.8467
   59MOL    H6218738   0.535   3.565   6.879 -1.3261  0.5845  1.9225
   59MOL    H6318739   0.684   3.592   6.688  2.7658  0.8654 -0.9528
   59MOL    H6418740   0.715   3.997   6.485  0.1588 -0.1731 -1.4256
   59MOL    H6518741   0.809   3.894   6.392  1.0500 -1.3824  0.4442
   59MOL    C6618742   0.601   3.823   6.407  0.2722  0.8785  0.4363
   59MOL    C6718743   0.529   3.919   6.306 -0.3647  0.4308  0.6222
   59MOL    C6818744   0.559   3.925   6.167  0.7024 -0.3604  0.0264
   59MOL    C6918745   0.487   4.010   6.079  0.0367 -0.3907 -0.5710
   59MOL    C7018746   0.380   4.084   6.128 -0.3416  0.0497 -0.1218
   59MOL    F7118747   0.312   4.162   6.050  0.0055  0.5199  0.3366
   59MOL    C7218748   0.354   4.082   6.266 -0.2402  0.3175  0.0881
   59MOL    C7318749   0.429   4.001   6.353 -0.1098 -0.4552  0.7505
   59MOL    C7418750   0.630   3.685   6.338  0.6162 -0.5288  0.3891
   59MOL    H7518751   0.525   3.803   6.483 -1.1799  1.9921 -0.6746
   59MOL    H7618752   0.648   3.877   6.131  0.9106 -0.9013  1.2365
   59MOL    H7718753   0.519   4.023   5.977  0.7875 -0.7888 -0.3917
   59MOL    H7818754   0.270   4.139   6.302  0.4190  0.1249  1.9951
   59MOL    H7918755   0.420   4.010   6.460  1.0205  0.9214  0.7553
   59MOL    H8018756   0.662   3.703   6.236 -0.8301  0.2886  0.0596
   59MOL    H8118757   0.723   3.651   6.382  0.4418  0.6348  1.7297
   59MOL    C8218758   0.509   3.587   6.322 -0.3291  0.0879 -0.2517
   59MOL    C8318759   0.548   3.472   6.231 -0.8563  0.4171 -0.3551
   59MOL    C8418760   0.475   3.435   6.119 -0.5801  1.2582  0.6383
   59MOL    C8518761   0.516   3.325   6.042 -0.1613 -0.2694 -0.3945
   59MOL    C8618762   0.639   3.263   6.075  0.4956  0.0615 -0.0747
   59MOL    F8718763   0.696   3.167   5.999  0.0751  0.1917  0.0232
   59MOL    C8818764   0.716   3.304   6.185 -0.2027  0.2982  0.4294
   59MOL    C8918765   0.669   3.408   6.260 -0.2740  0.0401 -0.4562
   59MOL    C9018766   0.446   3.534   6.451 -0.1541  0.6447  0.7338
   59MOL    H9118767   0.431   3.640   6.267  1.1662  2.0233 -0.5540
   59MOL    H9218768   0.387   3.487   6.085  0.5304  1.6120 -1.8484
   59MOL    H9318769   0.472   3.293   5.948 -0.8491  1.4010 -0.6476
   59MOL    H9418770   0.813   3.259   6.197  0.6618  1.8469 -0.5636
   59MOL    H9518771   0.718   3.433   6.353  0.9402 -2.8574 -0.2428
   59MOL    H9618772   0.522   3.473   6.501  0.6413  0.8481 -0.2055
   59MOL    H9718773   0.441   3.612   6.526  1.6400  0.1703  1.3529
   59MOL    C9818774   0.310   3.454   6.435 -0.0488 -0.1195 -0.7956
   59MOL    C9918775   0.308   3.314   6.493  1.3565  0.3013  0.9231
   59MOL   C10018776   0.274   3.294   6.630 -0.6981 -0.5380 -1.1371
   59MOL   C10118777   0.281   3.160   6.676  0.7623 -0.9429 -0.2062
   59MOL   C10218778   0.310   3.050   6.593  0.3684 -0.4878  0.1727
   59MOL   F10318779   0.297   2.922   6.639 -0.1577 -0.1386 -0.6086
   59MOL   C10418780   0.338   3.075   6.464 -0.2523  0.0160  0.5498
   59MOL   C10518781   0.344   3.206   6.411  1.2556 -0.2649 -0.4272
   59MOL   C10618782   0.186   3.535   6.493  0.0793  0.3854  0.5112
   59MOL   H10718783   0.281   3.442   6.330 -1.2208 -1.1408 -0.3629
   59MOL   H10818784   0.243   3.380   6.688  1.0566  0.7729 -2.0725
   59MOL   H10918785   0.259   3.128   6.777  0.9348 -0.2869  0.0391
   59MOL   H11018786   0.358   2.995   6.394  2.8782 -0.1522  1.5511
   59MOL   H11118787   0.375   3.230   6.310  0.6172  0.2234 -0.5086
   59MOL   H11218788   0.100   3.474   6.520  1.9833 -2.6516 -0.0494
   59MOL   H11318789   0.225   3.571   6.588 -0.6764 -0.9932  1.3617
   59MOL   C11418790   0.139   3.657   6.405 -0.4002  0.2418  0.0226
   59MOL   C11518791   0.131   3.627   6.254  0.4945  0.2229  0.4480
   59MOL   C11618792   0.070   3.501   6.217  0.1612  0.1097  0.0668
   59MOL   C11718793   0.044   3.474   6.082  0.7049 -0.9433 -1.4017
   59MOL   C11818794   0.066   3.571   5.986 -0.0964  0.0103  0.2755
   59MOL   F11918795   0.023   3.545   5.857 -0.0170 -0.2180  0.7308
   59MOL   C12018796   0.131   3.692   6.023 -0.3591  0.3048 -0.1094
   59MOL   C12118797   0.161   3.718   6.156  0.2175  0.2856 -0.0688
   59MOL   C12218798   0.009   3.720   6.454  0.0879  0.0572 -0.2728
   59MOL   H12318799   0.214   3.733   6.422  0.1005  0.3348 -2.4279
   59MOL   H12418800   0.035   3.433   6.293  0.2772  1.0050  0.9360
   59MOL   H12518801   8.230   3.381   6.057 -1.1664 -0.7829  1.3703
   59MOL   H12618802   0.152   3.763   5.944  1.0847 -1.6745 -1.5761
   59MOL   H12718803   0.214   3.809   6.174  1.0593 -0.1541 -0.3023
   59MOL   H12818804   8.203   3.791   6.381  0.2716  0.3941 -0.0474
   59MOL   H12918805   8.171   3.639   6.444 -0.0231  0.2368 -0.9701
   59MOL   C13018806   0.015   3.784   6.594  0.3185  0.0344 -0.5303
   59MOL   C13118807   0.091   3.919   6.601 -0.2623 -0.6252 -0.0240
   59MOL   C13218808   0.213   3.934   6.671  0.1554  0.6081 -0.4569
   59MOL   C13318809   0.280   4.056   6.661 -0.4711  0.0354 -0.2015
   59MOL   C13418810   0.222   4.160   6.586 -0.4660 -0.8846  0.1592
   59MOL   F13518811   0.288   4.279   6.588  0.0763 -0.0181 -0.0094
   59MOL   C13618812   0.107   4.147   6.513  0.3865  0.4835  0.0690
   59MOL   C13718813   0.037   4.025   6.519  0.0224 -0.3129 -0.3446
   59MOL   C13818814   8.109   3.800   6.654 -0.2659 -0.0960 -0.2665
   59MOL   H13918815   0.048   3.706   6.663 -1.8525 -0.9305 -0.5784
   59MOL   H14018816   0.252   3.846   6.722  0.3066  0.8960 -0.0755
   59MOL   H14118817   0.369   4.060   6.723 -1.1905  0.6675  0.8039
   59MOL   H14218818   0.082   4.227   6.446  0.3915  1.7737  1.5712
   59MOL   H14318819   8.181   4.015   6.461  0.5150  3.2940 -1.8631
   59MOL   H14418820   8.044   3.840   6.576 -1.8567 -2.6538 -0.2773
   59MOL   H14518821   8.077   3.701   6.686  0.8586  0.1852  1.8773
   59MOL   C14618822   8.096   3.898   6.775 -0.2184 -0.0782 -0.5869
   59MOL   C14718823   7.950   3.914   6.803  0.1709  0.2504  0.2659
   59MOL   C14818824   7.876   3.993   6.708  0.3478 -0.2512 -0.6529
   59MOL   C14918825   7.745   4.012   6.728  0.7581  0.8246  0.0311
   59MOL   C15018826   7.682   3.962   6.839  0.4554  0.0125  0.4915
   59MOL   F15118827   7.550   3.973   6.866 -0.0043  0.2063 -0.3526
   59MOL   C15218828   7.755   3.877   6.928  0.4602  0.0583 -0.6364
   59MOL   C15318829   7.889   3.857   6.914 -0.3194  0.4904  0.6434
   59MOL   C15418830   8.173   3.851   6.898  0.3066 -0.0862  0.2149
   59MOL   H15518831   8.134   3.998   6.755 -0.5743  0.5430  1.6314
   59MOL   H15618832   7.921   4.044   6.623  0.0517 -0.8474 -1.1658
   59MOL   H15718833   7.694   4.086   6.668  2.9562  1.0221 -1.6522
   59MOL   H15818834   7.699   3.845   7.015  1.8001 -0.0170  0.2254
   59MOL   H15918835   7.943   3.813   6.996  1.0252  1.4457  0.2879
   59MOL   H16018836   8.143   3.749   6.923  2.8312 -1.1775 -0.9759
   59MOL   H16118837   0.041   3.835   6.864  1.6161  2.7381  2.6444
   59MOL   C16218838   8.191   3.941   7.021  0.6694  0.5341 -0.4729
   59MOL   C16318839   0.013   3.857   7.134 -0.1639  0.2402 -0.4738
   59MOL   C16418840   0.153   3.848   7.157  0.6213  0.2086  0.3442
   59MOL   C16518841   0.199   3.778   7.272  0.1592  0.6879  0.6000
   59MOL   C16618842   0.109   3.716   7.365 -0.1408  0.5041 -0.4659
   59MOL   F16718843   0.156   3.639   7.467 -0.1058 -0.0217  0.1683
   59MOL   C16818844   8.206   3.712   7.334 -0.0974  0.1718  0.0228
   59MOL   C16918845   8.165   3.777   7.217 -0.0086  0.2465 -0.0702
   59MOL   C17018846   0.045   4.068   6.994 -0.7788 -0.1258  0.2408
   59MOL   H17118847   8.098   3.976   7.065  2.0819  0.2544  2.8662
   59MOL   H17218848   0.224   3.897   7.092 -0.0018  0.3134 -0.2560
   59MOL   H17318849   0.304   3.767   7.296  0.0714  0.5067  0.9050
   59MOL   H17418850   8.136   3.661   7.399  1.4759 -0.2898  1.3929
   59MOL   H17518851   8.058   3.780   7.201 -0.3276  0.9097  2.0852
   59MOL   H17618852   0.135   4.038   6.940  0.8390  1.0122  2.2467
   59MOL   H17718853   8.216   4.127   6.928 -1.6373 -1.1762  0.1094
   59MOL   C17818854   0.089   4.163   7.109  0.6694  0.2073  0.2557
   59MOL   C17918855   0.207   4.252   7.068  0.5967 -0.1606  0.2623
   59MOL   C18018856   0.195   4.322   6.950 -0.3176 -0.1692 -0.0415
   59MOL   C18118857   0.293   4.416   6.910 -0.0092 -0.0659  0.2173
   59MOL   C18218858   0.403   4.446   6.996 -0.8673  0.4584 -0.3268
   59MOL   F18318859   0.503   4.520   6.943  0.0730 -0.5896 -0.1435
   59MOL   C18418860   0.411   4.377   7.116 -0.4725  0.0293 -0.2870
   59MOL   C18518861   0.318   4.279   7.150 -0.3492  0.2753 -0.0973
   59MOL   C18618862   8.194   4.236   7.164 -0.0573  0.6815 -0.2708
   59MOL   H18718863   0.123   4.105   7.195 -0.7430  0.2795  0.8712
   59MOL   H18818864   0.109   4.299   6.890 -1.3567 -2.7043  2.3190
   59MOL   H18918865   0.295   4.451   6.808 -1.6626  2.7197  1.0626
   59MOL   H19018866   0.502   4.400   7.169  0.0071  0.7170 -1.3841
   59MOL   H19118867   0.326   4.233   7.248 -0.4197  0.7226  0.1187
   59MOL   H19218868   8.139   4.285   7.083 -0.9486  1.0273  0.5224
   59MOL   H19318869   8.131   4.159   7.208 -0.3881 -0.8599 -3.3002
   59MOL   C19418870   8.214   4.338   7.276  0.0713 -0.6469  0.0704
   59MOL   C19518871   8.224   4.476   7.221  0.3921 -0.2812 -0.0462
   59MOL   C19618872   0.121   4.538   7.218 -0.3725 -0.8012  0.5015
   59MOL   C19718873   0.139   4.667   7.165  0.1374 -0.0882 -0.1120
   59MOL   C19818874   0.028   4.739   7.127 -0.1596  0.3277 -0.4270
   59MOL   F19918875   0.040   4.865   7.075 -0.1461 -0.4255  0.1048
   59MOL   C20018876   8.130   4.680   7.131  0.0219 -1.0219 -0.1759
   59MOL   C20118877   8.109   4.548   7.175 -0.7739 -0.5000  0.7659
   59MOL   C20218878   8.112   4.341   7.392  0.3826  0.1585  0.2914
   59MOL   H20318879   0.076   4.321   7.322  0.1509 -0.3762  0.0014
   59MOL   H20418880   0.213   4.504   7.264 -0.2599 -0.4783  0.5180
   59MOL   H20518881   0.241   4.704   7.163  0.0313  0.3617  1.4317
   59MOL   H20618882   8.049   4.741   7.093  2.0660  1.8390 -0.1181
   59MOL   H20718883   8.011   4.503   7.175 -1.9033  1.8285  1.9876
   59MOL   H20818884   8.126   4.423   7.462 -1.4129  0.3686  0.4196
   59MOL   H20918885   8.011   4.345   7.351 -0.1571 -0.8454  1.5018
   59MOL   C21018886   8.114   4.214   7.484 -0.6164  0.3705 -0.0978
   59MOL   C21118887   0.020   4.180   7.535  0.2262  0.0254 -0.3974
   59MOL   C21218888   0.081   4.276   7.623 -0.3205 -0.1735  0.0812
   59MOL   C21318889   0.203   4.242   7.688 -0.2899  0.8736 -0.2630
   59MOL   C21418890   0.273   4.125   7.656 -0.2900  0.1123 -0.0483
   59MOL   F21518891   0.392   4.093   7.713  0.1522 -0.2043 -0.5138
   59MOL   C21618892   0.225   4.047   7.552  0.3860 -0.1485  0.4316
   59MOL   C21718893   0.095   4.063   7.507 -0.2364  0.3403 -0.2961
   59MOL   C21818894   8.028   4.216   7.608  0.9940 -0.7264  0.0688
   59MOL   H21918895   8.086   4.124   7.430 -0.0714 -1.5622  2.7419
   59MOL   H22018896   0.037   4.372   7.642  0.2215  0.4583 -1.7818
   59MOL   H22118897   0.249   4.320   7.747  1.4311  0.2889 -0.8001
   59MOL   H22218898   0.279   3.960   7.517 -0.7520 -0.5431 -0.3746
   59MOL   H22318899   0.052   3.990   7.441  0.5455 -0.1912 -0.2167
   59MOL   H22418900   8.080   4.224   7.704  1.5692 -0.1784 -0.2888
   59MOL   H22518901   7.963   4.303   7.600  1.0298 -0.5684  1.3587
   59MOL   C22618902   7.923   4.100   7.619 -0.0529  0.0732  0.3782
   59MOL   C22718903   7.864   4.071   7.760  0.2363 -0.6646 -0.1185
   59MOL   C22818904   7.810   4.173   7.839  0.2057  0.3736  0.2270
   59MOL   C22918905   7.782   4.150   7.976 -0.3171 -0.2117 -0.9601
   59MOL   C23018906   7.795   4.020   8.030  0.4045  0.0247  0.1023
   59MOL   F23118907   7.766   3.993   8.157  0.3134  0.0290  0.0477
   59MOL   C23218908   7.841   3.914   7.948  0.2998  0.4986 -0.0076
   59MOL   C23318909   7.876   3.940   7.812 -0.2078 -1.0140  0.7104
   59MOL   C23418910   7.812   4.124   7.516  0.1202  0.2611  0.3834
   59MOL   H23518911   7.985   4.017   7.585  0.9107  1.9839 -2.7692
   59MOL   H23618912   7.800   4.273   7.800 -0.4431  1.1212  2.2245
   59MOL   H23718913   7.746   4.233   8.036  1.2017 -0.2302  0.0207
   59MOL   H23818914   7.844   3.814   7.986  1.4056  1.2980  2.0899
   59MOL   H23918915   7.925   3.866   7.750 -0.8427 -1.9394  1.3056
   59MOL   H24018916   7.761   4.217   7.540  1.2937  0.8642  0.6040
   59MOL   H24118917   7.865   4.146   7.424  1.8217 -1.3404  0.9288
   59MOL   C24218918   7.711   4.013   7.498  0.1864  0.3550  0.3207
   59MOL   C24318919   7.603   4.067   7.396 -0.1918 -0.5149  0.0860
   59MOL   C24418920   7.635   4.077   7.256 -0.2870  0.4409 -0.8093
   59MOL   C24518921   7.548   4.145   7.172 -0.1191  0.6337  0.5717
   59MOL   C24618922   7.439   4.220   7.225  0.6640 -0.5428  0.1415
   59MOL   F24718923   7.378   4.325   7.157 -0.1886  0.4588 -0.3186
   59MOL   C24818924   7.415   4.211   7.364 -0.0036  0.0198 -0.0590
   59MOL   C24918925   7.490   4.126   7.449 -0.1036  0.0667 -0.3263
   59MOL   C25018926   7.763   3.872   7.459  0.1229  0.5275  0.1535
   59MOL   H25118927   7.659   3.999   7.592 -0.8648  1.2861 -0.1083
   59MOL   H25218928   7.726   4.033   7.216  1.5571  2.3908  1.1012
   59MOL   H25318929   7.577   4.163   7.069 -1.6576 -1.8102 -0.3430
   59MOL   H25418930   7.340   4.267   7.418  1.1327  1.2809  0.2530
   59MOL   H25518931   7.472   4.122   7.555 -0.5611  1.5087 -0.3410
   59MOL   H25618932   7.834   3.885   7.377 -0.9875  0.3499 -0.8543
   59MOL   H25718933   7.839   3.830   7.524  2.8902  1.1147 -2.5684
   59MOL   C25818934   7.658   3.767   7.430  0.0905 -0.8631  0.0990
   59MOL   C25918935   7.722   3.681   7.321  0.1526  0.1450 -0.8465
   59MOL   C26018936   7.853   3.623   7.342  0.3754 -0.4214  0.2765
   59MOL   C26118937   7.899   3.534   7.244 -0.4001 -0.0268  0.0732
   59MOL   C26218938   7.830   3.514   7.126 -0.5680  0.1874 -0.4008
   59MOL   F26318939   7.876   3.426   7.043 -0.2422 -0.1207  0.0665
   59MOL   C26418940   7.711   3.580   7.100 -0.3362 -0.3749  0.0497
   59MOL   C26518941   7.648   3.661   7.202 -1.2439 -0.5375  0.3755
   59MOL   C26618942   7.632   3.684   7.551 -0.3529 -0.0976  0.3506
   59MOL   H26718943   7.560   3.800   7.397  0.1342 -1.2780 -0.4411
   59MOL   H26818944   7.915   3.644   7.428  2.2560 -2.1765 -0.6269
   59MOL   H26918945   7.990   3.483   7.269 -0.8023 -0.1515  1.3455
   59MOL   H27018946   7.666   3.572   7.002  1.3099  0.1543 -0.7702
   59MOL   H27118947   7.552   3.708   7.186 -1.9017 -1.3691  1.6794
   59MOL   H27218948   7.576   3.595   7.522  0.2359 -0.7372  1.1795
   59MOL   H27318949   7.720   3.635   7.591 -1.5082 -0.0749  2.9963
   59MOL   C27418950   7.567   3.741   7.670 -0.0350 -0.5097  0.0742
   59MOL   C27518951   7.443   3.829   7.660  0.5552  0.2951  0.1615
   59MOL   C27618952   7.341   3.789   7.570 -0.7604  0.5890  0.1351
   59MOL   C27718953   7.222   3.870   7.560  0.4411 -0.0831  0.4619
   59MOL   C27818954   7.208   3.984   7.649 -0.0041  0.1050  0.4586
   59MOL   F27918955   7.092   4.055   7.646  0.3664 -0.5823  0.1460
   59MOL   C28018956   7.304   4.012   7.742 -0.1077 -0.1123 -0.3286
   59MOL   C28118957   7.422   3.933   7.751  0.6498 -0.2039  0.4621
   59MOL   C28218958   7.559   3.651   7.792 -0.1712 -0.1121  0.5716
   59MOL   H28318959   7.644   3.811   7.700 -0.3265 -0.2985  0.3433
   59MOL   H28418960   7.361   3.703   7.508  4.0456  1.4947  0.2442
   59MOL   H28518961   7.146   3.840   7.490  0.4005  1.6925 -0.2772
   59MOL   H28618962   7.296   4.092   7.815 -1.3661 -0.8973  0.4187
   59MOL   H28718963   7.508   3.964   7.809 -0.9662  1.9149  1.8357
   59MOL   H28818964   7.656   3.601   7.794 -0.3201 -0.6150 -2.3801
   59MOL   H28918965   7.563   3.714   7.881  0.9983 -2.7772  2.4983
   59MOL   C29018966   7.429   3.560   7.804  0.0888  0.4566 -0.3620
   59MOL   C29118967   7.440   3.450   7.700  0.4565  0.0811 -1.0839
   59MOL   C29218968   7.338   3.431   7.603 -0.2324  0.1249  0.3604
   59MOL   C29318969   7.336   3.314   7.519  0.1333 -0.4511 -0.6291
   59MOL   C29418970   7.443   3.217   7.534 -0.1380 -0.5635 -0.3780
   59MOL   F29518971   7.449   3.107   7.448 -0.3873 -0.4079  0.0011
   59MOL   C29618972   7.552   3.247   7.619 -0.0360  0.3418 -0.0157
   59MOL   C29718973   7.551   3.364   7.701 -0.2167 -0.6434  0.2612
   59MOL   C29818974   7.416   3.498   7.943 -0.5966 -0.5204  0.0337
   59MOL   H29918975   7.342   3.621   7.780 -2.3870 -2.7713  0.1573
   59MOL   H30018976   7.257   3.501   7.590 -0.5625  0.3920  3.5721
   59MOL   H30118977   7.263   3.307   7.440 -1.2595 -1.0202  0.6775
   59MOL   H30218978   7.630   3.173   7.624 -1.1247 -0.6913  2.4782
   59MOL   H30318979   7.634   3.368   7.770 -1.1987  2.9791  1.3232
   59MOL   H30418980   7.332   3.427   7.939  0.4014 -1.7024 -0.2592
   59MOL   H30518981   7.509   3.446   7.963  0.2784  0.8348 -0.4479
   59MOL   C30618982   7.395   3.591   8.070  0.3854 -0.7355 -0.7057
   59MOL   C30718983   7.290   3.700   8.038 -0.5738 -0.0077  0.3391
   59MOL   C30818984   7.164   3.666   7.978 -1.0240 -0.7415  0.0034
   59MOL   C30918985   7.079   3.773   7.956  0.2129 -0.8560  0.2712
   59MOL   C31018986   7.109   3.909   7.994 -0.0547  0.9234 -0.5178
   59MOL   F31118987   7.023   4.008   7.967  0.0628  0.1579 -0.2013
   59MOL   C31218988   7.230   3.934   8.058  0.7153 -0.4559 -0.3234
   59MOL   C31318989   7.321   3.834   8.086  0.7671  0.3220  0.0747
   59MOL   C31418990   7.365   3.519   8.202 -0.7679  0.5122 -0.8162
   59MOL   H31518991   7.487   3.646   8.091  0.8186 -1.9166  0.5824
   59MOL   H31618992   7.135   3.570   7.938 -0.7000 -0.0841 -1.8367
   59MOL   H31718993   6.989   3.750   7.902 -0.0446  2.2568 -0.7401
   59MOL   H31818994   7.256   4.034   8.089 -0.7459  0.0686 -0.7287
   59MOL   H31918995   7.410   3.856   8.143  0.0666 -0.9411  1.6892
   59MOL   H32018996   7.439   3.440   8.210 -1.7797 -0.5227 -1.5217
   59MOL   H32118997   7.367   3.577   0.060  0.1713  1.6913 -1.5490
   59MOL   H32218998   7.264   3.477   8.202 -0.1546 -0.9713 -1.0417
   60MOL     C118999   3.219   4.120   2.740  0.0710  0.2316 -0.4958
   60MOL     C219000   3.119   4.012   2.750 -0.5571  0.4565 -0.0473
   60MOL     C319001   2.986   4.025   2.707  0.1747 -0.1540 -0.1478
   60MOL     C419002   2.897   3.916   2.720 -0.0490  0.0787 -0.3498
   60MOL     C519003   2.942   3.800   2.776 -0.3163 -0.4558 -0.2522
   60MOL     F619004   2.846   3.710   2.800 -0.2134  0.1013 -0.0607
   60MOL     C719005   3.078   3.782   2.809 -0.3480 -0.9118 -0.1251
   60MOL     C819006   3.170   3.889   2.794  0.1169  0.0436  0.7712
   60MOL     C919007   3.326   4.102   2.629 -0.6650 -0.4150 -0.0855
   60MOL    H1019008   3.276   4.115   2.833  0.5978 -0.8452 -0.8726
   60MOL    H1119009   2.950   4.116   2.660 -0.8516  0.1508  1.1885
   60MOL    H1219010   2.796   3.910   2.682 -0.3879  2.1205  0.1613
   60MOL    H1319011   3.110   3.685   2.846  1.5274 -1.0812 -2.1363
   60MOL    H1419012   3.274   3.871   2.817  0.1684  1.2552  1.5338
   60MOL    H1519013   3.367   4.001   2.636 -0.3865 -0.1877  2.1879
   60MOL    H1619014   3.278   4.104   2.532 -0.5367 -0.0887 -0.1469
   60MOL    H1719015   3.168   4.217   2.739  2.3898  1.5092  0.3708
   60MOL    C1819016   3.437   4.207   2.629 -0.4031 -0.8281 -0.0201
   60MOL    C1919017   3.381   4.348   2.641 -0.2964 -0.0031 -0.5965
   60MOL    C2019018   3.404   4.426   2.761 -0.7650 -0.0616 -0.5374
   60MOL    C2119019   3.374   4.566   2.763  0.3590 -0.1339  0.7284
   60MOL    C2219020   3.304   4.623   2.654  0.3492  0.2002 -0.5595
   60MOL    F2319021   3.276   4.752   2.651 -0.2065 -0.4477  0.1300
   60MOL    C2419022   3.273   4.543   2.543 -0.0058  0.7141  0.1301
   60MOL    C2519023   3.312   4.408   2.530  0.1700  0.5068  0.4376
   60MOL    C2619024   3.564   4.180   2.714  0.0608 -0.0872 -0.2942
   60MOL    H2719025   3.477   4.206   2.528 -0.5689 -0.4855 -0.0908
   60MOL    H2819026   3.447   4.391   2.854 -0.3689 -0.7591 -0.9769
   60MOL    H2919027   3.395   4.630   2.847  2.3183 -3.4544  2.8524
   60MOL    H3019028   3.229   4.585   2.453  1.5054  0.8667 -0.5448
   60MOL    H3119029   3.303   4.364   2.431  0.2147  1.5540 -0.0376
   60MOL    H3219030   3.634   4.259   2.687  0.0880  0.5797  1.6449
   60MOL    H3319031   3.551   4.195   2.821 -0.6634 -2.7615  0.0233
   60MOL    C3419032   3.626   4.042   2.697 -0.7927 -0.0832  0.1328
   60MOL    C3519033   3.643   3.998   2.556 -0.0710 -0.3774 -0.8192
   60MOL    C3619034   3.572   3.886   2.506 -0.3525 -0.1389 -0.4017
   60MOL    C3719035   3.588   3.842   2.373  0.6865  1.0368  0.3934
   60MOL    C3819036   3.673   3.906   2.285  0.9425 -0.5822 -0.8092
   60MOL    F3919037   3.682   3.866   2.158 -0.2204  0.0462  0.3653
   60MOL    C4019038   3.749   4.014   2.331  0.0688 -0.5026  0.6191
   60MOL    C4119039   3.731   4.060   2.463 -0.1885  0.0571 -0.2595
   60MOL    C4219040   3.759   4.043   2.781  0.1315  0.4641  0.0750
   60MOL    H4319041   3.560   3.962   2.732  1.0390 -1.6278  0.0866
   60MOL    H4419042   3.504   3.827   2.565 -1.7101  0.7128 -1.0990
   60MOL    H4519043   3.534   3.758   2.330 -0.6940  1.3158  1.5301
   60MOL    H4619044   3.821   4.063   2.266 -0.2453 -0.7450  0.0858
   60MOL    H4719045   3.795   4.143   2.489  1.8274 -1.2080 -1.1629
   60MOL    H4819046   3.811   3.951   2.753  1.8266  1.3860  0.1728
   60MOL    H4919047   3.832   4.118   2.752 -1.0228  1.9425  0.8994
   60MOL    C5019048   3.737   4.057   2.931 -0.3741  0.2719 -0.0825
   60MOL    C5119049   3.618   3.979   2.983 -0.3237  0.2548  0.2634
   60MOL    C5219050   3.515   4.040   3.051  0.0245  0.1399  0.5627
   60MOL    C5319051   3.404   3.960   3.079  0.2265  0.3558  0.3116
   60MOL    C5419052   3.401   3.822   3.063  0.6252 -0.1340 -0.3509
   60MOL    F5519053   3.280   3.758   3.073 -0.2731  0.3440 -0.9759
   60MOL    C5619054   3.513   3.756   3.015  1.1050  0.1729  0.5072
   60MOL    C5719055   3.616   3.838   2.964 -0.6443 -0.0688 -0.4777
   60MOL    C5819056   3.863   4.037   3.015  0.5638  0.1416 -0.2077
   60MOL    H5919057   3.720   4.165   2.941  0.8499  0.4127  0.5112
   60MOL    H6019058   3.516   4.144   3.078  0.9175  1.0805 -2.8295
   60MOL    H6119059   3.313   3.999   3.120 -0.4765 -0.5179 -0.4013
   60MOL    H6219060   3.513   3.649   3.001 -0.7593  0.5450 -2.7803
   60MOL    H6319061   3.696   3.787   2.912  1.7177  1.5488  1.4424
   60MOL    H6419062   3.831   4.023   3.119 -1.2818 -1.0332 -0.8943
   60MOL    H6519063   3.898   3.943   2.972  1.6822  1.0086 -1.2030
   60MOL    C6619064   3.969   4.146   2.999 -0.0445  0.7573  0.1104
   60MOL    C6719065   3.942   4.272   3.086  0.1993  0.7568  0.1767
   60MOL    C6819066   3.909   4.389   3.015 -0.1536  0.2623 -0.6533
   60MOL    C6919067   3.894   4.512   3.092 -0.6687  0.0122 -0.5520
   60MOL    C7019068   3.919   4.509   3.233 -0.3456 -0.2430 -1.0393
   60MOL    F7119069   3.922   4.618   3.311  0.3304  0.0047  0.1754
   60MOL    C7219070   3.946   4.387   3.293  0.5749 -0.4364  0.3746
   60MOL    C7319071   3.959   4.268   3.223 -0.1026  0.1608  0.1610
   60MOL    C7419072   4.114   4.095   3.027 -0.4968 -0.2281 -0.9124
   60MOL    H7519073   3.971   4.178   2.895 -2.6215  1.3209  0.2134
   60MOL    H7619074   3.893   4.383   2.908  1.1871  1.2713 -0.9217
   60MOL    H7719075   3.874   4.611   3.054 -1.1292 -0.4223 -1.4650
   60MOL    H7819076   3.954   4.380   3.401  1.0659  0.2942  0.3875
   60MOL    H7919077   3.986   4.173   3.267 -1.0725 -0.0517  0.3120
   60MOL    H8019078   4.179   4.183   3.030  1.4753 -1.7166  1.8378
   60MOL    H8119079   4.124   4.061   3.130 -2.2017  0.0539 -0.6264
   60MOL    C8219080   4.183   3.992   2.930  0.7757 -0.2035 -0.6155
   60MOL    C8319081   4.157   4.017   2.782  0.4287 -0.4192  0.3552
   60MOL    C8419082   4.092   3.921   2.706 -0.1542 -0.7862  0.2191
   60MOL    C8519083   4.055   3.943   2.570 -0.1953 -0.0222 -0.2624
   60MOL    C8619084   4.096   4.065   2.511  0.0368 -0.7070 -0.3491
   60MOL    F8719085   4.074   4.087   2.379 -0.3185 -0.6194  0.8898
   60MOL    C8819086   4.176   4.159   2.586  0.8672 -0.3520  0.2304
   60MOL    C8919087   4.190   4.146   2.722  0.8657  0.4480  0.5859
   60MOL    C9019088   4.337   3.981   2.949  0.1383 -0.4629  0.2012
   60MOL    H9119089   4.134   3.899   2.960 -0.8251  1.0265  0.6232
   60MOL    H9219090   4.057   3.827   2.747 -1.4132 -0.2906  0.3163
   60MOL    H9319091   4.005   3.870   2.508 -2.2523  0.8580  0.3163
   60MOL    H9419092   4.194   4.247   2.527 -0.0964  1.7286  2.9506
   60MOL    H9519093   4.238   4.223   2.782 -1.0682  3.2377 -1.3103
   60MOL    H9619094   4.380   4.063   2.892 -1.4518  0.3543  0.1378
   60MOL    H9719095   4.360   4.006   3.052 -0.6732  0.0220  0.2690
   60MOL    C9819096   4.404   3.854   2.914 -0.9160  0.7903  0.4463
   60MOL    C9919097   4.438   3.845   2.766 -0.7290 -0.6929 -0.0487
   60MOL   C10019098   4.364   3.763   2.679 -0.3582 -0.6598  0.4414
   60MOL   C10119099   4.407   3.736   2.543 -0.0153 -0.8137 -0.7728
   60MOL   C10219100   4.508   3.813   2.493 -0.2451 -0.0426 -0.2236
   60MOL   F10319101   4.534   3.797   2.357 -0.0096 -0.0601 -0.2239
   60MOL   C10419102   4.579   3.907   2.573  0.3966  1.0566 -0.2111
   60MOL   C10519103   4.550   3.914   2.713  0.7571  0.3558 -0.1919
   60MOL   C10619104   4.528   3.821   3.000 -0.4383  0.1210 -0.2617
   60MOL   H10719105   4.334   3.773   2.932 -0.7354  0.8515  1.4168
   60MOL   H10819106   4.277   3.710   2.715 -0.5937 -0.9100 -0.4679
   60MOL   H10919107   4.357   3.668   2.476 -0.7312  1.1741 -2.3351
   60MOL   H11019108   4.661   3.968   2.537  1.1443 -0.5440 -1.2710
   60MOL   H11119109   4.602   3.982   2.780  0.7964  1.6784 -1.5460
   60MOL   H11219110   4.570   3.730   2.955  1.0756 -0.3076  1.9512
   60MOL   H11319111   4.591   3.908   2.987  1.0737 -1.0501 -0.9626
   60MOL   C11419112   4.509   3.778   3.149 -0.1606 -0.1552 -0.3049
   60MOL   C11519113   4.396   3.676   3.166  0.4052  0.9755  0.4244
   60MOL   C11619114   4.269   3.716   3.201 -0.1696 -0.1667 -0.3584
   60MOL   C11719115   4.162   3.626   3.218  0.4538  0.0226  0.3863
   60MOL   C11819116   4.169   3.488   3.189 -0.4205 -0.4860  0.2172
   60MOL   F11919117   4.062   3.409   3.213 -0.5630 -0.6073 -0.3002
   60MOL   C12019118   4.296   3.446   3.143 -0.7092 -0.1766 -0.5507
   60MOL   C12119119   4.405   3.539   3.134 -0.9416  0.2988 -1.0894
   60MOL   C12219120   4.641   3.710   3.194 -0.2034 -0.5501  0.7744
   60MOL   H12319121   4.487   3.865   3.211  1.8022  0.3490 -0.2873
   60MOL   H12419122   4.256   3.821   3.222  1.1867 -0.2180  0.8232
   60MOL   H12519123   4.066   3.672   3.239 -0.3475 -0.4770 -2.0161
   60MOL   H12619124   4.306   3.343   3.115  1.6852  0.1314 -0.9011
   60MOL   H12719125   4.494   3.506   3.084 -1.0947  0.7581 -1.6811
   60MOL   H12819126   4.635   3.677   3.298 -1.3125 -0.3977  0.7637
   60MOL   H12919127   4.663   3.629   3.124 -0.5068  1.2585 -1.4814
   60MOL   C13019128   4.767   3.799   3.192 -0.0850 -0.1173  0.2895
   60MOL   C13119129   4.758   3.923   3.280 -0.1584  0.7059 -0.3575
   60MOL   C13219130   4.713   4.042   3.225 -0.5137  0.0725 -0.0081
   60MOL   C13319131   4.717   4.163   3.305  0.1130  0.2479  0.4275
   60MOL   C13419132   4.746   4.150   3.441  0.2746 -0.5820 -0.2550
   60MOL   F13519133   4.728   4.250   3.522  0.3169  0.0011  0.0276
   60MOL   C13619134   4.782   4.024   3.493  0.1897  0.8745 -1.2096
   60MOL   C13719135   4.782   3.913   3.419  0.5023  0.5882  0.5142
   60MOL   C13819136   4.897   3.722   3.216 -0.4421  0.7625 -0.9254
   60MOL   H13919137   4.780   3.839   3.092  1.6164 -0.0277  0.5271
   60MOL   H14019138   4.691   4.051   3.120  1.5386  1.4468 -0.3340
   60MOL   H14119139   4.691   4.265   3.281  2.7671  0.3026 -2.5704
   60MOL   H14219140   4.794   4.014   3.600  0.4563 -0.9968 -1.3941
   60MOL   H14319141   4.811   3.818   3.461  0.2058 -0.1983 -1.0284
   60MOL   H14419142   4.962   3.795   3.264  1.6108 -1.1889 -0.6210
   60MOL   H14519143   4.879   3.649   3.294 -2.7210  2.0360 -0.2020
   60MOL   C14619144   4.971   3.661   3.105 -0.3867  0.0254 -0.8798
   60MOL   C14719145   4.985   3.743   2.978  0.4742 -0.4262  0.7918
   60MOL   C14819146   5.061   3.861   2.966 -0.6238  0.6827  0.3119
   60MOL   C14919147   5.047   3.958   2.858  0.0645 -0.5387  0.4239
   60MOL   C15019148   4.945   3.929   2.761 -0.0733 -0.0605  0.3601
   60MOL   F15119149   4.931   4.013   2.657  0.6055 -0.0207 -0.2251
   60MOL   C15219150   4.876   3.805   2.765  0.4810  0.6652  0.0601
   60MOL   C15319151   4.893   3.713   2.872 -0.5003 -0.2863  0.1086
   60MOL   C15419152   5.113   3.611   3.147  0.1609  0.6514  0.2369
   60MOL   H15519153   4.921   3.569   3.075 -4.6299  1.8252  0.2565
   60MOL   H15619154   5.130   3.875   3.048  1.0738 -1.2591 -0.7479
   60MOL   H15719155   5.113   4.044   2.857  0.1776 -0.6167  0.9545
   60MOL   H15819156   4.813   3.772   2.684 -1.8911 -1.0410  2.4830
   60MOL   H15919157   4.839   3.620   2.878 -3.7159  1.5215  0.6218
   60MOL   H16019158   5.162   3.571   3.058 -0.3412  2.3261 -0.8213
   60MOL   H16119159   5.176   3.696   3.176 -0.6301  3.0114 -4.4153
   60MOL   C16219160   5.112   3.490   3.243 -0.7556  0.5236 -0.4207
   60MOL   C16319161   5.060   3.368   3.169 -0.3643  0.1759  0.4549
   60MOL   C16419162   5.140   3.316   3.058 -0.4767 -0.6355 -0.5106
   60MOL   C16519163   5.093   3.202   2.993  0.4164 -0.2127  0.0857
   60MOL   C16619164   4.964   3.152   3.022 -0.2568 -0.3033  0.1612
   60MOL   F16719165   4.913   3.046   2.949 -0.0144  0.2031 -0.5297
   60MOL   C16819166   4.891   3.199   3.126 -0.2048 -0.1179 -0.0078
   60MOL   C16919167   4.936   3.313   3.193 -0.4957  0.0406  0.4250
   60MOL   C17019168   5.251   3.459   3.311  0.7194 -0.2412  0.1860
   60MOL   H17119169   5.043   3.518   3.323 -1.3421 -0.7001 -0.4908
   60MOL   H17219170   5.238   3.343   3.023 -0.4123 -0.6646 -0.3504
   60MOL   H17319171   5.141   3.159   2.906 -1.3213  0.3061 -1.1682
   60MOL   H17419172   4.802   3.150   3.165 -2.6444  2.7442 -1.7942
   60MOL   H17519173   4.877   3.358   3.271 -0.3184 -2.3662  1.9854
   60MOL   H17619174   5.260   3.360   3.355  1.7747  0.0749  0.7076
   60MOL   H17719175   5.323   3.446   3.230 -0.4637 -1.0537 -0.7520
   60MOL   C17819176   5.304   3.568   3.417  0.4678 -0.0688 -1.3494
   60MOL   C17919177   5.197   3.603   3.523 -0.1932 -0.1773  0.5450
   60MOL   C18019178   5.153   3.739   3.536 -0.3082  0.1035 -0.2969
   60MOL   C18119179   5.046   3.765   3.624  1.0164 -0.6779  0.3722
   60MOL   C18219180   4.989   3.665   3.698  0.0016  0.0998 -0.7959
   60MOL   F18319181   4.890   3.692   3.786 -0.1263 -0.2513 -0.3813
   60MOL   C18419182   5.041   3.530   3.688  0.1861 -0.0362  0.0105
   60MOL   C18519183   5.142   3.496   3.604  0.1470 -0.3347 -0.3079
   60MOL   C18619184   5.448   3.535   3.460  0.4601 -0.7600  0.9693
   60MOL   H18719185   5.307   3.658   3.354 -2.6727 -0.2950 -1.9385
   60MOL   H18819186   5.184   3.821   3.474 -0.0740 -0.1201 -0.4756
   60MOL   H18919187   5.008   3.866   3.619  2.0929 -0.2889 -0.2129
   60MOL   H19019188   4.981   3.463   3.747 -2.8334  1.7183 -0.9648
   60MOL   H19119189   5.168   3.392   3.596 -0.7983 -0.8472  2.7217
   60MOL   H19219190   5.438   3.430   3.484  1.2044 -1.4046 -1.4206
   60MOL   H19319191   5.507   3.527   3.369 -1.9910 -0.5272 -0.6804
   60MOL   C19419192   5.510   3.612   3.571  0.2760  0.4470 -0.8135
   60MOL   C19519193   5.469   3.545   3.706  0.5557  0.3372  0.0892
   60MOL   C19619194   5.517   3.422   3.746 -0.1644 -0.0021  0.5274
   60MOL   C19719195   5.461   3.356   3.853  0.4100 -0.1524  0.2090
   60MOL   C19819196   5.359   3.418   3.928  0.4386  0.6395 -0.0962
   60MOL   F19919197   5.306   3.359   4.032 -0.4016  0.1002  0.4125
   60MOL   C20019198   5.309   3.546   3.891  0.4760  0.7340  0.2487
   60MOL   C20119199   5.369   3.605   3.777  0.0394 -0.5762  0.4794
   60MOL   C20219200   5.661   3.629   3.540 -0.7427  0.4876 -0.6083
   60MOL   H20319201   5.469   3.713   3.575  0.8521  0.7916 -3.2672
   60MOL   H20419202   5.590   3.373   3.684  0.9729  2.2538  0.0225
   60MOL   H20519203   5.500   3.260   3.884 -1.5571 -1.0846 -0.0672
   60MOL   H20619204   5.229   3.598   3.942  1.1286 -0.1020  2.1326
   60MOL   H20719205   5.331   3.695   3.732 -2.6289 -0.8948  2.0062
   60MOL   H20819206   5.688   3.528   3.510  0.8927  0.8797 -0.5145
   60MOL   H20919207   5.676   3.683   3.446 -0.6649 -0.8961 -1.3979
   60MOL   C21019208   5.762   3.673   3.664  0.3708  0.5671  0.0363
   60MOL   C21119209   5.910   3.651   3.640  0.1898 -0.9962 -0.0848
   60MOL   C21219210   6.000   3.605   3.741  0.0038 -0.5593 -0.2382
   60MOL   C21319211   6.137   3.582   3.708 -0.0957  0.0116 -0.7327
   60MOL   C21419212   6.186   3.611   3.577  0.1232  0.0306  0.8438
   60MOL   F21519213   6.320   3.622   3.545 -0.2741 -1.0180 -0.1051
   60MOL   C21619214   6.095   3.645   3.480 -0.3701  0.3960  0.8620
   60MOL   C21719215   5.961   3.671   3.507  0.1220  0.2150  0.1510
   60MOL   C21819216   5.728   3.809   3.733  0.3580  1.0443  0.0600
   60MOL   H21919217   5.734   3.606   3.745  2.6058 -0.3918  0.0314
   60MOL   H22019218   5.966   3.597   3.843  0.6336  1.7927  0.1734
   60MOL   H22119219   6.203   3.551   3.788  2.2871  0.0883 -2.6543
   60MOL   H22219220   6.124   3.675   3.380  0.0697 -0.6590  0.6671
   60MOL   H22319221   5.899   3.701   3.424 -1.4945 -0.2894  1.1470
   60MOL   H22419222   5.624   3.814   3.766  0.7814 -0.2090  1.6303
   60MOL   H22519223   5.774   3.800   3.832  0.3876 -0.0663 -0.0476
   60MOL   C22619224   5.772   3.939   3.665 -0.3167  0.3873 -0.2009
   60MOL   C22719225   5.693   3.963   3.544  0.0329  0.2759  0.0369
   60MOL   C22819226   5.555   3.980   3.551  0.0704  0.0230  0.4193
   60MOL   C22919227   5.470   3.994   3.435 -0.9880  0.1112 -0.2386
   60MOL   C23019228   5.533   3.986   3.311 -0.0832 -0.4333  0.1020
   60MOL   F23119229   5.468   3.998   3.192 -0.1216  0.3790 -0.1555
   60MOL   C23219230   5.674   3.971   3.304 -0.2782  0.0278  1.0411
   60MOL   C23319231   5.748   3.961   3.420  0.2919  0.2629  0.2991
   60MOL   C23419232   5.758   4.059   3.752 -0.6210 -0.2413 -0.2322
   60MOL   H23519233   5.878   3.929   3.643 -0.0228 -1.6406  2.0490
   60MOL   H23619234   5.507   3.967   3.647  2.1432  0.7543  1.5921
   60MOL   H23719235   5.363   4.005   3.440 -1.3099 -3.2064  1.3022
   60MOL   H23819236   5.728   3.970   3.211 -0.8090  1.0357  0.7141
   60MOL   H23919237   5.855   3.950   3.422  0.3432  0.8139  0.7356
   60MOL   H24019238   5.783   4.147   3.692  1.0448 -1.0750 -0.7905
   60MOL   H24119239   5.653   4.063   3.779 -0.7968 -1.5168 -0.6883
   60MOL   C24219240   5.847   4.065   3.879 -0.5935  0.3935 -0.1051
   60MOL   C24319241   5.994   4.029   3.844  0.5266 -0.1391  0.6006
   60MOL   C24419242   6.056   3.911   3.889  0.7929 -0.2641 -0.0117
   60MOL   C24519243   6.189   3.881   3.857  0.0850 -0.4486 -0.6797
   60MOL   C24619244   6.265   3.966   3.774  0.0856 -0.2292  0.4355
   60MOL   F24719245   6.392   3.932   3.741 -0.1619  0.5020 -0.1655
   60MOL   C24819246   6.207   4.080   3.715 -0.3884  0.1375  0.6600
   60MOL   C24919247   6.074   4.111   3.752  0.2083  0.0124 -0.2222
   60MOL   C25019248   5.836   4.202   3.947  0.5256 -0.0748 -0.2720
   60MOL   H25119249   5.799   3.992   3.944  0.2821 -2.2343 -2.2919
   60MOL   H25219250   6.003   3.849   3.960  0.7564  0.3950  0.5429
   60MOL   H25319251   6.238   3.796   3.901 -1.7238 -0.5890  1.1444
   60MOL   H25419252   6.258   4.145   3.645 -0.6563 -0.9586 -0.5587
   60MOL   H25519253   6.035   4.206   3.721  0.0236  0.9308  2.6745
   60MOL   H25619254   5.926   4.208   4.008  1.3891 -0.6361 -1.4855
   60MOL   H25719255   5.850   4.278   3.870 -1.9983  2.0115  1.2253
   60MOL   C25819256   5.706   4.227   4.023  0.0814 -0.5155  0.5557
   60MOL   C25919257   5.694   4.140   4.153 -0.5742  0.0671  0.4843
   60MOL   C26019258   5.803   4.103   4.231  0.2122 -0.1999 -0.8361
   60MOL   C26119259   5.790   4.043   4.361  0.5891  0.4439  0.6047
   60MOL   C26219260   5.661   4.033   4.420 -0.2197 -0.0055 -0.2072
   60MOL   F26319261   5.658   3.990   4.552 -0.1442 -0.1513  0.5324
   60MOL   C26419262   5.543   4.069   4.343 -0.7149 -0.0027 -0.1375
   60MOL   C26519263   5.564   4.126   4.213 -0.6077 -0.1122 -0.4897
   60MOL   C26619264   5.700   4.375   4.059  0.3442 -0.0995  0.5754
   60MOL   H26719265   5.620   4.206   3.959  0.3012  0.3789 -0.0442
   60MOL   H26819266   5.903   4.115   4.194  0.2220 -0.4832 -0.9056
   60MOL   H26919267   5.879   4.016   4.415  1.6583 -0.3856 -1.5229
   60MOL   H27019268   5.446   4.071   4.389 -0.6913 -1.9129  0.0299
   60MOL   H27119269   5.483   4.169   4.156 -0.2850 -0.7769 -1.4519
   60MOL   H27219270   5.640   4.387   4.150 -1.2984  1.4397 -0.6873
   60MOL   H27319271   5.802   4.404   4.085  0.7996 -1.0592 -0.1039
   60MOL   C27419272   5.649   4.473   3.948  0.1306 -0.2951  0.3307
   60MOL   C27519273   5.502   4.451   3.917  0.9522 -0.6170  0.4300
   60MOL   C27619274   5.477   4.388   3.793  0.3081  0.3516  0.4361
   60MOL   C27719275   5.349   4.355   3.754 -0.4136 -0.4622 -0.4856
   60MOL   C27819276   5.243   4.402   3.835 -0.5658  0.3369 -0.3512
   60MOL   F27919277   5.117   4.383   3.787 -0.5211  0.2103 -0.4404
   60MOL   C28019278   5.268   4.468   3.960 -0.1763 -0.0533 -0.3774
   60MOL   C28119279   5.401   4.487   4.010  0.1561 -0.7860 -0.9573
   60MOL   C28219280   5.666   4.614   3.982 -0.2701 -0.3952 -0.0855
   60MOL   H28319281   5.709   4.467   3.857 -0.6208  1.3411 -0.2943
   60MOL   H28419282   5.555   4.354   3.728 -1.5469 -0.4878 -1.4099
   60MOL   H28519283   5.345   4.293   3.666  1.8130  0.4140 -1.2500
   60MOL   H28619284   5.187   4.465   4.032  0.5144 -0.3181  0.3930
   60MOL   H28719285   5.427   4.523   4.109 -1.1079 -1.1404 -0.4914
   60MOL   H28819286   5.600   4.674   3.920 -4.0818 -1.9564  2.3383
   60MOL   H28919287   5.624   4.643   4.078  0.9248 -1.5858  0.8180
   60MOL   C29019288   5.817   4.658   3.979 -0.0813  0.3728 -0.0742
   60MOL   C29119289   5.872   4.668   3.836 -0.4202 -0.7556 -0.0818
   60MOL   C29219290   5.802   4.759   3.752 -0.2644  0.3584 -0.1564
   60MOL   C29319291   5.867   4.800   3.631 -0.4188 -0.1471  0.3152
   60MOL   C29419292   5.986   4.737   3.588 -0.4512  1.0418  0.2340
   60MOL   F29519293   6.018   4.749   3.458 -0.3056  0.3037 -0.1740
   60MOL   C29619294   6.052   4.646   3.670  0.1468 -0.3208 -0.2432
   60MOL   C29719295   6.001   4.614   3.796 -0.5076 -0.2715 -0.6966
   60MOL   C29819296   5.843   4.785   4.064 -0.1086  0.5041  0.0850
   60MOL   H29919297   5.877   4.577   4.019  0.5203  0.8685  0.0276
   60MOL   H30019298   5.701   4.786   3.776 -0.1625 -1.2054  2.1183
   60MOL   H30119299   5.829   4.871   3.559 -0.0634 -0.0117  0.2598
   60MOL   H30219300   6.145   4.603   3.634 -0.1065 -0.5701 -0.6047
   60MOL   H30319301   6.057   4.546   3.859  2.1789  0.8435 -1.7848
   60MOL   H30419302   5.939   4.831   4.037 -0.0881  0.3142 -0.1614
   60MOL   H30519303   5.762   4.853   4.040 -1.1276 -0.9021 -0.4603
   60MOL   C30619304   5.841   4.772   4.217 -0.5517 -0.4944 -0.8594
   60MOL   C30719305   5.899   4.644   4.280 -0.5384 -0.3121  0.4420
   60MOL   C30819306   5.818   4.543   4.334 -0.6054  0.8078  0.3037
   60MOL   C30919307   5.869   4.418   4.372 -0.2101 -0.6022  0.0219
   60MOL   C31019308   6.006   4.397   4.356  0.5551  0.3217 -0.3299
   60MOL   F31119309   6.069   4.287   4.408 -0.4955  0.1938 -0.2924
   60MOL   C31219310   6.090   4.500   4.310  0.0701  0.5037  0.1616
   60MOL   C31319311   6.036   4.623   4.276 -0.2081  0.4331 -0.4020
   60MOL   C31419312   5.888   4.900   4.292  1.1167 -0.2014  0.3467
   60MOL   H31519313   5.735   4.758   4.237 -1.0830 -3.5932 -5.1926
   60MOL   H31619314   5.714   4.568   4.346  0.0192  3.0448  1.3618
   60MOL   H31719315   5.802   4.343   4.411  0.5623 -1.8950 -1.0964
   60MOL   H31819316   6.196   4.482   4.305 -0.2238 -2.3768  2.8856
   60MOL   H31919317   6.101   4.699   4.234  1.5365 -0.7490  0.1137
   60MOL   H32019318   5.888   4.891   4.400  2.4218  2.0119  0.5525
   60MOL   H32119319   5.991   4.925   4.263  1.9010 -1.0467  2.3231
   60MOL   H32219320   5.817   4.980   4.270 -1.2155 -2.0045  1.1340
   61MOL     C119321   2.295   2.668   7.280  0.5667 -0.2106  0.9475
   61MOL     C219322   2.180   2.712   7.193 -0.3564 -0.0223 -0.3885
   61MOL     C319323   2.194   2.839   7.132  0.2322 -0.0740 -0.2312
   61MOL     C419324   2.100   2.872   7.035  0.7802  0.3418 -0.7083
   61MOL     C519325   2.001   2.780   6.993 -0.3854  0.0068  0.4013
   61MOL     F619326   1.909   2.821   6.901 -0.8248 -0.2448  0.0637
   61MOL     C719327   1.999   2.648   7.045 -0.1066 -0.1268 -0.3848
   61MOL     C819328   2.083   2.618   7.154  0.9108 -0.5422 -0.3977
   61MOL     C919329   2.418   2.612   7.206 -0.1674 -0.7746 -0.6449
   61MOL    H1019330   2.259   2.606   7.361 -3.5700  0.8083  0.0097
   61MOL    H1119331   2.264   2.913   7.167 -2.0421  2.0182  0.0927
   61MOL    H1219332   2.115   2.966   6.983 -0.4146  0.1100 -1.4918
   61MOL    H1319333   1.917   2.584   7.016 -0.3663  0.5791 -1.2633
   61MOL    H1419334   2.079   2.517   7.193 -0.4080 -0.5543 -0.5524
   61MOL    H1519335   2.385   2.511   7.182 -2.5779 -0.0123 -0.6775
   61MOL    H1619336   2.434   2.675   7.119  0.3761  0.5588  0.3858
   61MOL    H1719337   2.322   2.764   7.325  1.5375 -0.6324  1.2715
   61MOL    C1819338   2.545   2.605   7.285 -0.1217 -0.2432 -0.3749
   61MOL    C1919339   2.534   2.534   7.424 -0.5444  0.0710  0.7531
   61MOL    C2019340   2.582   2.598   7.541 -0.0411  0.3518 -0.2057
   61MOL    C2119341   2.579   2.531   7.663 -0.1791 -0.2045  0.3555
   61MOL    C2219342   2.521   2.400   7.668  0.2267 -0.1132  0.0794
   61MOL    F2319343   2.501   2.338   7.790 -0.2050  0.1347 -0.3358
   61MOL    C2419344   2.478   2.336   7.555  0.4138 -0.2815  0.3228
   61MOL    C2519345   2.482   2.400   7.428  0.0883 -0.3859  0.2693
   61MOL    C2619346   2.654   2.545   7.195  0.0400 -0.2350  0.4335
   61MOL    H2719347   2.569   2.710   7.301 -2.8945  0.8825 -3.1617
   61MOL    H2819348   2.618   2.699   7.530 -1.3414  0.8271 -0.1930
   61MOL    H2919349   2.594   2.584   7.757  0.8407 -0.8249  0.5514
   61MOL    H3019350   2.433   2.239   7.571 -0.2271  0.1711  1.3084
   61MOL    H3119351   2.443   2.343   7.345  0.0566  0.5344 -0.3524
   61MOL    H3219352   2.730   2.498   7.257 -1.1294 -3.3115 -0.3657
   61MOL    H3319353   2.607   2.463   7.139  0.9633  0.3097 -1.1811
   61MOL    C3419354   2.715   2.643   7.088  0.0084 -0.4132 -0.2529
   61MOL    C3519355   2.822   2.731   7.162  0.2605 -0.8864 -0.3387
   61MOL    C3619356   2.796   2.864   7.205  0.1457  0.3525  0.2576
   61MOL    C3719357   2.891   2.933   7.278 -0.2267  0.5199  0.0925
   61MOL    C3819358   3.022   2.887   7.295 -0.1733  0.2789  0.6458
   61MOL    F3919359   3.110   2.957   7.371  0.1882  0.0070  0.4324
   61MOL    C4019360   3.047   2.753   7.259  0.2439  0.1515  0.5864
   61MOL    C4119361   2.947   2.674   7.203  0.0935  0.3179 -0.0524
   61MOL    C4219362   2.777   2.576   6.961  0.2959 -0.6083  0.2175
   61MOL    H4319363   2.642   2.710   7.043  0.0982 -0.9597 -1.2201
   61MOL    H4419364   2.701   2.913   7.189  0.7845  1.0328 -1.5839
   61MOL    H4519365   2.862   3.028   7.321 -1.2884  0.0479  0.4341
   61MOL    H4619366   3.146   2.725   7.294  0.6413  0.7081 -0.0807
   61MOL    H4719367   2.961   2.571   7.171 -1.7090  0.6536 -2.0416
   61MOL    H4819368   2.809   2.657   6.896 -0.5005 -1.3330 -1.0943
   61MOL    H4919369   2.873   2.534   6.990 -0.0226 -1.1057  0.5563
   61MOL    C5019370   2.695   2.471   6.882  0.3267  0.5415 -0.5728
   61MOL    C5119371   2.552   2.513   6.876  0.1944  0.0494 -0.2398
   61MOL    C5219372   2.449   2.421   6.913  0.3551 -0.1341  0.1162
   61MOL    C5319373   2.315   2.459   6.887  0.0635 -0.9462  0.4585
   61MOL    C5419374   2.283   2.583   6.825  0.0677  0.1151 -0.0464
   61MOL    F5519375   2.159   2.622   6.791 -0.0992 -0.0415  0.5717
   61MOL    C5619376   2.389   2.676   6.806  0.4099  0.3013 -0.4454
   61MOL    C5719377   2.519   2.637   6.829  0.1490  0.1748 -0.2736
   61MOL    C5819378   2.751   2.446   6.733 -0.0054 -0.5694 -0.3277
   61MOL    H5919379   2.696   2.372   6.927  1.6479  1.8341  2.4011
   61MOL    H6019380   2.459   2.318   6.946 -2.9894 -0.8537 -0.9449
   61MOL    H6119381   2.235   2.389   6.910  2.0270 -3.7221 -0.8846
   61MOL    H6219382   2.368   2.778   6.778 -2.0902 -0.6906 -2.3792
   61MOL    H6319383   2.602   2.704   6.811  0.3699 -0.1661 -0.5666
   61MOL    H6419384   2.750   2.539   6.675  0.4220 -1.5151 -1.8723
   61MOL    H6519385   2.858   2.429   6.749  0.2168  1.2128  0.1519
   61MOL    C6619386   2.691   2.330   6.663  0.6169 -0.3075  0.4212
   61MOL    C6719387   2.725   2.342   6.519  0.3355  0.1510  0.7747
   61MOL    C6819388   2.629   2.396   6.434  0.1507  0.4222 -0.5382
   61MOL    C6919389   2.644   2.406   6.295 -0.5447  0.2455  0.3436
   61MOL    C7019390   2.760   2.356   6.243  0.3358  0.2892 -0.1671
   61MOL    F7119391   2.769   2.342   6.106 -0.3988 -0.1917  0.1952
   61MOL    C7219392   2.863   2.309   6.327 -0.4518 -0.0075 -0.3329
   61MOL    C7319393   2.851   2.307   6.467  0.1556  0.2355 -0.0125
   61MOL    C7419394   2.712   2.195   6.726 -0.7022  0.3045 -0.2091
   61MOL    H7519395   2.584   2.350   6.662  0.8409  0.8879 -0.1890
   61MOL    H7619396   2.531   2.425   6.466  0.2521 -0.2744  0.4189
   61MOL    H7719397   2.565   2.444   6.232  0.0748  0.2900 -0.4138
   61MOL    H7819398   2.949   2.262   6.281 -0.1658  0.1898 -0.0002
   61MOL    H7919399   2.932   2.275   6.530  0.6294  1.8873  0.2432
   61MOL    H8019400   2.821   2.191   6.727 -0.6451  1.5209  1.3177
   61MOL    H8119401   2.680   2.194   6.831 -0.9643  1.5056 -0.2748
   61MOL    C8219402   2.664   2.073   6.648  0.5473  0.8737 -0.9263
   61MOL    C8319403   2.721   1.938   6.705 -0.4602 -0.2555 -0.1811
   61MOL    C8419404   2.660   1.871   6.816  0.3258 -0.3176 -0.2187
   61MOL    C8519405   2.725   1.758   6.867 -0.1345  0.2189 -0.4256
   61MOL    C8619406   2.844   1.707   6.815 -0.3813 -0.7653  0.2818
   61MOL    F8719407   2.896   1.602   6.874 -0.1401  0.1162  0.2409
   61MOL    C8819408   2.897   1.769   6.701  0.7291  0.1526 -0.2366
   61MOL    C8919409   2.839   1.882   6.646  0.2193 -0.2396 -0.1763
   61MOL    C9019410   2.505   2.072   6.639  0.4698  0.4588  0.5398
   61MOL    H9119411   2.695   2.072   6.544  0.3780 -1.6634 -0.9883
   61MOL    H9219412   2.565   1.908   6.851  0.4887 -1.3910  1.4052
   61MOL    H9319413   2.691   1.710   6.958  0.5097  0.4083 -0.0825
   61MOL    H9419414   2.991   1.727   6.669  0.7478  0.1985 -0.2410
   61MOL    H9519415   2.866   1.943   6.562  2.1462  2.2528  2.1495
   61MOL    H9619416   2.461   2.070   6.739 -0.5209 -1.6605  0.0680
   61MOL    H9719417   2.481   2.167   6.591  1.3769  2.1545  3.2797
   61MOL    C9819418   2.440   1.947   6.569 -0.4983  0.7350 -0.2509
   61MOL    C9919419   2.289   1.955   6.602  0.4791 -0.7843 -0.2275
   61MOL   C10019420   2.250   1.896   6.721  0.1306  0.5393 -0.3881
   61MOL   C10119421   2.118   1.919   6.769 -0.4203 -0.6749  0.2785
   61MOL   C10219422   2.031   1.999   6.689 -0.0985  0.4888 -0.3010
   61MOL   F10319423   1.908   2.024   6.738  0.0269  0.2231 -0.3284
   61MOL   C10419424   2.071   2.056   6.569 -0.0575 -0.3687 -0.6629
   61MOL   C10519425   2.202   2.039   6.525  0.1420  0.8784 -0.6441
   61MOL   C10619426   2.489   1.944   6.418  0.0251  1.0632  0.2736
   61MOL   H10719427   2.484   1.856   6.610 -1.9393  0.3036  0.3687
   61MOL   H10819428   2.317   1.837   6.782  1.9642  2.9917  0.0364
   61MOL   H10919429   2.088   1.881   6.866  0.1572  0.3078  0.8605
   61MOL   H11019430   2.007   2.122   6.513 -2.1784 -1.2277  0.6861
   61MOL   H11119431   2.228   2.093   6.435  3.4284  1.3333  0.5070
   61MOL   H11219432   2.482   2.045   6.377  0.2125  1.1525  0.4610
   61MOL   H11319433   2.597   1.936   6.417  0.0337  1.1086 -1.5328
   61MOL   C11419434   2.433   1.853   6.306  0.2354 -0.0763  0.3329
   61MOL   C11519435   2.317   1.919   6.236  1.2655  0.2328  0.1863
   61MOL   C11619436   2.339   2.037   6.162  0.8235  0.1524 -0.2290
   61MOL   C11719437   2.223   2.099   6.106 -0.3327  0.6110  0.1636
   61MOL   C11819438   2.099   2.033   6.106  0.4849 -0.0910 -0.1605
   61MOL   F11919439   1.996   2.087   6.035  0.2417 -0.0494  0.3606
   61MOL   C12019440   2.084   1.910   6.173  0.5380 -0.2827 -0.6178
   61MOL   C12119441   2.190   1.862   6.251 -0.0421 -1.0129 -0.1513
   61MOL   C12219442   2.533   1.803   6.199  0.3830 -0.5439  0.3258
   61MOL   H12319443   2.391   1.761   6.349  0.9867 -0.9129 -0.6850
   61MOL   H12419444   2.438   2.080   6.166  1.2992 -0.3637 -4.1657
   61MOL   H12519445   2.232   2.200   6.068  1.3427  1.0931  1.7647
   61MOL   H12619446   1.996   1.849   6.158  1.6627 -2.0480 -0.2404
   61MOL   H12719447   2.184   1.772   6.310  1.6016 -0.3113  1.1266
   61MOL   H12819448   2.474   1.743   6.130  0.6375 -0.3045 -0.1005
   61MOL   H12919449   2.570   1.889   6.143 -5.6398  2.1299 -0.0619
   61MOL   C13019450   2.639   1.707   6.255  0.0991  0.2119  0.3295
   61MOL   C13119451   2.580   1.585   6.325 -0.0776  0.4662  0.0747
   61MOL   C13219452   2.491   1.489   6.256  0.3957 -0.2089  0.0045
   61MOL   C13319453   2.431   1.379   6.322 -0.6271  0.4429  0.0421
   61MOL   C13419454   2.456   1.354   6.457 -0.3065  0.4395 -0.0774
   61MOL   F13519455   2.419   1.236   6.514  0.3396 -0.1249 -0.3937
   61MOL   C13619456   2.554   1.432   6.515 -0.8063  0.6351 -0.5033
   61MOL   C13719457   2.608   1.550   6.455 -0.6937 -0.3824  0.3339
   61MOL   C13819458   2.749   1.676   6.144  0.1196 -0.1105  0.0066
   61MOL   H13919459   2.689   1.766   6.333 -0.9984  0.6382  0.7164
   61MOL   H14019460   2.480   1.493   6.149  1.6151 -0.1982 -0.1268
   61MOL   H14119461   2.386   1.300   6.264  1.0295  0.6560 -1.5882
   61MOL   H14219462   2.588   1.414   6.615 -2.8635 -0.3167  0.0443
   61MOL   H14319463   2.672   1.624   6.503 -1.8023  1.0159 -0.3015
   61MOL   H14419464   2.710   1.600   6.075 -0.1247 -0.5648  0.6399
   61MOL   H14519465   2.751   1.758   6.072  1.8028  0.4113  0.6154
   61MOL   C14619466   2.890   1.647   6.197 -0.3023  0.4863  0.1254
   61MOL   C14719467   2.890   1.528   6.288  0.1297  0.1956 -0.0164
   61MOL   C14819468   2.862   1.398   6.245  0.2890 -0.0221 -0.6395
   61MOL   C14919469   2.870   1.287   6.335 -0.6463 -0.0038  0.1011
   61MOL   C15019470   2.914   1.300   6.463 -0.2741 -0.5348  0.0733
   61MOL   F15119471   2.926   1.198   6.548  0.0070  0.0505  0.1604
   61MOL   C15219472   2.952   1.426   6.510 -0.4379 -0.3887 -0.0531
   61MOL   C15319473   2.938   1.539   6.423 -0.2418 -0.8760  0.1484
   61MOL   C15419474   2.986   1.611   6.080 -0.6904 -0.5824 -0.2343
   61MOL   H15519475   2.933   1.733   6.249  0.5220 -0.1088  0.4415
   61MOL   H15619476   2.838   1.372   6.143  0.8702 -0.2079 -0.7265
   61MOL   H15719477   2.836   1.196   6.289 -1.8029  1.0021 -1.0598
   61MOL   H15819478   2.981   1.434   6.613 -1.3295  1.0560  0.1054
   61MOL   H15919479   2.962   1.635   6.468  1.9278 -0.1389 -2.4705
   61MOL   H16019480   3.070   1.561   6.129  0.8616  0.3510 -1.8974
   61MOL   H16119481   2.940   1.529   6.026  1.2726 -1.7672 -0.1472
   61MOL   C16219482   3.037   1.722   5.990  0.9464  0.6388 -0.1653
   61MOL   C16319483   3.064   1.854   6.059  0.4254 -0.1174  0.1273
   61MOL   C16419484   3.003   1.970   6.009  0.3027  0.4500 -0.0157
   61MOL   C16519485   3.039   2.099   6.058 -0.7330 -0.3652 -1.6144
   61MOL   C16619486   3.138   2.108   6.154  0.0249  0.3879  0.1867
   61MOL   F16719487   3.166   2.226   6.217  0.1096  0.0066 -0.5818
   61MOL   C16819488   3.202   1.990   6.207 -0.0077  0.6278  0.3582
   61MOL   C16919489   3.166   1.866   6.155 -0.0822 -0.6387 -0.5990
   61MOL   C17019490   3.148   1.666   5.899 -0.0673 -0.4651 -0.7362
   61MOL   H17119491   2.949   1.751   5.933  1.9248  2.2480 -0.8738
   61MOL   H17219492   2.919   1.955   5.943 -0.4620 -0.0231  1.0588
   61MOL   H17319493   2.991   2.187   6.018 -0.9512  0.6272  0.7881
   61MOL   H17419494   3.277   2.002   6.284 -0.2518 -1.1619  0.8833
   61MOL   H17519495   3.212   1.777   6.194 -1.7125 -2.0919 -1.9169
   61MOL   H17619496   3.238   1.642   5.955 -1.1070 -3.0760 -0.1189
   61MOL   H17719497   3.109   1.566   5.880  0.0294 -0.8570  1.0774
   61MOL   C17819498   3.165   1.743   5.765  0.3745 -0.1175  0.5763
   61MOL   C17919499   3.278   1.846   5.764  0.3148  0.5098  0.0186
   61MOL   C18019500   3.394   1.831   5.842  0.8544  0.2194  0.0129
   61MOL   C18119501   3.482   1.938   5.849 -0.1514  0.1510  0.3749
   61MOL   C18219502   3.470   2.046   5.760 -0.2789  0.4070  0.0848
   61MOL   F18319503   3.582   2.129   5.747  0.1144  0.3082  0.9653
   61MOL   C18419504   3.354   2.056   5.683 -0.8972 -0.8214  0.0980
   61MOL   C18519505   3.257   1.953   5.684 -0.3643  0.1860  0.1215
   61MOL   C18619506   3.179   1.644   5.647  0.0179  0.0160 -0.7921
   61MOL   H18719507   3.068   1.791   5.749 -0.2319 -1.6484 -0.4477
   61MOL   H18819508   3.399   1.753   5.916 -1.4094  0.8065  0.8011
   61MOL   H18919509   3.561   1.914   5.919  0.9306  0.9314 -0.5561
   61MOL   H19019510   3.333   2.144   5.624  0.8480  0.1494  0.8918
   61MOL   H19119511   3.168   1.970   5.624 -0.3076 -0.4393 -0.1375
   61MOL   H19219512   3.237   1.688   5.567  0.1782  1.2153 -0.0236
   61MOL   H19319513   3.243   1.567   5.690 -1.6514  0.3772  2.5378
   61MOL   C19419514   3.040   1.589   5.599 -0.1246  0.9687 -0.4891
   61MOL   C19519515   2.950   1.695   5.548 -0.2052 -0.0627  0.0366
   61MOL   C19619516   2.978   1.776   5.434  0.3399 -0.2694  0.2003
   61MOL   C19719517   2.884   1.867   5.381 -0.1911 -0.0590 -0.5112
   61MOL   C19819518   2.767   1.889   5.451  0.6689  0.5578  0.8024
   61MOL   F19919519   2.673   1.970   5.402  0.0768 -0.2469  0.4602
   61MOL   C20019520   2.742   1.828   5.582  0.0030 -0.2074 -1.2385
   61MOL   C20119521   2.831   1.726   5.627  0.3827 -0.8077  0.1381
   61MOL   C20219522   3.060   1.470   5.498 -0.3173  0.7010 -0.3636
   61MOL   H20319523   2.999   1.540   5.686  1.7920 -0.6743 -0.4774
   61MOL   H20419524   3.067   1.754   5.377  0.3500 -0.3880  0.2614
   61MOL   H20519525   2.899   1.901   5.279 -2.4524 -0.1902 -0.9188
   61MOL   H20619526   2.649   1.846   5.634  0.4869 -0.0332 -0.4247
   61MOL   H20719527   2.805   1.664   5.712  2.9888 -0.1332  1.4724
   61MOL   H20819528   2.960   1.435   5.473 -0.5567  0.2749  1.1366
   61MOL   H20919529   3.111   1.494   5.405  1.3494 -0.6232  0.1794
   61MOL   C21019530   3.138   1.351   5.543 -0.7202  0.6230 -0.2528
   61MOL   C21119531   3.093   1.291   5.678 -0.0518  0.0616  0.6792
   61MOL   C21219532   3.184   1.274   5.789 -0.3273 -0.2566  0.3709
   61MOL   C21319533   3.132   1.224   5.910 -0.4836 -0.0008  0.8292
   61MOL   C21419534   2.997   1.185   5.918 -0.3150  0.2658 -0.1162
   61MOL   F21519535   2.964   1.115   6.026 -0.0154 -0.4956  0.1734
   61MOL   C21619536   2.909   1.186   5.812 -0.8375 -0.7905 -0.2477
   61MOL   C21719537   2.962   1.251   5.698  0.2337  0.7312  0.0118
   61MOL   C21819538   3.155   1.241   5.437 -0.3899 -0.8471  0.7017
   61MOL   H21919539   3.239   1.384   5.564  0.0180  0.0772 -2.7347
   61MOL   H22019540   3.287   1.308   5.787 -1.0420  1.9575 -2.1926
   61MOL   H22119541   3.203   1.212   5.990 -1.0349 -1.1011  1.1580
   61MOL   H22219542   2.808   1.150   5.806 -1.3220  0.4014  0.5371
   61MOL   H22319543   2.882   1.263   5.626  0.9622 -1.1926 -1.1581
   61MOL   H22419544   3.097   1.153   5.462  1.0919 -1.8308  0.7520
   61MOL   H22519545   3.117   1.275   5.340 -0.9715 -1.0402  0.8631
   61MOL   C22619546   3.303   1.205   5.403 -0.1076 -0.4462  0.0719
   61MOL   C22719547   3.369   1.132   5.520 -0.0141 -0.7305  0.6063
   61MOL   C22819548   3.487   1.187   5.571 -0.2168  0.4799  0.8234
   61MOL   C22919549   3.547   1.120   5.679  0.1720 -0.3475  0.1059
   61MOL   C23019550   3.493   1.005   5.729 -0.0901 -0.1098 -0.1908
   61MOL   F23119551   3.549   0.950   5.840 -0.2810  0.7397  0.0953
   61MOL   C23219552   3.379   0.942   5.669  0.7087 -0.5340 -0.0666
   61MOL   C23319553   3.311   1.012   5.570 -0.1754 -0.0768 -0.5201
   61MOL   C23419554   3.315   1.143   5.264 -0.3644  1.0047  0.4868
   61MOL   H23519555   3.363   1.296   5.394 -0.0859 -0.5609 -1.1064
   61MOL   H23619556   3.523   1.281   5.533 -2.4271  0.7498 -0.6554
   61MOL   H23719557   3.643   1.146   5.722  1.5328 -2.7030 -1.3867
   61MOL   H23819558   3.343   0.845   5.700 -3.9346  1.2539  0.6025
   61MOL   H23919559   3.223   0.980   5.517  0.0181  0.7548 -1.3657
   61MOL   H24019560   3.247   1.058   5.263  2.7131 -1.5378  0.8382
   61MOL   H24119561   3.283   1.222   5.196  2.3858  0.7364 -1.2037
   61MOL   C24219562   3.462   1.105   5.227  0.2006  0.3049  0.8683
   61MOL   C24319563   3.457   1.030   5.095  0.3605 -0.0008  0.2545
   61MOL   C24419564   3.405   1.091   4.974  0.8384  0.0669  0.3379
   61MOL   C24519565   3.397   1.011   4.852  0.0972 -0.5247  0.3838
   61MOL   C24619566   3.438   0.880   4.856  0.1196  0.1883  0.6233
   61MOL   F24719567   3.420   0.810   4.748 -0.2501  0.2168  0.0050
   61MOL   C24819568   3.480   0.819   4.974  0.3988 -0.5359  0.2599
   61MOL   C24919569   3.498   0.898   5.092 -0.0694  0.1558 -0.0651
   61MOL   C25019570   3.539   1.240   5.210 -0.1650  0.3340  0.4002
   61MOL   H25119571   3.505   1.049   5.310 -0.6320  0.4348  1.3957
   61MOL   H25219572   3.370   1.192   4.961 -2.8417 -1.0228  1.0613
   61MOL   H25319573   3.372   1.053   4.755  2.9273 -4.2478 -2.1346
   61MOL   H25419574   3.507   0.715   4.960  0.1967 -0.4641 -0.6587
   61MOL   H25519575   3.540   0.853   5.181 -1.9114 -1.4649  0.0246
   61MOL   H25619576   3.492   1.298   5.131 -0.0859 -0.0602  0.0589
   61MOL   H25719577   3.535   1.307   5.296  0.3934 -0.6057  1.1845
   61MOL   C25819578   3.686   1.214   5.171 -0.0622  0.3867  0.0241
   61MOL   C25919579   3.738   1.329   5.081  0.0408 -0.1132 -0.7219
   61MOL   C26019580   3.761   1.452   5.147 -0.2555 -1.2037 -0.1524
   61MOL   C26119581   3.812   1.561   5.077 -0.1004  0.5535  0.5154
   61MOL   C26219582   3.856   1.551   4.945 -0.0142  0.8158 -0.6384
   61MOL   F26319583   3.920   1.652   4.885 -0.1542  0.1746  0.0422
   61MOL   C26419584   3.841   1.426   4.875 -0.4446 -0.0046 -0.3356
   61MOL   C26519585   3.772   1.319   4.946  0.8231 -0.2548 -0.4109
   61MOL   C26619586   3.768   1.179   5.291  0.0610  0.2294  0.2789
   61MOL   H26719587   3.682   1.133   5.098  0.0114 -1.5681  2.1364
   61MOL   H26819588   3.751   1.461   5.254  0.1932  2.0658 -0.3511
   61MOL   H26919589   3.822   1.656   5.127  1.2514  0.5828  0.2306
   61MOL   H27019590   3.864   1.414   4.770  0.1237  0.3716 -0.2576
   61MOL   H27119591   3.749   1.222   4.905 -2.3993  0.6846 -0.9290
   61MOL   H27219592   3.762   1.261   5.363 -1.5270  2.3254 -2.1509
   61MOL   H27319593   3.741   1.084   5.337  0.7810 -0.5030 -0.7951
   61MOL   C27419594   3.918   1.172   5.260  0.4321  0.1338 -0.2216
   61MOL   C27519595   3.995   1.220   5.381 -0.4572 -0.0180 -0.1414
   61MOL   C27619596   4.012   1.358   5.409  0.0526 -0.2366 -0.6799
   61MOL   C27719597   4.082   1.413   5.517 -0.3317 -0.5362  0.5729
   61MOL   C27819598   4.139   1.322   5.603  0.5171  0.2715 -1.2439
   61MOL   F27919599   4.207   1.365   5.712  0.6432  0.1337  0.3088
   61MOL   C28019600   4.116   1.186   5.587  0.2050  0.1172 -0.3764
   61MOL   C28119601   4.051   1.131   5.476  0.6545  0.3859 -0.1927
   61MOL   C28219602   3.955   1.028   5.204 -0.1850  0.2880 -0.2411
   61MOL   H28319603   3.937   1.244   5.181 -2.9106 -0.4197 -1.6389
   61MOL   H28419604   3.963   1.420   5.335  2.5139  1.3579 -1.0344
   61MOL   H28519605   4.079   1.520   5.529  0.2993 -0.3009 -1.1998
   61MOL   H28619606   4.144   1.111   5.659  0.4347  0.0037 -0.5823
   61MOL   H28719607   4.042   1.024   5.471  3.1823 -0.0528  2.7861
   61MOL   H28819608   3.961   0.960   5.289 -0.0617  1.0028  0.3337
   61MOL   H28919609   3.876   0.991   5.139  0.6954  0.7572 -1.5863
   61MOL   C29019610   4.083   1.029   5.125 -0.4666  0.2549  0.0191
   61MOL   C29119611   4.151   0.886   5.127 -0.0107  0.0300 -0.0106
   61MOL   C29219612   4.263   0.858   5.212 -0.2994 -0.4882 -0.2945
   61MOL   C29319613   4.318   0.727   5.207  0.4463  0.6534  0.4400
   61MOL   C29419614   4.270   0.629   5.114  0.0495  0.1951  0.0217
   61MOL   F29519615   4.332   0.510   5.106 -0.2171 -0.1378 -0.7034
   61MOL   C29619616   4.151   0.649   5.046 -0.3419 -0.7838 -0.1532
   61MOL   C29719617   4.094   0.781   5.048 -0.2815 -0.1489  0.4219
   61MOL   C29819618   4.062   1.084   4.981  0.0868 -0.3485 -0.4444
   61MOL   H29919619   4.160   1.089   5.175  2.2222 -1.1865 -2.2335
   61MOL   H30019620   4.300   0.927   5.286  0.7591 -0.7948 -0.5344
   61MOL   H30119621   4.406   0.713   5.269  1.6193  2.0846 -0.8533
   61MOL   H30219622   4.108   0.578   4.976 -0.0683  0.0047 -1.1241
   61MOL   H30319623   4.007   0.798   4.986  0.3130 -2.4382 -1.1020
   61MOL   H30419624   4.007   1.018   4.915  0.5829 -0.9618 -0.2479
   61MOL   H30519625   3.985   1.160   4.991  0.9407  0.4604  0.0826
   61MOL   C30619626   4.181   1.146   4.903 -0.3695  0.1236  0.3083
   61MOL   C30719627   4.232   1.274   4.965 -0.7905 -0.3413  0.0305
   61MOL   C30819628   4.318   1.273   5.077 -0.1760 -0.1607  0.2662
   61MOL   C30919629   4.367   1.392   5.134 -0.2845  0.1037 -0.2038
   61MOL   C31019630   4.332   1.511   5.074 -0.1693  0.4177  0.6983
   61MOL   F31119631   4.377   1.627   5.138  0.0509  0.0254  0.1769
   61MOL   C31219632   4.250   1.519   4.960 -0.3620  0.3639  0.2080
   61MOL   C31319633   4.200   1.398   4.903  0.2558  0.1762 -0.3572
   61MOL   C31419634   4.286   1.039   4.880 -0.8286  0.6462  0.8525
   61MOL   H31519635   4.153   1.176   4.802 -0.6429 -3.1895 -0.6491
   61MOL   H31619636   4.358   1.180   5.114 -0.0193 -0.5362 -0.8320
   61MOL   H31719637   4.436   1.390   5.217 -2.4375 -1.3206  1.6217
   61MOL   H31819638   4.233   1.606   4.898 -1.8839 -0.9084 -1.1926
   61MOL   H31919639   4.142   1.392   4.812  0.6961  1.5098 -0.7412
   61MOL   H32019640   4.350   1.049   4.793 -0.3140 -0.3377  1.1035
   61MOL   H32119641   4.345   1.029   4.972  0.7655  0.2693 -0.1931
   61MOL   H32219642   4.236   0.946   4.855  0.7411  0.3463 -1.3314
   62MOL     C119643   8.177   6.693   3.534 -0.5861  0.3405 -0.4823
   62MOL     C219644   8.103   6.600   3.620  0.5220  0.0695  0.2622
   62MOL     C319645   8.071   6.469   3.581  0.7743 -0.6326 -0.1901
   62MOL     C419646   8.007   6.387   3.674  0.4014 -0.5761  1.1102
   62MOL     C519647   7.974   6.432   3.803  0.0404 -0.1210  0.5584
   62MOL     F619648   7.914   6.345   3.883  0.1517 -0.0735  0.9788
   62MOL     C719649   8.010   6.560   3.849  0.0544  0.0396 -0.0237
   62MOL     C819650   8.074   6.645   3.756  0.0539  0.1069 -0.4180
   62MOL     C919651   0.080   6.730   3.577  0.6113  0.7372  0.8723
   62MOL    H1019652   8.112   6.780   3.524  1.8289  2.0921 -1.5702
   62MOL    H1119653   8.108   6.421   3.492 -0.5023 -0.2852 -0.9155
   62MOL    H1219654   7.972   6.289   3.643  0.5735 -0.7923  1.5932
   62MOL    H1319655   7.995   6.574   3.955 -3.4948 -1.5058 -0.2406
   62MOL    H1419656   8.101   6.743   3.794 -2.9514  1.1506 -0.8120
   62MOL    H1519657   0.075   6.776   3.675 -3.0919  1.7500  0.3010
   62MOL    H1619658   0.137   6.638   3.592 -1.4544 -1.0243 -1.4977
   62MOL    H1719659   8.182   6.657   3.431  1.8089 -1.4064  0.2156
   62MOL    C1819660   0.157   6.836   3.490  0.0162  0.1012 -0.5196
   62MOL    C1919661   0.077   6.967   3.478 -0.6740  0.5300  0.1682
   62MOL    C2019662   0.070   7.053   3.586 -0.0364 -0.4818  0.2404
   62MOL    C2119663   0.019   7.180   3.574  0.3514 -1.2259 -0.2727
   62MOL    C2219664   8.201   7.218   3.447 -0.0444 -0.1481  0.0509
   62MOL    F2319665   8.137   7.344   3.437  0.3003  0.0580 -0.4047
   62MOL    C2419666   8.195   7.131   3.338  0.0960 -0.1971  0.5333
   62MOL    C2519667   0.020   7.008   3.353 -0.5369 -0.4136  0.3933
   62MOL    C2619668   0.301   6.852   3.534 -0.6125 -0.6782  0.5067
   62MOL    H2719669   0.149   6.805   3.385 -1.1401 -3.8545  0.6388
   62MOL    H2819670   0.104   7.035   3.687  2.6589  0.2941 -0.4837
   62MOL    H2919671   0.038   7.251   3.653 -1.9389 -0.6074 -0.2671
   62MOL    H3019672   8.140   7.155   3.249  1.3664  0.0018 -0.1989
   62MOL    H3119673   0.031   6.942   3.269  0.4587  2.6922 -2.0050
   62MOL    H3219674   0.343   6.931   3.471 -0.7240  0.9915  2.4498
   62MOL    H3319675   0.297   6.901   3.631 -4.4239 -0.3917  0.2706
   62MOL    C3419676   0.390   6.721   3.541 -0.1409  0.4755 -1.0637
   62MOL    C3519677   0.379   6.627   3.422  0.1022  0.3715  0.9045
   62MOL    C3619678   0.304   6.508   3.424 -0.0347 -0.5503 -0.0293
   62MOL    C3719679   0.299   6.424   3.312  0.3862 -0.4362 -0.0508
   62MOL    C3819680   0.380   6.458   3.194 -0.9887 -0.3782 -0.4575
   62MOL    F3919681   0.402   6.362   3.099  0.0923 -0.2038 -0.2936
   62MOL    C4019682   0.450   6.578   3.186 -0.4025 -0.3736  0.3622
   62MOL    C4119683   0.445   6.659   3.303 -0.0793 -0.7496 -0.8198
   62MOL    C4219684   0.543   6.748   3.582 -0.6840 -0.1803 -0.1888
   62MOL    H4319685   0.340   6.664   3.619  0.9729 -0.5919 -1.1075
   62MOL    H4419686   0.255   6.486   3.517 -0.5001  1.5723  0.2442
   62MOL    H4519687   0.242   6.333   3.321 -0.7881  0.3782  0.9378
   62MOL    H4619688   0.499   6.617   3.099  1.5496 -0.1438  1.5382
   62MOL    H4719689   0.501   6.752   3.302 -0.5132 -0.4862 -0.7536
   62MOL    H4819690   0.598   6.656   3.561 -0.2501  0.3485 -1.4294
   62MOL    H4919691   0.579   6.830   3.520  2.6687  0.9302  3.0444
   62MOL    C5019692   0.562   6.793   3.729  0.5359 -0.4206 -0.0774
   62MOL    C5119693   0.548   6.667   3.818  0.3791  0.5630 -0.0524
   62MOL    C5219694   0.425   6.649   3.883 -0.2922  0.2439  0.0904
   62MOL    C5319695   0.398   6.537   3.960 -0.1078 -0.6792  0.2108
   62MOL    C5419696   0.493   6.434   3.969 -1.3302  0.0828 -0.4234
   62MOL    F5519697   0.477   6.328   4.051 -0.2288 -0.0952 -0.4480
   62MOL    C5619698   0.619   6.454   3.907  0.0235  0.3310 -0.5843
   62MOL    C5719699   0.648   6.571   3.834  0.0729  0.0216 -0.5482
   62MOL    C5819700   0.689   6.871   3.766 -0.5685  0.2110 -0.0973
   62MOL    H5919701   0.481   6.862   3.755 -1.3048 -2.0548 -1.3126
   62MOL    H6019702   0.354   6.730   3.881 -1.3595 -0.6388  1.1525
   62MOL    H6119703   0.305   6.529   4.014 -0.8622  1.1385 -0.7805
   62MOL    H6219704   0.688   6.373   3.921  0.9260  0.9013 -1.7178
   62MOL    H6319705   0.742   6.570   3.780  0.7544  0.8123  0.5855
   62MOL    H6419706   0.690   6.886   3.874 -3.7121  0.3371 -0.0400
   62MOL    H6519707   0.774   6.806   3.743 -0.6073 -0.6561  2.1290
   62MOL    C6619708   0.707   7.008   3.697  0.3895  0.3132  0.0603
   62MOL    C6719709   0.592   7.101   3.723  0.6672 -0.1910 -0.5395
   62MOL    C6819710   0.549   7.131   3.857 -0.0098 -0.4694 -1.0119
   62MOL    C6919711   0.430   7.205   3.883  0.0880  0.2675 -0.1482
   62MOL    C7019712   0.360   7.261   3.773  0.9131 -0.1100  0.4935
   62MOL    F7119713   0.245   7.325   3.793 -0.0126  0.3824  0.5118
   62MOL    C7219714   0.394   7.227   3.643 -0.5380 -0.3680  0.0813
   62MOL    C7319715   0.512   7.150   3.619  0.2197  0.1729  0.4435
   62MOL    C7419716   0.844   7.064   3.723  0.1729  0.5722 -0.0866
   62MOL    H7519717   0.705   6.989   3.590 -2.1893 -1.6083  0.3993
   62MOL    H7619718   0.606   7.105   3.945  0.8565 -1.1423 -1.7519
   62MOL    H7719719   0.392   7.226   3.981  1.9881  0.8466  0.4775
   62MOL    H7819720   0.347   7.262   3.552  4.1842  0.8856 -2.0782
   62MOL    H7919721   0.546   7.122   3.520 -3.2935  0.9248 -1.0792
   62MOL    H8019722   0.859   7.092   3.827 -1.7102 -2.5158  1.1028
   62MOL    H8119723   0.912   6.985   3.689 -2.6593 -1.2991 -1.5734
   62MOL    C8219724   0.887   7.187   3.637  0.1426  0.7267 -0.2254
   62MOL    C8319725   0.805   7.310   3.681  0.1788  0.5471  0.5878
   62MOL    C8419726   0.731   7.385   3.587  0.1517 -0.0422 -0.2531
   62MOL    C8519727   0.663   7.499   3.622 -0.1575  0.3106  0.3442
   62MOL    C8619728   0.678   7.555   3.751 -0.5761 -0.3945  0.7199
   62MOL    F8719729   0.602   7.661   3.788 -0.2077  0.2919  0.8234
   62MOL    C8819730   0.751   7.485   3.842 -0.1861 -0.3572 -0.1171
   62MOL    C8919731   0.820   7.366   3.804 -0.1492 -0.5276  0.0164
   62MOL    C9019732   1.040   7.212   3.651 -0.0165 -0.4042  0.4534
   62MOL    H9119733   0.855   7.167   3.535 -2.0514 -0.1841  0.5959
   62MOL    H9219734   0.728   7.335   3.491  2.3255 -0.0802 -0.3427
   62MOL    H9319735   0.606   7.546   3.544 -0.8560  0.4645  0.9462
   62MOL    H9419736   0.776   7.534   3.935 -2.0285  0.1826  0.1057
   62MOL    H9519737   0.879   7.318   3.881  0.6916 -0.4961 -0.6076
   62MOL    H9619738   1.055   7.269   3.742  0.0653 -0.7009  0.6263
   62MOL    H9719739   1.095   7.118   3.657 -1.5611 -1.4497 -1.1035
   62MOL    C9819740   1.107   7.285   3.526  0.4711  0.1708 -0.0320
   62MOL    C9919741   1.041   7.424   3.492 -0.2089 -0.4016 -0.7167
   62MOL   C10019742   0.993   7.454   3.362 -0.1583 -0.3546  0.1574
   62MOL   C10119743   0.928   7.578   3.339  0.0049 -0.5332 -0.2692
   62MOL   C10219744   0.925   7.677   3.436  0.2717  0.0245 -0.6402
   62MOL   F10319745   0.848   7.787   3.420 -0.2048  0.4064  0.0340
   62MOL   C10419746   0.972   7.644   3.564  0.3920 -0.7212 -0.5349
   62MOL   C10519747   1.032   7.523   3.593  0.4371 -0.6764  0.3457
   62MOL   C10619748   1.263   7.311   3.533 -0.4754 -0.5240  0.2066
   62MOL   H10719749   1.097   7.218   3.440  0.9691  1.5862 -1.2287
   62MOL   H10819750   1.014   7.387   3.280 -0.7941 -0.1327 -0.1899
   62MOL   H10919751   0.889   7.604   3.242  0.6191  0.1206 -0.3469
   62MOL   H11019752   0.956   7.721   3.638 -2.4135 -1.3668 -0.4048
   62MOL   H11119753   1.070   7.507   3.692 -1.6288  1.7923  1.5738
   62MOL   H11219754   1.302   7.387   3.465 -0.2186  0.3742  1.3380
   62MOL   H11319755   1.270   7.364   3.628 -1.5155  1.1707 -0.6381
   62MOL   C11419756   1.355   7.191   3.516  0.5264  0.0797 -0.4924
   62MOL   C11519757   1.380   7.160   3.370 -0.2617  0.5776  0.2265
   62MOL   C11619758   1.430   7.260   3.281 -0.3792 -0.9123  0.3251
   62MOL   C11719759   1.468   7.234   3.146  0.0976 -0.6235 -0.1417
   62MOL   C11819760   1.464   7.103   3.101 -0.2220  0.5024  0.1650
   62MOL   F11919761   1.490   7.066   2.971  0.6079 -0.5863  0.0032
   62MOL   C12019762   1.417   7.005   3.184  0.5306  0.3724 -0.0953
   62MOL   C12119763   1.364   7.029   3.311  0.3441 -0.1729  0.0406
   62MOL   C12219764   1.500   7.209   3.580 -0.7484  0.0985 -0.1754
   62MOL   H12319765   1.317   7.097   3.557 -0.8655 -0.0855 -2.0821
   62MOL   H12419766   1.430   7.366   3.300  1.7022 -0.7453 -0.5282
   62MOL   H12519767   1.487   7.312   3.073 -2.8909 -1.0843 -1.4640
   62MOL   H12619768   1.419   6.911   3.131  2.1752  1.0889 -1.3697
   62MOL   H12719769   1.324   6.956   3.380  1.9067 -0.4394  0.6792
   62MOL   H12819770   1.573   7.145   3.531 -0.9415 -2.0002  2.2039
   62MOL   H12919771   1.532   7.311   3.556 -0.2494 -0.4292 -1.7866
   62MOL   C13019772   1.486   7.196   3.734 -0.0813  0.4688  0.1379
   62MOL   C13119773   1.446   7.055   3.778  0.0157  0.2420 -0.5901
   62MOL   C13219774   1.319   7.023   3.828  0.5230  0.0484  0.2777
   62MOL   C13319775   1.268   6.894   3.850  0.4929 -0.1716  0.6926
   62MOL   C13419776   1.366   6.792   3.854  0.5325  0.2983  0.9480
   62MOL   F13519777   1.324   6.662   3.882  0.0042 -0.3291  0.0961
   62MOL   C13619778   1.500   6.816   3.825 -0.9155  0.5623  0.0922
   62MOL   C13719779   1.539   6.944   3.784 -0.0279 -0.2437  0.7898
   62MOL   C13819780   1.614   7.247   3.804 -0.2059 -0.3014 -0.3896
   62MOL   H13919781   1.403   7.257   3.770 -0.9015 -0.9828  0.7738
   62MOL   H14019782   1.247   7.098   3.857 -0.4997 -1.6849  2.4139
   62MOL   H14119783   1.162   6.883   3.869  0.7019 -1.7082  1.0119
   62MOL   H14219784   1.573   6.736   3.823  0.0504  1.3931  1.5669
   62MOL   H14319785   1.640   6.959   3.750 -0.6052 -1.9816 -1.8750
   62MOL   H14419786   1.601   7.238   3.911 -0.5748 -1.2191 -0.5089
   62MOL   H14519787   1.695   7.175   3.792 -1.0941 -1.1774 -1.3546
   62MOL   C14619788   1.645   7.392   3.776 -0.6159  0.0805 -0.1997
   62MOL   C14719789   1.520   7.482   3.778  0.1261  0.4263 -0.0785
   62MOL   C14819790   1.453   7.501   3.903  0.4601 -0.1477  0.4613
   62MOL   C14919791   1.328   7.572   3.899  1.3172  1.4951 -0.5238
   62MOL   C15019792   1.284   7.630   3.779 -1.1463  0.3509  0.5877
   62MOL   F15119793   1.181   7.714   3.775  0.1607  0.0972 -0.2217
   62MOL   C15219794   1.365   7.631   3.667  0.0502  0.5900  0.4644
   62MOL   C15319795   1.477   7.545   3.661  0.1568  0.1810  0.7490
   62MOL   C15419796   1.766   7.447   3.860  0.0467  0.4612  0.3494
   62MOL   H15519797   1.682   7.401   3.674  1.0565  0.4826  0.4181
   62MOL   H15619798   1.487   7.442   3.987 -0.0104 -1.7957 -0.4853
   62MOL   H15719799   1.282   7.586   3.995 -0.7791  1.7618 -1.5537
   62MOL   H15819800   1.349   7.691   3.579  0.1700 -0.6670 -0.4193
   62MOL   H15919801   1.536   7.556   3.572 -2.3037 -0.2944 -1.0065
   62MOL   H16019802   1.741   7.453   3.965  1.7661  0.5799  0.7683
   62MOL   H16119803   1.847   7.375   3.871  3.2789  3.8082 -0.6689
   62MOL   C16219804   1.812   7.589   3.813 -0.0954 -0.2791  0.2235
   62MOL   C16319805   1.900   7.648   3.921  0.7557  0.1290  0.7346
   62MOL   C16419806   2.024   7.600   3.943 -0.5417 -0.0938 -0.3948
   62MOL   C16519807   2.111   7.663   4.022  0.0517  0.7157 -0.2566
   62MOL   C16619808   2.068   7.771   4.097  0.2746  0.1325  0.0507
   62MOL   F16719809   2.150   7.833   4.184  0.0419  0.1693  0.0357
   62MOL   C16819810   1.935   7.822   4.090  0.4499 -0.2164  0.0809
   62MOL   C16919811   1.850   7.752   4.000 -0.2839  0.0972  0.6745
   62MOL   C17019812   1.875   7.581   3.668 -0.5808  0.1857 -0.2430
   62MOL   H17119813   1.726   7.654   3.806  0.8583  1.0263  0.5053
   62MOL   H17219814   2.066   7.522   3.881  0.4203  0.3750 -0.3578
   62MOL   H17319815   2.211   7.626   4.036 -0.0055 -0.4414 -2.7263
   62MOL   H17419816   1.918   7.912   4.147 -1.1444  1.0741 -2.3266
   62MOL   H17519817   1.751   7.791   3.984 -0.0356  0.0513 -1.1106
   62MOL   H17619818   1.948   7.501   3.680  0.7672  1.2879 -0.9922
   62MOL   H17719819   1.796   7.560   3.595 -2.1837  2.9126  0.6836
   62MOL   C17819820   1.946   7.711   3.629 -0.2505  0.4298  0.1305
   62MOL   C17919821   2.009   7.701   3.494 -0.3139 -0.4715  0.3006
   62MOL   C18019822   1.929   7.672   3.385  0.4342  0.5927  0.2007
   62MOL   C18119823   1.981   7.673   3.257  0.6906  0.4040 -0.1189
   62MOL   C18219824   2.123   7.696   3.240  0.3045  0.2217  0.8162
   62MOL   F18319825   2.185   7.708   3.123 -0.5833 -0.1009 -0.8446
   62MOL   C18419826   2.204   7.719   3.352 -0.0463  0.2846  0.3507
   62MOL   C18519827   2.150   7.719   3.482  0.5323  0.2784 -0.0452
   62MOL   C18619828   1.854   7.836   3.637 -0.0759 -0.7975  0.0294
   62MOL   H18719829   2.021   7.718   3.708  0.3006  0.0673 -0.3595
   62MOL   H18819830   1.823   7.659   3.399  0.2646  0.2807 -1.3105
   62MOL   H18919831   1.921   7.648   3.171  0.3840  0.2441  0.1412
   62MOL   H19019832   2.310   7.741   3.342 -0.2403  0.5615 -1.2819
   62MOL   H19119833   2.202   7.751   3.571 -3.5748  3.4550  1.3687
   62MOL   H19219834   1.794   7.842   3.546 -0.3883 -1.4786  0.1911
   62MOL   H19319835   1.783   7.835   3.720  0.4394  2.0641  0.5559
   62MOL   C19419836   1.937   7.969   3.645  0.0608 -0.3394  0.3751
   62MOL   C19519837   1.858   8.090   3.611  0.5219  0.5749  0.1026
   62MOL   C19619838   1.744   8.125   3.684  0.6392  0.3750  0.1079
   62MOL   C19719839   1.679   0.014   3.656  0.0547 -0.2980  0.3826
   62MOL   C19819840   1.733   0.106   3.566  0.5692  0.3251 -0.6088
   62MOL   F19919841   1.681   0.225   3.567 -0.0006 -0.5250 -0.1222
   62MOL   C20019842   1.846   0.074   3.493  0.1624 -0.8491 -0.0872
   62MOL   C20119843   1.905   8.180   3.514  0.8194 -0.7505 -0.1433
   62MOL   C20219844   2.027   7.988   3.770  0.2125  0.1247 -0.1975
   62MOL   H20319845   1.999   7.955   3.556 -0.4858 -1.3130  0.1358
   62MOL   H20419846   1.701   8.059   3.758 -0.8939 -1.5137 -2.3480
   62MOL   H20519847   1.602   0.051   3.721  0.1348  0.6456 -0.0469
   62MOL   H20619848   1.890   0.151   3.432 -0.0376 -0.6637  0.0054
   62MOL   H20719849   1.998   8.162   3.464 -0.1116  0.6724 -2.4464
   62MOL   H20819850   1.968   8.005   3.859  1.3448 -1.0996  0.8068
   62MOL   H20919851   2.092   7.901   3.789  0.8676  1.0046  1.7203
   62MOL   C21019852   2.111   8.117   3.767 -0.3873  0.7037 -0.6005
   62MOL   C21119853   2.137   8.164   3.908 -0.2492 -0.0309 -0.3498
   62MOL   C21219854   2.070   0.044   3.964 -0.5656  0.3752 -0.1035
   62MOL   C21319855   2.089   0.082   4.093 -0.5649  0.0415 -0.6086
   62MOL   C21419856   2.186   0.013   4.177  0.6066  0.3013  0.2290
   62MOL   F21519857   2.205   0.060   4.297  0.9111  0.2079 -0.3067
   62MOL   C21619858   2.270   8.149   4.123  0.8352 -0.7332  0.2759
   62MOL   C21719859   2.240   8.105   3.989 -0.2144  0.3329 -0.2881
   62MOL   C21819860   2.242   8.113   3.687 -0.2391  0.0935  0.1373
   62MOL   H21919861   2.039   8.192   3.737 -0.8320  0.5912  0.1969
   62MOL   H22019862   1.987   0.082   3.906 -0.6942 -1.9625 -1.5108
   62MOL   H22119863   2.046   0.170   4.138 -0.8216 -0.1506 -0.4763
   62MOL   H22219864   2.345   8.099   4.183  1.3218 -1.8419 -1.2413
   62MOL   H22319865   2.295   8.028   3.938  0.6206 -0.1440  1.2922
   62MOL   H22419866   2.307   8.032   3.719 -0.2983  0.3077  0.8112
   62MOL   H22519867   2.226   8.084   3.583 -1.6059 -0.1323  0.3988
   62MOL   C22619868   2.326   0.005   3.695  0.4874  0.3755  0.3623
   62MOL   C22719869   2.477   8.209   3.687  0.6631 -0.3348  0.8195
   62MOL   C22819870   2.529   8.174   3.559 -0.2369  0.1766  0.0525
   62MOL   C22919871   2.661   8.121   3.545  0.6526  0.1680  0.5029
   62MOL   C23019872   2.742   8.110   3.658 -0.0573  0.3631  0.2992
   62MOL   F23119873   2.864   8.050   3.656 -0.2312  0.1628 -0.1812
   62MOL   C23219874   2.694   8.146   3.789  0.0874 -0.3875 -0.4239
   62MOL   C23319875   2.566   8.203   3.800  0.4420  0.6445 -0.1786
   62MOL   C23419876   2.268   0.111   3.602 -0.0824 -0.2686 -0.4563
   62MOL   H23519877   2.318   0.044   3.797 -1.7156  0.8073  0.0563
   62MOL   H23619878   2.457   8.165   3.479 -1.4356 -0.6405  1.2083
   62MOL   H23719879   2.681   8.060   3.458 -0.4398 -2.1063  1.7909
   62MOL   H23819880   2.750   8.127   3.879  0.2991 -0.1266 -0.5013
   62MOL   H23919881   2.531   0.007   3.895  2.5507  2.8652 -0.2700
   62MOL   H24019882   2.306   0.087   3.503 -0.9547  1.2406 -1.1683
   62MOL   H24119883   2.160   0.095   3.593 -0.2295 -0.0966  0.9214
   62MOL   C24219884   2.320   0.256   3.642 -0.2037 -0.1746  0.0237
   62MOL   C24319885   2.312   0.351   3.524 -0.0151  0.4595 -0.5995
   62MOL   C24419886   2.429   0.360   3.451  0.7456 -0.3592 -0.1448
   62MOL   C24519887   2.436   0.454   3.344  0.7607 -0.4774  0.1405
   62MOL   C24619888   2.318   0.531   3.314  0.7194 -1.1198  0.2724
   62MOL   F24719889   2.323   0.623   3.216 -0.5561  0.0798  0.0496
   62MOL   C24819890   2.198   0.517   3.387  0.4446 -0.7475  0.5679
   62MOL   C24919891   2.189   0.410   3.482  0.0891 -0.0514  0.0439
   62MOL   C25019892   2.228   0.298   3.759  0.4092 -0.0006  0.4712
   62MOL   H25119893   2.422   0.253   3.679 -0.0640 -1.1921 -0.4306
   62MOL   H25219894   2.516   0.303   3.481  1.5614  2.0254  2.1310
   62MOL   H25319895   2.521   0.459   3.277  0.6007  2.8914  0.1288
   62MOL   H25419896   2.109   0.575   3.363  1.7703  2.0687  2.1822
   62MOL   H25519897   2.099   0.408   3.541 -0.8504  0.6743 -1.3245
   62MOL   H25619898   2.126   0.296   3.719  1.1038  0.9677 -1.3804
   62MOL   H25719899   2.225   0.233   3.847 -0.1344 -0.4101  0.1549
   62MOL   C25819900   2.248   0.439   3.822 -0.1206  0.1366 -0.2946
   62MOL   C25919901   2.114   0.496   3.867 -0.6058  0.0473 -0.7665
   62MOL   C26019902   2.104   0.638   3.862  0.5971  0.3014 -0.3987
   62MOL   C26119903   1.990   0.702   3.903 -0.0606 -0.3421  0.1415
   62MOL   C26219904   1.877   0.627   3.947  0.1082 -0.0027 -0.0830
   62MOL   F26319905   1.764   0.702   3.954 -0.9790  0.5580  0.3214
   62MOL   C26419906   1.882   0.488   3.957  0.2750  0.6397 -0.4014
   62MOL   C26519907   2.008   0.425   3.929  0.3843  0.5087  0.8409
   62MOL   C26619908   2.358   0.440   3.935 -0.4347 -0.8527  0.2213
   62MOL   H26719909   2.291   0.509   3.751 -0.5631  1.5157  0.7732
   62MOL   H26819910   2.184   0.693   3.814 -0.1611  0.9560 -0.9218
   62MOL   H26919911   1.995   0.810   3.897  0.6021 -0.3310  0.6852
   62MOL   H27019912   1.796   0.427   3.981 -0.3459  0.9041 -1.8752
   62MOL   H27119913   2.014   0.324   3.967 -2.8346 -1.5628 -3.6301
   62MOL   H27219914   2.306   0.449   4.030  0.3337  1.3458  0.4416
   62MOL   H27319915   2.400   0.340   3.949  0.6307 -0.4816 -0.2909
   62MOL   C27419916   2.472   0.540   3.925 -0.3012  0.5790 -0.0349
   62MOL   C27519917   2.554   0.539   4.053 -0.6732  0.1487 -0.0793
   62MOL   C27619918   2.631   0.432   4.098  0.0481  0.3785 -0.6295
   62MOL   C27719919   2.722   0.448   4.205  0.2966  0.4026  0.2431
   62MOL   C27819920   2.729   0.571   4.273  0.3520  0.5389 -1.7068
   62MOL   F27919921   2.819   0.594   4.371 -0.4144  0.2411  0.0392
   62MOL   C28019922   2.642   0.677   4.229 -0.1391 -0.7854  0.2571
   62MOL   C28119923   2.551   0.657   4.125  0.4071 -0.4747  0.3070
   62MOL   C28219924   2.569   0.515   3.801  0.0258 -0.0685 -0.7087
   62MOL   H28319925   2.433   0.640   3.909 -0.6194  0.1807 -1.9182
   62MOL   H28419926   2.636   0.343   4.038  3.9450 -0.5219  0.8938
   62MOL   H28519927   2.788   0.368   4.235 -0.2130 -0.2902 -0.4714
   62MOL   H28619928   2.650   0.779   4.264  0.1370 -0.6499 -0.1956
   62MOL   H28719929   2.495   0.743   4.093  3.0197  1.3580  0.5431
   62MOL   H28819930   2.612   0.416   3.788  0.3113 -0.5340  3.0196
   62MOL   H28919931   2.514   0.517   3.707  0.5733 -0.0341 -1.0304
   62MOL   C29019932   2.670   0.628   3.778  0.0718 -0.1623  0.3578
   62MOL   C29119933   2.814   0.585   3.821 -0.5984  0.7874 -0.3276
   62MOL   C29219934   2.886   0.657   3.912 -0.5194  0.4047  0.6476
   62MOL   C29319935   3.013   0.623   3.950 -0.0202  0.1036  0.1607
   62MOL   C29419936   3.076   0.505   3.898 -0.4438 -0.1155  0.1165
   62MOL   F29519937   3.206   0.482   3.923 -0.6430  0.3757  0.1007
   62MOL   C29619938   3.002   0.419   3.802  0.1829  0.4347  0.4042
   62MOL   C29719939   2.874   0.470   3.757  0.1457 -0.8840  0.0304
   62MOL   C29819940   2.673   0.672   3.631 -0.4200  0.0310 -0.7744
   62MOL   H29919941   2.639   0.717   3.834 -1.5085 -0.4158 -0.0868
   62MOL   H30019942   2.838   0.736   3.968 -1.1111 -0.3650  1.2343
   62MOL   H30119943   3.072   0.682   4.019 -0.4753  1.0114 -0.2247
   62MOL   H30219944   3.042   0.326   3.764  1.0274  0.9859 -0.0880
   62MOL   H30319945   2.822   0.418   3.679  0.3974  0.6099 -1.1630
   62MOL   H30419946   2.757   0.741   3.622 -0.9051  0.8917  1.0921
   62MOL   H30519947   2.699   0.583   3.574  1.9098  0.9243 -1.1422
   62MOL   C30619948   2.549   0.741   3.576 -0.2181 -0.7524  0.7912
   62MOL   C30719949   2.506   0.865   3.653  0.3574  0.2586 -0.3033
   62MOL   C30819950   2.596   0.961   3.711 -0.1983  0.1957  0.6261
   62MOL   C30919951   2.556   1.070   3.787  0.3425  0.2421 -0.5520
   62MOL   C31019952   2.415   1.071   3.820 -0.4060  0.1029  0.2080
   62MOL   F31119953   2.358   1.178   3.885  0.0838  0.2055  0.0124
   62MOL   C31219954   2.323   0.975   3.768 -0.4145  0.0263  0.2936
   62MOL   C31319955   2.368   0.874   3.684  0.1714 -0.1426  0.3586
   62MOL   C31419956   2.578   0.779   3.429 -0.0451 -0.4904 -0.5657
   62MOL   H31519957   2.461   0.676   3.577 -1.9775  1.4364 -1.9496
   62MOL   H31619958   2.703   0.947   3.705 -0.5757 -2.6802  0.0764
   62MOL   H31719959   2.625   1.142   3.829  2.0136 -1.6959  0.0445
   62MOL   H31819960   2.222   0.988   3.803  0.4251 -0.0137  2.8766
   62MOL   H31919961   2.300   0.801   3.643  1.0299 -1.6091  1.4988
   62MOL   H32019962   2.486   0.811   3.379 -0.5316 -0.0782  0.5686
   62MOL   H32119963   2.653   0.857   3.419 -0.3510  0.2419  2.5370
   62MOL   H32219964   2.618   0.699   3.366 -0.9666 -0.9475 -0.5885
   63MOL     C119965   3.430   1.770   0.898 -0.4968  0.1435  0.5375
   63MOL     C219966   3.452   1.711   1.033 -0.5976  0.1844  0.2598
   63MOL     C319967   3.577   1.663   1.067 -0.2520 -0.4602 -0.0466
   63MOL     C419968   3.582   1.589   1.192 -0.2737 -0.5310  0.5240
   63MOL     C519969   3.472   1.579   1.283 -0.7125  0.3013  0.7556
   63MOL     F619970   3.491   1.515   1.399 -0.4005  0.0686  0.2330
   63MOL     C719971   3.345   1.629   1.235 -0.2427 -0.2901 -0.2476
   63MOL     C819972   3.341   1.699   1.110 -0.0153  0.4113 -0.7999
   63MOL     C919973   3.392   1.917   0.890  0.0859 -0.6219  0.0279
   63MOL    H1019974   3.351   1.711   0.853  1.3881 -1.4944 -0.6691
   63MOL    H1119975   3.655   1.661   0.992 -0.4777  0.1797 -0.2991
   63MOL    H1219976   3.674   1.542   1.221  1.0430  0.6571 -1.5796
   63MOL    H1319977   3.255   1.627   1.295 -1.3312 -1.9463 -1.8935
   63MOL    H1419978   3.250   1.733   1.061 -0.2704  1.3997  0.3555
   63MOL    H1519979   3.384   1.950   0.786  0.1973  1.4401  0.6456
   63MOL    H1619980   3.294   1.933   0.935  0.5937  2.5911  0.0915
   63MOL    H1719981   3.513   1.761   0.829 -2.1764  0.6656 -1.6185
   63MOL    C1819982   3.499   2.002   0.968 -0.1285  0.0435  0.2298
   63MOL    C1919983   3.634   1.996   0.895 -0.1894 -0.3683 -0.0564
   63MOL    C2019984   3.758   1.944   0.953  0.1323 -0.2031 -0.8026
   63MOL    C2119985   3.870   1.926   0.870  0.1435  0.3103 -0.2010
   63MOL    C2219986   3.873   1.963   0.738 -0.2376  0.3429 -0.3082
   63MOL    F2319987   3.988   1.953   0.675 -0.9375 -0.5423 -0.0854
   63MOL    C2419988   3.756   2.018   0.675  0.3448  0.0069  0.0591
   63MOL    C2519989   3.643   2.043   0.758  0.1314 -0.1744  0.0018
   63MOL    C2619990   3.455   2.145   0.999  0.1269  0.4672 -0.3777
   63MOL    H2719991   3.518   1.955   1.065  0.6852 -1.4436 -0.6275
   63MOL    H2819992   3.771   1.932   1.060  2.2360  1.5180 -0.8117
   63MOL    H2919993   3.963   1.886   0.909 -0.8236 -0.5000  1.3481
   63MOL    H3019994   3.767   2.048   0.572 -0.0260  2.4690  0.7106
   63MOL    H3119995   3.553   2.066   0.703  0.8355  0.6138 -0.8355
   63MOL    H3219996   3.542   2.196   1.042 -0.6982  1.4065  0.2088
   63MOL    H3319997   3.444   2.174   0.895 -1.0583 -0.4126 -0.4972
   63MOL    C3419998   3.328   2.154   1.094  0.1376 -0.5308 -0.8040
   63MOL    C3519999   3.352   2.072   1.227 -0.5836 -0.3955 -0.5185
   63MOL    C3620000   3.465   2.103   1.314  0.5402 -0.0860  0.0424
   63MOL    C3720001   3.474   2.050   1.448  0.3267  0.2024 -0.7761
   63MOL    C3820002   3.372   1.958   1.487 -0.1090  0.1935  0.1344
   63MOL    F3920003   3.377   1.911   1.614 -0.2045 -0.3801  0.6016
   63MOL    C4020004   3.272   1.917   1.402 -0.3715 -0.5255 -0.3938
   63MOL    C4120005   3.255   1.978   1.276  0.1662 -0.2281 -0.3037
   63MOL    C4220006   3.283   2.305   1.123 -0.0355  0.1964 -0.0840
   63MOL    H4320007   3.245   2.106   1.043  1.4621 -1.4648 -2.1624
   63MOL    H4420008   3.535   2.180   1.286  1.7056 -1.1159  0.0924
   63MOL    H4520009   3.545   2.101   1.513 -1.6309  1.1152  0.7150
   63MOL    H4620010   3.198   1.844   1.429 -0.8710  0.3623  0.7167
   63MOL    H4720011   3.166   1.970   1.215 -1.8827  1.2406  2.3499
   63MOL    H4820012   3.372   2.352   1.165 -0.6721  1.2018  0.1475
   63MOL    H4920013   3.255   2.353   1.030  0.4527 -1.6848 -1.2222
   63MOL    C5020014   3.173   2.323   1.228  0.3255 -0.2963 -0.9683
   63MOL    C5120015   3.176   2.467   1.273  0.2965  0.2980 -0.4102
   63MOL    C5220016   3.227   2.505   1.400  1.0900 -0.0948 -0.2543
   63MOL    C5320017   3.240   2.636   1.442  0.1916  0.9264  0.8181
   63MOL    C5420018   3.214   2.738   1.343 -0.7991  0.0145  0.0507
   63MOL    F5520019   3.234   2.868   1.379  0.3345  0.0432  0.5252
   63MOL    C5620020   3.174   2.709   1.214  0.7325 -0.6034 -0.9681
   63MOL    C5720021   3.149   2.572   1.184  0.4108 -0.4989 -0.3102
   63MOL    C5820022   3.043   2.268   1.181 -0.2442 -0.2478 -0.0443
   63MOL    H5920023   3.185   2.257   1.314 -0.2027  0.4156 -0.3433
   63MOL    H6020024   3.248   2.425   1.469  1.3217  0.6205  0.5102
   63MOL    H6120025   3.285   2.654   1.538  1.0120  1.7319  0.2931
   63MOL    H6220026   3.152   2.788   1.144  0.5436  0.7311  0.5753
   63MOL    H6320027   3.131   2.538   1.083  1.4148 -1.0414 -0.3175
   63MOL    H6420028   3.013   2.311   1.085 -2.1248 -1.4910 -0.0448
   63MOL    H6520029   3.061   2.162   1.166  0.6101 -0.3488  1.6276
   63MOL    C6620030   2.917   2.271   1.278 -0.0211  1.1868 -0.0962
   63MOL    C6720031   2.780   2.252   1.207  0.0058 -0.0242 -0.1656
   63MOL    C6820032   2.679   2.354   1.223 -0.9066  0.3289  0.3823
   63MOL    C6920033   2.557   2.337   1.153  0.0296  0.3765 -0.3672
   63MOL    C7020034   2.537   2.229   1.070  0.3777  0.1070  0.4083
   63MOL    F7120035   2.422   2.227   0.996 -0.5629 -0.3156  0.7319
   63MOL    C7220036   2.639   2.131   1.047  0.8191 -0.0239 -0.6365
   63MOL    C7320037   2.759   2.142   1.123  0.2360  0.3159 -0.7709
   63MOL    C7420038   2.928   2.178   1.401 -0.8495  0.0728  0.1282
   63MOL    H7520039   2.914   2.373   1.316 -1.6765  1.4401 -0.8540
   63MOL    H7620040   2.697   2.436   1.290 -0.4273 -0.6425  1.4445
   63MOL    H7720041   2.474   2.407   1.150 -0.6102 -0.3587 -0.1032
   63MOL    H7820042   2.639   2.064   0.962 -0.8558 -1.0341  0.1453
   63MOL    H7920043   2.836   2.068   1.109 -1.4679 -1.5035 -0.7413
   63MOL    H8020044   2.877   2.089   1.366  0.6932 -0.9950  0.5485
   63MOL    H8120045   3.030   2.144   1.418 -0.7750  0.7688  1.1389
   63MOL    C8220046   2.867   2.233   1.527  0.1041 -0.2528  0.1887
   63MOL    C8320047   2.818   2.112   1.606 -0.0724  0.1653 -0.0513
   63MOL    C8420048   2.902   2.004   1.627  0.1115  0.0364 -0.7639
   63MOL    C8520049   2.853   1.898   1.709 -0.3935  0.7645 -0.1818
   63MOL    C8620050   2.716   1.892   1.751  0.0840 -0.1059  0.4712
   63MOL    F8720051   2.680   1.775   1.815  0.1089 -0.0060  0.0785
   63MOL    C8820052   2.633   1.994   1.711 -0.2142  0.1769 -1.2996
   63MOL    C8920053   2.690   2.108   1.649  0.3839 -0.8459 -0.1475
   63MOL    C9020054   2.951   2.336   1.601  0.1785  0.1301 -0.2469
   63MOL    H9120055   2.777   2.286   1.494 -1.1662 -2.8701 -0.6433
   63MOL    H9220056   3.001   1.994   1.586 -0.3380 -1.9292 -1.4211
   63MOL    H9320057   2.912   1.809   1.724  0.9289  1.7852  0.7970
   63MOL    H9420058   2.531   1.982   1.745  0.0075 -0.1672 -0.7367
   63MOL    H9520059   2.617   2.179   1.615 -0.4752 -1.6926 -0.1033
   63MOL    H9620060   3.042   2.279   1.619  1.3547  2.0412 -0.0519
   63MOL    H9720061   2.975   2.423   1.539 -2.5511  0.5011 -0.8445
   63MOL    C9820062   2.898   2.398   1.733  0.0889 -0.0545  0.2690
   63MOL    C9920063   3.011   2.457   1.818 -0.0603 -0.0584 -0.5127
   63MOL   C10020064   3.096   2.559   1.770 -0.1000 -0.7664 -0.6643
   63MOL   C10120065   3.198   2.611   1.851  0.3244 -0.0522  0.1610
   63MOL   C10220066   3.237   2.545   1.969 -0.9581  0.6892  0.0663
   63MOL   F10320067   3.336   2.600   2.042  0.3152 -0.3912  0.2676
   63MOL   C10420068   3.167   2.432   2.012  0.3580  0.3724 -0.4396
   63MOL   C10520069   3.044   2.393   1.941  0.4273 -0.8555 -0.3098
   63MOL   C10620070   2.788   2.494   1.700 -0.2058 -0.3157  0.7319
   63MOL   H10720071   2.850   2.321   1.794  0.2266 -0.3664 -0.0139
   63MOL   H10820072   3.070   2.617   1.683  3.1418 -0.0810 -1.2359
   63MOL   H10920073   3.261   2.692   1.819  0.1055 -0.2295 -0.7307
   63MOL   H11020074   3.197   2.388   2.106 -2.4075 -1.3840 -0.3238
   63MOL   H11120075   2.985   2.309   1.977 -0.4335 -0.6876 -1.3321
   63MOL   H11220076   2.831   2.573   1.638 -1.0346  0.7375  1.4786
   63MOL   H11320077   2.717   2.449   1.630  0.4445 -0.4058  0.1293
   63MOL   C11420078   2.707   2.558   1.818 -0.1920  1.0570  0.1764
   63MOL   C11520079   2.634   2.688   1.777 -0.1086 -0.1725 -0.0460
   63MOL   C11620080   2.711   2.801   1.740  0.6113  0.7349  0.2816
   63MOL   C11720081   2.652   2.926   1.712 -0.1869  0.4957 -0.0796
   63MOL   C11820082   2.515   2.942   1.713 -0.3730  0.2088  0.0334
   63MOL   F11920083   2.464   3.064   1.690  0.2494  0.3336 -0.2149
   63MOL   C12020084   2.434   2.828   1.731  0.1598  0.8573  0.2640
   63MOL   C12120085   2.494   2.699   1.761 -0.1962  0.1225  0.1061
   63MOL   C12220086   2.627   2.457   1.894  0.5176  0.5878  0.2243
   63MOL   H12320087   2.781   2.597   1.888  3.4502 -0.8402 -2.4648
   63MOL   H12420088   2.819   2.798   1.740  0.6239 -0.0440 -2.0842
   63MOL   H12520089   2.725   2.999   1.679  1.7298 -0.2698  2.2640
   63MOL   H12620090   2.327   2.841   1.736  0.1521  0.6488  0.6384
   63MOL   H12720091   2.434   2.610   1.775 -2.3226  1.6474  0.9471
   63MOL   H12820092   2.555   2.423   1.820 -1.0689  1.7159  1.2064
   63MOL   H12920093   2.684   2.369   1.922  0.5388  0.4760 -0.1630
   63MOL   C13020094   2.541   2.495   2.016  1.3534 -0.4970 -0.6857
   63MOL   C13120095   2.418   2.411   2.028 -0.7390 -0.0292 -0.1306
   63MOL   C13220096   2.301   2.465   2.073  0.0734  0.4797 -0.0218
   63MOL   C13320097   2.179   2.394   2.076  0.3815  1.1431  0.4156
   63MOL   C13420098   2.176   2.252   2.053  0.3803 -0.0078  0.5976
   63MOL   F13520099   2.063   2.182   2.053  0.1319  0.0291 -0.6977
   63MOL   C13620100   2.299   2.188   2.027 -0.3518  0.3830 -0.0750
   63MOL   C13720101   2.417   2.265   2.008 -0.0395  0.0105  0.5296
   63MOL   C13820102   2.614   2.511   2.141 -0.3814  0.1753 -0.0557
   63MOL   H13920103   2.491   2.590   1.997 -1.3635 -1.7934 -0.3367
   63MOL   H14020104   2.305   2.571   2.093  0.3137  0.6141 -0.7692
   63MOL   H14120105   2.086   2.445   2.095  0.0949  0.1571  1.7400
   63MOL   H14220106   2.303   2.081   2.019  0.9371  0.4539 -0.5246
   63MOL   H14320107   2.511   2.214   1.992 -1.4812 -2.3358 -0.8106
   63MOL   H14420108   2.553   2.476   2.224 -0.0874  1.9485  0.9381
   63MOL   H14520109   2.697   2.441   2.141  1.3433  2.1530  0.1763
   63MOL   C14620110   2.672   2.654   2.160  0.2440 -0.4085 -0.2631
   63MOL   C14720111   2.563   2.762   2.173  0.1789  0.9007  0.1215
   63MOL   C14820112   2.455   2.735   2.252  0.8825 -0.3729 -0.0758
   63MOL   C14920113   2.348   2.823   2.241 -0.5771 -0.5727  0.1074
   63MOL   C15020114   2.352   2.940   2.157 -0.1548  0.2384  0.1636
   63MOL   F15120115   2.244   3.016   2.155 -0.1550  0.5611 -0.1297
   63MOL   C15220116   2.460   2.963   2.073  0.2717 -0.0425  0.2402
   63MOL   C15320117   2.562   2.868   2.078 -0.3453  0.0294 -0.4864
   63MOL   C15420118   2.777   2.653   2.276 -0.2170  0.9492 -0.1496
   63MOL   H15520119   2.732   2.678   2.073  1.0012 -0.8615  0.1225
   63MOL   H15620120   2.452   2.654   2.324  0.0895 -0.1860  0.1102
   63MOL   H15720121   2.264   2.801   2.305 -1.3326  1.6372 -0.0831
   63MOL   H15820122   2.462   3.041   1.999  0.5007  0.1593  0.4559
   63MOL   H15920123   2.653   2.882   2.021 -0.5635 -0.9343 -1.0916
   63MOL   H16020124   2.707   2.633   2.357  0.0446 -0.1365 -0.1792
   63MOL   H16120125   2.850   2.572   2.273  0.2923  1.3832  0.6066
   63MOL   C16220126   2.850   2.788   2.301  0.0687 -1.0289  0.7083
   63MOL   C16320127   2.890   2.785   2.448  0.0725 -0.0688 -0.4469
   63MOL   C16420128   2.996   2.700   2.488 -0.5508  0.5692 -0.3081
   63MOL   C16520129   3.036   2.692   2.624  0.8921  0.0106  0.1845
   63MOL   C16620130   2.959   2.764   2.722 -0.4755  0.8742 -0.4596
   63MOL   F16720131   2.994   2.751   2.854 -0.2672 -0.5720  0.4676
   63MOL   C16820132   2.854   2.849   2.682  0.6633 -0.2541 -0.0985
   63MOL   C16920133   2.822   2.865   2.545 -0.4713 -0.0064 -0.2827
   63MOL   C17020134   2.975   2.823   2.208 -0.2986 -0.2213 -0.0151
   63MOL   H17120135   2.777   2.868   2.284 -1.2123 -2.3587 -0.2302
   63MOL   H17220136   3.045   2.641   2.412 -0.2641 -0.4231  0.6266
   63MOL   H17320137   3.113   2.621   2.651 -0.3892 -1.9348 -1.1644
   63MOL   H17420138   2.804   2.908   2.756  1.0619 -0.7023  0.5290
   63MOL   H17520139   2.749   2.942   2.526 -1.8367 -0.6164  2.1728
   63MOL   H17620140   3.053   2.751   2.234  1.2171  0.9802 -1.1528
   63MOL   H17720141   2.955   2.810   2.102 -0.9067 -0.1541  0.0864
   63MOL   C17820142   3.027   2.968   2.222 -0.4384 -0.4181  0.0591
   63MOL   C17920143   3.173   2.979   2.182  0.2645  0.4642 -0.0643
   63MOL   C18020144   3.258   3.040   2.277 -0.5346  0.2375 -0.4452
   63MOL   C18120145   3.396   3.060   2.250 -0.5500  0.5692  0.3505
   63MOL   C18220146   3.442   3.016   2.124  0.1003 -1.1432 -0.5917
   63MOL   F18320147   3.579   3.021   2.103 -0.2976 -0.2289  0.3761
   63MOL   C18420148   3.355   2.953   2.035 -0.1484  0.1081  0.5597
   63MOL   C18520149   3.218   2.943   2.059  0.3820 -0.8048 -0.5946
   63MOL   C18620150   2.944   3.068   2.135  0.6212  0.0333 -0.0996
   63MOL   H18720151   3.022   2.998   2.326  0.6373  3.0191 -0.8275
   63MOL   H18820152   3.219   3.074   2.372 -1.3586  0.4079 -0.8405
   63MOL   H18920153   3.469   3.110   2.313  1.0557 -1.2461 -0.0032
   63MOL   H19020154   3.395   2.899   1.950  1.1876  0.2576  1.0839
   63MOL   H19120155   3.158   2.889   1.988 -0.4069  2.2377 -2.3213
   63MOL   H19220156   2.958   3.038   2.032  1.1816 -1.2386  0.3353
   63MOL   H19320157   2.839   3.046   2.154  0.1887  1.9228 -0.2325
   63MOL   C19420158   2.966   3.219   2.150  0.4619  0.1873 -0.0848
   63MOL   C19520159   2.954   3.275   2.012 -0.5458  0.0491 -0.5877
   63MOL   C19620160   3.065   3.339   1.956  0.6425 -0.2002 -0.7579
   63MOL   C19720161   3.054   3.422   1.843 -0.2294 -0.2985 -0.5338
   63MOL   C19820162   2.933   3.415   1.767  0.3816  0.0166  0.4879
   63MOL   F19920163   2.929   3.465   1.646  0.3176  0.0764 -0.1890
   63MOL   C20020164   2.830   3.337   1.811 -0.0346 -0.5785 -0.1636
   63MOL   C20120165   2.832   3.271   1.933  0.2904  0.0277  0.1911
   63MOL   C20220166   2.879   3.290   2.254  0.2395 -0.9244  0.0953
   63MOL   H20320167   3.069   3.229   2.183  0.7561 -0.3960 -0.8072
   63MOL   H20420168   3.156   3.329   2.015 -0.7421 -1.4439  1.2304
   63MOL   H20520169   3.139   3.480   1.811 -1.2187  1.7175  0.3669
   63MOL   H20620170   2.736   3.335   1.758 -0.6458  0.5687  0.8485
   63MOL   H20720171   2.745   3.225   1.976  0.6312 -2.2252 -1.4584
   63MOL   H20820172   2.897   3.397   2.248 -0.8591 -0.7937 -0.9423
   63MOL   H20920173   2.774   3.270   2.234  0.0479  2.1843 -2.2749
   63MOL   C21020174   2.893   3.252   2.403 -0.7261 -0.0772 -0.1920
   63MOL   C21120175   3.034   3.271   2.466 -0.7604 -0.0301 -0.2077
   63MOL   C21220176   3.081   3.180   2.571  0.1285  0.0659  0.0992
   63MOL   C21320177   3.210   3.205   2.624 -0.3826 -0.5285  0.0380
   63MOL   C21420178   3.280   3.325   2.581 -0.4631 -0.2974  0.6266
   63MOL   F21520179   3.401   3.356   2.638  0.0912  0.0175 -0.5736
   63MOL   C21620180   3.225   3.415   2.486  0.3469 -0.5314  0.3018
   63MOL   C21720181   3.102   3.388   2.433  0.4076 -0.5921  0.0258
   63MOL   C21820182   2.779   3.317   2.491 -0.3348  0.5746 -0.3726
   63MOL   H21920183   2.864   3.148   2.403 -0.2219 -0.2405 -2.3666
   63MOL   H22020184   3.022   3.100   2.613  2.9218 -2.2624 -0.2603
   63MOL   H22120185   3.255   3.130   2.687  0.0240  0.6179  1.1470
   63MOL   H22220186   3.286   3.501   2.459 -0.2412 -0.0147  0.5899
   63MOL   H22320187   3.062   3.449   2.353  2.6243  0.3613 -0.3841
   63MOL   H22420188   2.688   3.324   2.431  0.0452 -1.5521 -1.2277
   63MOL   H22520189   2.761   3.236   2.561  0.2605  1.2579  0.5870
   63MOL   C22620190   2.806   3.447   2.561 -0.2793 -0.4270  0.0030
   63MOL   C22720191   2.820   3.561   2.460 -0.4024  0.1142 -0.5417
   63MOL   C22820192   2.714   3.599   2.377  0.9392  0.7303  0.5919
   63MOL   C22920193   2.719   3.723   2.307  0.1019 -0.0725  0.0776
   63MOL   C23020194   2.836   3.805   2.321  0.1590  0.1806 -0.0260
   63MOL   F23120195   2.844   3.928   2.262 -0.2896  0.1852 -0.0336
   63MOL   C23220196   2.945   3.773   2.406 -0.0147 -0.0424  0.0404
   63MOL   C23320197   2.930   3.649   2.479  0.4982  0.1948  0.2026
   63MOL   C23420198   2.689   3.481   2.660 -0.2089 -0.3731  0.1977
   63MOL   H23520199   2.892   3.430   2.625 -1.5944 -0.1865  1.9156
   63MOL   H23620200   2.623   3.543   2.359  1.0965  0.6362  0.0752
   63MOL   H23720201   2.638   3.756   2.244  0.6799  0.9060 -0.1591
   63MOL   H23820202   3.028   3.841   2.397  0.0762 -0.1446  0.1078
   63MOL   H23920203   3.012   3.616   2.541  1.2441  1.9713  0.1837
   63MOL   H24020204   2.707   3.576   2.708  1.7117  0.3468 -1.8609
   63MOL   H24120205   2.597   3.497   2.603  0.2165  2.6596  0.2990
   63MOL   C24220206   2.662   3.377   2.773 -0.4249  0.4647 -0.7069
   63MOL   C24320207   2.783   3.359   2.872 -0.4104  0.0984 -0.5728
   63MOL   C24420208   2.876   3.254   2.854 -0.2066 -0.2031  0.4847
   63MOL   C24520209   2.991   3.249   2.937  0.5755  0.1580  0.0173
   63MOL   C24620210   3.018   3.356   3.029  0.3149 -0.1853  0.4038
   63MOL   F24720211   3.132   3.364   3.104  0.3731  0.1237 -0.1122
   63MOL   C24820212   2.928   3.461   3.046  0.8871  0.7897 -0.0822
   63MOL   C24920213   2.814   3.458   2.967 -0.7805  0.7647  0.0598
   63MOL   C25020214   2.532   3.401   2.853  0.1728 -0.0155  0.9975
   63MOL   H25120215   2.650   3.277   2.730 -2.1854  0.6057 -0.5908
   63MOL   H25220216   2.868   3.192   2.766  0.4281 -0.8065  0.8488
   63MOL   H25320217   3.055   3.164   2.917 -0.5128 -0.8556  0.7321
   63MOL   H25420218   2.951   3.546   3.109  0.2129 -2.6386  5.1296
   63MOL   H25520219   2.748   3.543   2.974  3.3596  4.0435  1.1712
   63MOL   H25620220   2.537   3.499   2.900 -1.5250  0.4517  0.2567
   63MOL   H25720221   2.450   3.416   2.782 -1.6631  1.4474  3.3261
   63MOL   C25820222   2.489   3.290   2.946 -0.0893  0.0781  0.1189
   63MOL   C25920223   2.375   3.328   3.034  0.1152  0.2242  0.1647
   63MOL   C26020224   2.374   3.283   3.170  0.4287  0.5822 -0.1312
   63MOL   C26120225   2.270   3.320   3.261  0.4026  0.3067 -0.2316
   63MOL   C26220226   2.171   3.409   3.221  0.4207 -0.5584  0.5539
   63MOL   F26320227   2.075   3.440   3.309  0.1841  0.5924  0.0624
   63MOL   C26420228   2.171   3.449   3.087 -1.3573  0.0165 -0.3613
   63MOL   C26520229   2.267   3.411   2.992 -0.4325  0.0318  0.4658
   63MOL   C26620230   2.465   3.157   2.879  0.1642 -0.4365  0.6897
   63MOL   H26720231   2.574   3.278   3.013  1.1856  0.1328 -1.4425
   63MOL   H26820232   2.444   3.208   3.204  0.0166  1.2082  2.2234
   63MOL   H26920233   2.273   3.283   3.363  1.1564  0.0140 -0.3575
   63MOL   H27020234   2.090   3.512   3.054 -1.0576  0.2789 -0.5978
   63MOL   H27120235   2.254   3.441   2.889  2.0095 -2.7801 -0.7508
   63MOL   H27220236   2.552   3.115   2.828 -1.6147 -2.1624 -0.9880
   63MOL   H27320237   2.442   3.076   2.948  1.0924 -0.5687  0.8542
   63MOL   C27420238   2.349   3.157   2.772 -0.1160  0.1573  0.5181
   63MOL   C27520239   2.397   3.178   2.627 -0.2063 -0.3891 -0.1040
   63MOL   C27620240   2.463   3.076   2.562  0.1092 -0.0102  0.6060
   63MOL   C27720241   2.498   3.089   2.423 -0.4789  0.0150  0.1550
   63MOL   C27820242   2.457   3.199   2.346  0.0705 -0.1376  0.4702
   63MOL   F27920243   2.475   3.205   2.212  0.2929 -0.1366  0.2265
   63MOL   C28020244   2.387   3.300   2.417  0.5853 -0.3204 -0.3219
   63MOL   C28120245   2.366   3.295   2.557  0.3564 -0.2622 -0.3137
   63MOL   C28220246   2.260   3.031   2.777 -0.0422 -0.6214 -0.2136
   63MOL   H28320247   2.285   3.243   2.790 -0.3857  0.1878 -0.5514
   63MOL   H28420248   2.501   2.994   2.622 -0.6459 -1.3270 -0.7004
   63MOL   H28520249   2.551   3.009   2.373  0.4929  0.7316  0.0135
   63MOL   H28620250   2.357   3.379   2.349 -0.1686 -1.0029 -0.7885
   63MOL   H28720251   2.317   3.378   2.605  0.5012 -1.1799  1.4723
   63MOL   H28820252   2.305   2.941   2.736 -2.4303 -1.4436 -1.1301
   63MOL   H28920253   2.230   3.009   2.880 -0.2679  0.8789  0.0576
   63MOL   C29020254   2.129   3.042   2.695  0.4414 -0.4340  0.5033
   63MOL   C29120255   2.083   2.926   2.616  0.3869  0.7575  0.2130
   63MOL   C29220256   2.043   2.946   2.479 -0.7663  0.3814 -0.5767
   63MOL   C29320257   2.001   2.840   2.399 -0.0726 -0.5984  0.5956
   63MOL   C29420258   1.997   2.713   2.452  0.2070  0.1236  0.0230
   63MOL   F29520259   1.947   2.611   2.381 -0.3536 -0.8707 -0.5538
   63MOL   C29620260   2.032   2.690   2.580 -0.0277 -0.1434  0.2447
   63MOL   C29720261   2.079   2.794   2.665  0.3764 -0.3433 -0.2285
   63MOL   C29820262   2.025   3.080   2.809 -0.4717 -0.7342  0.5407
   63MOL   H29920263   2.133   3.127   2.627  2.1806  0.2725  1.4646
   63MOL   H30020264   2.048   3.048   2.444 -0.6369  0.9561  1.0842
   63MOL   H30120265   1.968   2.850   2.297 -1.2304 -0.7678  0.9466
   63MOL   H30220266   2.030   2.588   2.615  3.1007 -0.3263  0.0330
   63MOL   H30320267   2.103   2.771   2.768 -0.0340 -0.0053 -0.0582
   63MOL   H30420268   2.018   2.994   2.875  1.6177 -0.4172  1.2332
   63MOL   H30520269   2.069   3.159   2.870 -0.9923  0.4988 -0.6488
   63MOL   C30620270   1.883   3.115   2.754  0.2816 -1.0626  0.2583
   63MOL   C30720271   1.790   3.149   2.867  0.2459 -0.1422 -0.2318
   63MOL   C30820272   1.661   3.083   2.886  0.1055  0.3609  0.3629
   63MOL   C30920273   1.579   3.136   2.984  0.4691 -0.4377  0.5024
   63MOL   C31020274   1.605   3.248   3.061 -0.1333  0.7825 -0.0551
   63MOL   F31120275   1.515   3.299   3.151  0.0295 -0.5869 -0.2092
   63MOL   C31220276   1.731   3.302   3.047  0.3282 -0.0512  0.3926
   63MOL   C31320277   1.824   3.254   2.956  0.0942 -0.3156 -0.6750
   63MOL   C31420278   1.894   3.233   2.654  0.3062 -0.2771  0.4072
   63MOL   H31520279   1.841   3.025   2.710 -1.1478  0.1593 -0.9816
   63MOL   H31620280   1.616   3.015   2.816  0.8444 -2.4060  2.5232
   63MOL   H31720281   1.484   3.086   2.986  1.8135 -3.1043  0.2598
   63MOL   H31820282   1.748   3.392   3.104  1.1025  1.2687 -1.8178
   63MOL   H31920283   1.920   3.302   2.946 -0.5688  1.2641  0.2219
   63MOL   H32020284   1.934   3.193   2.561  0.4276 -2.6810  1.4834
   63MOL   H32120285   1.795   3.251   2.611  1.6893 -1.8597 -3.6038
   63MOL   H32220286   1.931   3.327   2.697 -0.3269 -0.2794  0.9827
   64MOL     C120287   5.418   5.796   1.940 -0.3220  0.6664  0.1788
   64MOL     C220288   5.481   5.887   2.044 -0.0780 -0.0013  0.1411
   64MOL     C320289   5.476   5.860   2.183  0.4212  0.0902  0.1298
   64MOL     C420290   5.539   5.945   2.272  0.4918  0.7181 -0.0910
   64MOL     C520291   5.617   6.054   2.230  0.6646 -0.1731  0.1126
   64MOL     F620292   5.681   6.134   2.318 -0.3184  0.0096 -0.3551
   64MOL     C720293   5.622   6.085   2.090 -0.1381  0.5878  1.1419
   64MOL     C820294   5.549   6.003   2.000 -0.0644 -0.5426 -0.0808
   64MOL     C920295   5.375   5.652   1.988  1.1134  0.6149  0.5135
   64MOL    H1020296   5.485   5.795   1.854  1.3381  0.2927  1.4530
   64MOL    H1120297   5.414   5.783   2.225  0.4891 -1.0388 -1.7640
   64MOL    H1220298   5.523   5.931   2.378  0.6291 -0.5597 -0.2367
   64MOL    H1320299   5.675   6.177   2.075 -1.0573  1.3051  2.1848
   64MOL    H1420300   5.549   6.022   1.894 -0.5353  0.2292  0.0559
   64MOL    H1520301   5.464   5.613   2.039  2.9356  0.8625 -2.3362
   64MOL    H1620302   5.288   5.665   2.052 -0.1029 -0.0283 -0.9836
   64MOL    H1720303   5.329   5.848   1.903 -1.0802 -0.4955  0.3684
   64MOL    C1820304   5.328   5.567   1.867  0.6484  0.5254  0.8183
   64MOL    C1920305   5.434   5.558   1.756  0.1208 -0.1808 -0.2134
   64MOL    C2020306   5.556   5.489   1.772  0.4664 -0.3183  0.1499
   64MOL    C2120307   5.651   5.484   1.669  0.2305  0.1422 -0.3739
   64MOL    C2220308   5.626   5.555   1.550 -0.9112  0.2683  0.3460
   64MOL    F2320309   5.710   5.540   1.443  0.8795  0.2444 -0.2300
   64MOL    C2420310   5.504   5.627   1.537  0.2241  0.0061  0.4250
   64MOL    C2520311   5.407   5.627   1.635  0.2306 -0.9401  0.2603
   64MOL    C2620312   5.281   5.428   1.920 -0.4564  0.5428  0.6954
   64MOL    H2720313   5.250   5.634   1.830  0.7402 -1.7573 -3.8508
   64MOL    H2820314   5.569   5.424   1.857 -2.1299 -0.6219  0.3645
   64MOL    H2920315   5.742   5.426   1.672 -0.8095 -1.5567 -0.9024
   64MOL    H3020316   5.477   5.683   1.448 -0.9790  0.6148  1.1443
   64MOL    H3120317   5.312   5.677   1.622  1.6404  1.3216 -1.7366
   64MOL    H3220318   5.342   5.349   1.878 -1.4208  0.3441 -0.3666
   64MOL    H3320319   5.290   5.423   2.028  2.2501  0.5539  0.5113
   64MOL    C3420320   5.141   5.382   1.876 -0.4090  0.2453  0.1548
   64MOL    C3520321   5.112   5.400   1.722  0.1360  0.4491  0.0128
   64MOL    C3620322   5.198   5.333   1.625  0.9525 -0.8182  0.5842
   64MOL    C3720323   5.177   5.354   1.486 -0.0863  0.3494 -0.4897
   64MOL    C3820324   5.068   5.431   1.445 -0.1154 -0.2263 -0.3980
   64MOL    F3920325   5.033   5.438   1.314 -0.2784 -0.9548  0.0686
   64MOL    C4020326   4.977   5.492   1.538 -0.5524  0.6694  0.0043
   64MOL    C4120327   5.002   5.479   1.672 -0.7008  0.4725 -0.7812
   64MOL    C4220328   5.106   5.241   1.930  0.8755 -0.2190  0.1475
   64MOL    H4320329   5.068   5.445   1.927  1.5387  2.0686  0.7648
   64MOL    H4420330   5.276   5.269   1.664 -0.4839 -2.2204  1.1640
   64MOL    H4520331   5.238   5.309   1.410 -1.5381 -0.7147 -1.0612
   64MOL    H4620332   4.890   5.548   1.508 -1.2964 -0.5368 -0.1272
   64MOL    H4720333   4.918   5.519   1.727  0.6368 -1.0437  2.4877
   64MOL    H4820334   5.031   5.184   1.875  1.9623  0.5242 -2.1438
   64MOL    H4920335   5.197   5.184   1.912  0.3351 -0.5989 -1.4132
   64MOL    C5020336   5.075   5.228   2.082  0.0352  0.0638 -0.0846
   64MOL    C5120337   4.934   5.240   2.103  0.0194  0.0353 -0.0578
   64MOL    C5220338   4.845   5.125   2.099 -0.2826  0.0791 -0.4581
   64MOL    C5320339   4.715   5.141   2.136  0.7750 -0.0115  0.1459
   64MOL    C5420340   4.664   5.267   2.170  0.6007 -0.1001 -0.7391
   64MOL    F5520341   4.539   5.282   2.226 -0.4422  0.5331  0.0788
   64MOL    C5620342   4.741   5.381   2.159 -0.0383 -0.0240  0.0537
   64MOL    C5720343   4.877   5.366   2.118 -0.0734  0.3633  0.0574
   64MOL    C5820344   5.128   5.092   2.150 -0.3741 -0.0377 -0.1579
   64MOL    H5920345   5.125   5.316   2.122  1.3491 -0.6321 -0.1623
   64MOL    H6020346   4.875   5.022   2.087  1.5477  0.7549 -1.9966
   64MOL    H6120347   4.654   5.055   2.162  0.0264  0.1307 -1.0798
   64MOL    H6220348   4.698   5.475   2.191 -2.7577 -1.2456  0.0849
   64MOL    H6320349   4.928   5.460   2.104 -0.0492  0.5659  1.3919
   64MOL    H6420350   5.076   5.076   2.244 -1.7674 -2.1595 -1.2647
   64MOL    H6520351   5.117   5.001   2.091 -1.8848  0.3587 -0.5104
   64MOL    C6620352   5.279   5.100   2.186 -1.0355  0.2007  0.9255
   64MOL    C6720353   5.326   5.232   2.255 -0.1714 -0.5622 -0.7101
   64MOL    C6820354   5.250   5.292   2.353  0.7419 -1.1979 -1.0624
   64MOL    C6920355   5.286   5.422   2.402 -0.8153 -0.1569 -0.3013
   64MOL    C7020356   5.396   5.489   2.354 -0.5352 -0.1902 -0.1423
   64MOL    F7120357   5.424   5.616   2.391 -0.5293 -0.3374  0.6705
   64MOL    C7220358   5.481   5.423   2.266 -0.0360  0.2693  0.6829
   64MOL    C7320359   5.445   5.295   2.218 -0.2666  0.2348  0.3989
   64MOL    C7420360   5.320   4.974   2.270 -1.0289  0.1273 -0.0312
   64MOL    H7520361   5.338   5.087   2.096 -0.7220  0.5452  1.0792
   64MOL    H7620362   5.166   5.240   2.396  2.2295 -3.1635 -0.4408
   64MOL    H7720363   5.218   5.473   2.469 -0.3431  0.7188 -0.4707
   64MOL    H7820364   5.571   5.476   2.239 -1.1562  2.4087  1.0612
   64MOL    H7920365   5.510   5.255   2.142  0.9795 -0.1093  1.6238
   64MOL    H8020366   5.257   4.961   2.358 -0.5401  1.5373  0.5429
   64MOL    H8120367   5.287   4.888   2.211  0.2851 -0.3080 -0.1378
   64MOL    C8220368   5.468   4.966   2.320  0.9638  0.7110  0.6699
   64MOL    C8320369   5.495   4.860   2.421  0.3703 -0.0104  0.4887
   64MOL    C8420370   5.487   4.889   2.561  0.1288  0.2165 -0.2162
   64MOL    C8520371   5.495   4.784   2.658  0.0368  0.0735  0.9069
   64MOL    C8620372   5.521   4.647   2.615 -0.4563  0.8036 -0.2966
   64MOL    F8720373   5.541   4.546   2.708  0.3218 -0.1565 -0.1693
   64MOL    C8820374   5.536   4.620   2.478  0.2454  0.4683  0.1892
   64MOL    C8920375   5.516   4.727   2.380  0.3236  0.2383  0.3479
   64MOL    C9020376   5.568   4.959   2.194  0.4483  0.4017  0.4123
   64MOL    H9120377   5.491   5.063   2.363 -0.9183  0.7035  1.7629
   64MOL    H9220378   5.473   4.993   2.584 -1.7820 -0.5562  2.2818
   64MOL    H9320379   5.490   4.814   2.762  0.4258  1.6343  0.4871
   64MOL    H9420380   5.541   4.519   2.442  1.5900  0.8852 -0.8348
   64MOL    H9520381   5.516   4.687   2.280 -2.0594 -1.3538  0.9342
   64MOL    H9620382   5.550   4.861   2.148 -0.6605  1.2388 -0.9969
   64MOL    H9720383   5.550   5.039   2.122 -0.5294 -1.2296 -1.1905
   64MOL    C9820384   5.717   4.964   2.240  0.2358 -0.5737  0.2990
   64MOL    C9920385   5.809   4.925   2.122 -0.0301  0.4659 -0.2281
   64MOL   C10020386   5.889   4.805   2.126 -0.0405  0.0528  0.3878
   64MOL   C10120387   5.971   4.775   2.013 -0.3460  0.3613  0.8051
   64MOL   C10220388   5.961   4.856   1.893  0.1444 -0.2655  0.6536
   64MOL   F10320389   6.031   4.829   1.777 -0.2780 -0.3812  0.2482
   64MOL   C10420390   5.885   4.970   1.888 -0.3748 -0.5255  0.6566
   64MOL   C10520391   5.805   5.001   2.003 -0.0553 -0.1549 -0.3024
   64MOL   C10620392   5.759   5.108   2.289 -0.5310  0.8857 -0.4492
   64MOL   H10720393   5.726   4.898   2.326  1.0989 -1.6911 -0.6277
   64MOL   H10820394   5.897   4.764   2.226 -0.6636 -0.2303  0.3233
   64MOL   H10920395   6.034   4.687   2.012 -0.4075  0.3133  1.0426
   64MOL   H11020396   5.875   5.027   1.797 -0.9842 -3.1920 -1.0185
   64MOL   H11120397   5.739   5.084   1.985 -1.1928 -1.3214 -1.7182
   64MOL   H11220398   5.802   5.166   2.207 -0.2993  0.0972 -0.8891
   64MOL   H11320399   5.674   5.167   2.322 -0.8875 -1.0603  2.2636
   64MOL   C11420400   5.864   5.108   2.401 -0.3912 -0.5381 -0.4390
   64MOL   C11520401   5.954   5.230   2.402 -0.6041  0.4342 -0.6602
   64MOL   C11620402   5.900   5.356   2.398  0.3554  0.4207 -0.8139
   64MOL   C11720403   5.983   5.470   2.392 -0.0595  0.1838 -0.2047
   64MOL   C11820404   6.125   5.449   2.385 -0.0162  0.4884  0.1074
   64MOL   F11920405   6.215   5.552   2.378 -0.6472 -0.0395 -0.2261
   64MOL   C12020406   6.183   5.319   2.385 -0.1568 -0.0872 -0.8433
   64MOL   C12120407   6.098   5.207   2.395  0.3737  0.1915  0.3103
   64MOL   C12220408   5.806   5.079   2.547  0.2411 -0.3129  0.2248
   64MOL   H12320409   5.933   5.025   2.387 -0.3785 -0.5793 -0.1375
   64MOL   H12420410   5.794   5.373   2.390  0.4175  1.2513  0.0716
   64MOL   H12520411   5.950   5.570   2.418  1.7899  0.8042 -0.1216
   64MOL   H12620412   6.288   5.297   2.394 -0.4337 -0.4245  2.4778
   64MOL   H12720413   6.135   5.109   2.421 -1.1812 -0.7169 -0.8452
   64MOL   H12820414   5.717   5.141   2.551 -0.6100 -1.3930 -1.5374
   64MOL   H12920415   5.765   4.978   2.546 -0.3915 -0.0607  0.6076
   64MOL   C13020416   5.898   5.102   2.670  0.5374  0.1914 -0.0795
   64MOL   C13120417   5.803   5.097   2.793 -1.3802  0.0193  0.5716
   64MOL   C13220418   5.758   5.214   2.862 -0.2608 -0.4216  0.1606
   64MOL   C13320419   5.690   5.198   2.984  0.4338 -0.1376 -0.5800
   64MOL   C13420420   5.668   5.070   3.037  0.3442  0.0079  0.2386
   64MOL   F13520421   5.601   5.069   3.158 -0.2207 -0.2493  0.2518
   64MOL   C13620422   5.700   4.951   2.961 -0.3008  0.6590  0.0315
   64MOL   C13720423   5.769   4.969   2.846  0.5390  0.0596  0.5133
   64MOL   C13820424   6.021   5.003   2.677 -0.2773 -0.2769  0.1232
   64MOL   H13920425   5.932   5.206   2.662  0.1635  0.1942 -1.9423
   64MOL   H14020426   5.767   5.317   2.828 -0.7164 -0.6991 -0.8010
   64MOL   H14120427   5.648   5.288   3.026  1.0230 -0.3769  0.5708
   64MOL   H14220428   5.684   4.852   3.002 -0.3463  0.1002 -1.3076
   64MOL   H14320429   5.797   4.884   2.785  2.0239  1.4445 -0.8017
   64MOL   H14420430   5.987   4.907   2.716  0.9547 -0.7462  0.0691
   64MOL   H14520431   6.052   4.984   2.574  3.4599  2.7820  0.5502
   64MOL   C14620432   6.138   5.044   2.766  0.6435  0.1805 -0.4483
   64MOL   C14720433   6.103   5.077   2.912 -0.1971 -0.1683 -0.1743
   64MOL   C14820434   6.087   4.977   3.013 -0.1182 -0.6131 -0.1167
   64MOL   C14920435   6.045   5.017   3.141 -0.1018 -0.3345 -0.1858
   64MOL   C15020436   6.015   5.156   3.170 -0.3440 -0.1851  0.3482
   64MOL   F15120437   5.970   5.202   3.289  0.6789 -0.0910  0.1253
   64MOL   C15220438   6.033   5.255   3.072 -0.5404  0.0945  0.0020
   64MOL   C15320439   6.080   5.219   2.945  0.1854 -0.1421  0.4452
   64MOL   C15420440   6.231   4.923   2.777  0.0542 -0.2556  0.0042
   64MOL   H15520441   6.202   5.117   2.717  1.6053 -1.5618 -1.8648
   64MOL   H15620442   6.099   4.872   2.991  0.2542 -0.7765  0.8389
   64MOL   H15720443   6.047   4.947   3.224 -1.8192  0.3100  0.4301
   64MOL   H15820444   6.005   5.359   3.080 -1.6351 -0.1559 -0.3965
   64MOL   H15920445   6.090   5.294   2.868 -1.7036 -0.1215  0.1992
   64MOL   H16020446   6.305   4.927   2.857 -0.1133  2.7318  0.0528
   64MOL   H16120447   6.167   4.842   2.812 -1.8069  2.8432  4.0580
   64MOL   C16220448   6.306   4.869   2.652 -0.6671 -0.0376 -0.4970
   64MOL   C16320449   6.395   4.974   2.575  0.0777  0.6517 -0.7882
   64MOL   C16420450   6.383   4.988   2.436 -0.2286 -0.3151 -0.2455
   64MOL   C16520451   6.455   5.081   2.369 -0.3992 -0.0747  0.0786
   64MOL   C16620452   6.549   5.162   2.434 -0.1772  0.2146 -0.6614
   64MOL   F16720453   6.621   5.254   2.365 -0.1429 -0.1976 -0.3556
   64MOL   C16820454   6.566   5.149   2.576  0.6372 -0.4933  0.3786
   64MOL   C16920455   6.493   5.048   2.648 -0.0396  0.3376 -0.2152
   64MOL   C17020456   6.401   4.743   2.681 -0.5824  0.7180  0.2897
   64MOL   H17120457   6.226   4.826   2.592 -1.9540 -1.7294  2.3462
   64MOL   H17220458   6.322   4.913   2.389 -1.9543  0.9588 -0.0649
   64MOL   H17320459   6.430   5.095   2.265 -0.9528 -0.6071  0.1360
   64MOL   H17420460   6.634   5.204   2.639  1.2225  0.1197 -0.7802
   64MOL   H17520461   6.505   5.034   2.755  1.3877  2.8800 -0.0053
   64MOL   H17620462   6.444   4.707   2.588  0.0675  1.1461  0.4277
   64MOL   H17720463   6.487   4.771   2.741  0.4568 -0.9016 -0.4039
   64MOL   C17820464   6.324   4.629   2.756  0.3534 -0.3375  0.1768
   64MOL   C17920465   6.197   4.595   2.675  0.3680  0.2097 -1.0339
   64MOL   C18020466   6.210   4.555   2.539  0.2110  0.5287  0.0618
   64MOL   C18120467   6.101   4.566   2.447 -0.2311  0.5825  0.5539
   64MOL   C18220468   5.972   4.594   2.500 -0.1744 -0.5179 -0.0065
   64MOL   F18320469   5.868   4.586   2.423 -0.5055 -0.1899 -0.0757
   64MOL   C18420470   5.956   4.619   2.637 -0.0085  0.4521 -0.4677
   64MOL   C18520471   6.068   4.612   2.727 -0.1700  0.1549  0.1776
   64MOL   C18620472   6.413   4.511   2.778  0.1930 -0.5699  0.2961
   64MOL   H18720473   6.302   4.676   2.852  1.1746  0.0562  0.1758
   64MOL   H18820474   6.308   4.529   2.502 -0.9781  0.2057 -2.9678
   64MOL   H18920475   6.107   4.550   2.340  3.0741  1.8491  0.4865
   64MOL   H19020476   5.859   4.647   2.675 -0.0422  0.8398 -0.8376
   64MOL   H19120477   6.045   4.629   2.831 -0.3742 -0.8775  0.3056
   64MOL   H19220478   6.474   4.491   2.690  0.1304 -0.1730  0.1611
   64MOL   H19320479   6.490   4.543   2.849  0.1411  0.6104 -0.1783
   64MOL   C19420480   6.346   4.387   2.819  0.1906 -0.5696  0.7215
   64MOL   C19520481   6.340   4.286   2.702  0.5197 -0.2537  0.1445
   64MOL   C19620482   6.213   4.252   2.648  0.7966 -0.4138  0.1536
   64MOL   C19720483   6.204   4.134   2.577 -0.7771  0.4296  0.3151
   64MOL   C19820484   6.320   4.067   2.539 -0.5102  0.6493 -0.0020
   64MOL   F19920485   6.303   3.962   2.454  0.5482  0.1538  0.2980
   64MOL   C20020486   6.448   4.114   2.576  0.2576 -0.0577 -0.4687
   64MOL   C20120487   6.455   4.226   2.665  0.1715  0.2152  0.7990
   64MOL   C20220488   6.409   4.314   2.944  0.6242  0.1059  0.2625
   64MOL   H20320489   6.241   4.408   2.839 -0.0971 -0.2911 -0.9943
   64MOL   H20420490   6.124   4.299   2.687  0.7450  0.1058 -0.5753
   64MOL   H20520491   6.104   4.101   2.554 -0.7020  0.4999 -0.1180
   64MOL   H20620492   6.529   4.057   2.530 -0.6992 -1.5102 -0.3873
   64MOL   H20720493   6.549   4.260   2.705  0.9669  0.0079 -0.8491
   64MOL   H20820494   6.360   4.217   2.953 -0.1530  0.3755 -0.9270
   64MOL   H20920495   6.514   4.296   2.922  1.0171  0.6494  1.6504
   64MOL   C21020496   6.399   4.391   3.077  0.4934 -0.6470 -0.3095
   64MOL   C21120497   6.255   4.436   3.103 -0.5706  0.7505  0.0560
   64MOL   C21220498   6.238   4.571   3.131 -0.7163  0.0265  0.3859
   64MOL   C21320499   6.104   4.613   3.159  0.7105 -0.2300 -0.2338
   64MOL   C21420500   5.991   4.526   3.159 -0.0061 -0.1757  0.9363
   64MOL   F21520501   5.863   4.567   3.189 -0.2096  0.1371  0.4003
   64MOL   C21620502   6.014   4.393   3.127 -0.4694  0.3733  0.3633
   64MOL   C21720503   6.146   4.344   3.113  0.1758  0.2005  0.5275
   64MOL   C21820504   6.458   4.307   3.198 -0.0196  0.0004  0.0277
   64MOL   H21920505   6.445   4.487   3.057 -0.7068  0.5402  2.3265
   64MOL   H22020506   6.317   4.643   3.146 -0.4882  0.0302 -0.8235
   64MOL   H22120507   6.079   4.716   3.183  0.9145  0.5778 -3.1847
   64MOL   H22220508   5.929   4.327   3.129  0.3563 -0.6610  1.7822
   64MOL   H22320509   6.167   4.241   3.089  2.1053  0.9365 -1.0621
   64MOL   H22420510   6.419   4.345   3.293  0.1019 -0.9315  0.4612
   64MOL   H22520511   6.430   4.202   3.188  0.4322 -0.2038  0.8254
   64MOL   C22620512   6.615   4.325   3.195 -0.1516  0.5029 -0.2349
   64MOL   C22720513   6.665   4.468   3.223 -0.3361 -0.0060 -0.1227
   64MOL   C22820514   6.793   4.499   3.170  0.1801  0.4156  0.0182
   64MOL   C22920515   6.851   4.621   3.189  0.4209 -0.5426  1.0009
   64MOL   C23020516   6.774   4.724   3.247 -0.1769 -0.0302 -0.5380
   64MOL   F23120517   6.821   4.849   3.268 -0.7537  0.0722 -0.3629
   64MOL   C23220518   6.649   4.694   3.305  0.0409  0.5547 -0.9866
   64MOL   C23320519   6.592   4.566   3.290  0.4764 -0.0913  0.2967
   64MOL   C23420520   6.694   4.214   3.273  0.2462  0.7652  0.8305
   64MOL   H23520521   6.642   4.310   3.090 -0.1307 -1.3219  0.0154
   64MOL   H23620522   6.848   4.412   3.137 -2.0474 -1.1547  0.3059
   64MOL   H23720523   6.952   4.648   3.163  0.7904 -1.3139  1.6379
   64MOL   H23820524   6.596   4.771   3.358 -0.9168 -0.8460  0.1223
   64MOL   H23920525   6.495   4.545   3.333 -0.2171  0.5751 -0.9068
   64MOL   H24020526   6.796   4.253   3.279  0.8453 -0.2134 -2.2243
   64MOL   H24120527   6.649   4.205   3.372  0.4733 -2.7248  0.7010
   64MOL   C24220528   6.699   4.067   3.204 -0.0849 -0.4110  0.0113
   64MOL   C24320529   6.770   4.064   3.072  0.3027  0.6192 -0.4740
   64MOL   C24420530   6.710   4.008   2.961 -0.2321  0.3255 -0.1501
   64MOL   C24520531   6.758   4.029   2.832  0.1352 -0.2341  0.0941
   64MOL   C24620532   6.876   4.096   2.812  0.2414 -0.0237 -0.5719
   64MOL   F24720533   6.918   4.115   2.684 -0.4524 -0.1749 -0.3331
   64MOL   C24820534   6.941   4.152   2.924  0.0554  0.0412 -0.5877
   64MOL   C24920535   6.885   4.143   3.054 -0.4303 -1.1594  0.7214
   64MOL   C25020536   6.762   3.958   3.296  0.3757 -0.4227 -0.1558
   64MOL   H25120537   6.598   4.029   3.186  0.0002 -0.6186 -0.0337
   64MOL   H25220538   6.615   3.958   2.972  0.8439 -1.5530  0.6517
   64MOL   H25320539   6.711   3.989   2.743 -0.4725 -0.3758  0.4800
   64MOL   H25420540   7.026   4.213   2.897  0.0613  0.1966 -0.2252
   64MOL   H25520541   6.932   4.189   3.140  0.9478 -0.0421 -0.5827
   64MOL   H25620542   6.773   3.866   3.238  0.3188 -1.0607  0.8503
   64MOL   H25720543   6.867   3.984   3.312  0.5343 -1.4146  0.4643
   64MOL   C25820544   6.680   3.915   3.420 -0.6605  0.3584  0.1247
   64MOL   C25920545   6.531   3.905   3.384  0.3747  0.0694  0.1927
   64MOL   C26020546   6.488   3.816   3.279  0.3211 -0.7319 -0.0812
   64MOL   C26120547   6.356   3.808   3.233 -0.3583  0.3285 -0.1028
   64MOL   C26220548   6.259   3.877   3.306  1.0197 -0.1185 -0.6678
   64MOL   F26320549   6.132   3.888   3.262 -0.4531 -0.9299  0.2932
   64MOL   C26420550   6.300   3.958   3.415 -0.0035 -0.1918  0.3710
   64MOL   C26520551   6.434   3.970   3.461 -0.3707  0.3266  0.8715
   64MOL   C26620552   6.731   3.775   3.467 -0.7004 -0.3854 -0.1055
   64MOL   H26720553   6.703   3.997   3.489  1.3382 -0.9354  1.0503
   64MOL   H26820554   6.563   3.769   3.217  2.9586 -0.3683  2.7520
   64MOL   H26920555   6.321   3.765   3.140  0.1482 -1.6023  0.5699
   64MOL   H27020556   6.220   4.003   3.471 -0.0113  2.8644 -1.9392
   64MOL   H27120557   6.467   4.036   3.539  1.1121  1.0629 -0.3612
   64MOL   H27220558   6.661   3.743   3.544  0.3713  0.7685  1.3937
   64MOL   H27320559   6.739   3.696   3.393 -0.4259 -0.1669 -0.3092
   64MOL   C27420560   6.865   3.776   3.542  0.3868 -0.2318 -0.3166
   64MOL   C27520561   6.860   3.884   3.647  0.1319 -0.1988 -0.2531
   64MOL   C27620562   6.954   3.990   3.650 -0.3586  0.2407 -0.3491
   64MOL   C27720563   6.948   4.094   3.748 -0.4108  0.8559  0.2859
   64MOL   C27820564   6.858   4.083   3.850  0.3288  0.3838 -0.4527
   64MOL   F27920565   6.855   4.169   3.957 -0.1608 -0.2830  0.1131
   64MOL   C28020566   6.773   3.971   3.857  0.0024 -0.2641  0.0916
   64MOL   C28120567   6.772   3.874   3.754 -0.8923 -0.3046  0.1884
   64MOL   C28220568   6.902   3.641   3.595 -0.7520 -0.2325  0.3648
   64MOL   H28320569   6.943   3.798   3.469  0.4592  1.8802  0.3538
   64MOL   H28420570   7.024   3.996   3.569  0.3242  0.7142  0.2733
   64MOL   H28520571   7.027   4.168   3.752  1.6452 -1.3348  3.9651
   64MOL   H28620572   6.704   3.956   3.940  1.7190 -0.9515  1.4383
   64MOL   H28720573   6.700   3.796   3.772 -0.0738 -1.0883  0.1159
   64MOL   H28820574   6.812   3.587   3.628  0.5649 -1.6468  1.7335
   64MOL   H28920575   6.938   3.586   3.508  0.7366  2.1333 -0.5413
   64MOL   C29020576   7.017   3.625   3.702  0.8602 -0.5689 -0.1635
   64MOL   C29120577   6.993   3.489   3.773  0.2585 -0.0335  0.1639
   64MOL   C29220578   6.982   3.369   3.703 -0.5311  0.0041 -0.2295
   64MOL   C29320579   6.955   3.249   3.774 -0.3523  0.0834  0.1684
   64MOL   C29420580   6.956   3.244   3.913 -0.3008 -0.2298 -1.0579
   64MOL   F29520581   6.914   3.125   3.972  0.0882 -0.1326 -0.2434
   64MOL   C29620582   6.963   3.364   3.981  0.0354 -0.0969  0.2885
   64MOL   C29720583   6.989   3.484   3.912 -0.3675  0.2770  0.0796
   64MOL   C29820584   7.150   3.624   3.624 -0.0872  0.6507  0.9286
   64MOL   H29920585   7.024   3.710   3.771 -1.4834  1.2298 -2.0446
   64MOL   H30020586   6.970   3.367   3.595  0.2798  2.5590 -0.4063
   64MOL   H30120587   6.936   3.160   3.715  1.6168  0.3801 -0.9392
   64MOL   H30220588   6.974   3.346   4.087 -0.4559 -1.3718  0.1397
   64MOL   H30320589   7.005   3.566   3.981  1.9070 -1.5908  1.8555
   64MOL   H30420590   7.145   3.546   3.549  2.3356 -0.3009  1.7051
   64MOL   H30520591   7.162   3.716   3.567  0.8582 -0.0721 -0.0356
   64MOL   C30620592   7.277   3.603   3.712 -1.1028  0.3308 -0.4346
   64MOL   C30720593   7.378   3.504   3.640 -0.2956 -0.0660 -0.6658
   64MOL   C30820594   7.433   3.534   3.515 -0.9413  0.3235  0.6702
   64MOL   C30920595   7.539   3.452   3.463 -0.6189 -0.1191  0.7967
   64MOL   C31020596   7.580   3.334   3.531  0.0393  0.0466 -0.5100
   64MOL   F31120597   7.681   3.253   3.483 -0.3513  0.3933 -0.3537
   64MOL   C31220598   7.518   3.296   3.653 -0.0527 -0.6603  0.7600
   64MOL   C31320599   7.421   3.379   3.702 -0.0057 -0.7316 -0.2980
   64MOL   C31420600   7.335   3.732   3.773  0.0730  0.1626 -0.8547
   64MOL   H31520601   7.250   3.538   3.795 -1.5565  0.6041 -0.3663
   64MOL   H31620602   7.417   3.614   3.445 -1.6200  1.5140  2.1568
   64MOL   H31720603   7.586   3.483   3.371 -0.6078  1.5689  1.3457
   64MOL   H31820604   7.546   3.208   3.709 -0.9572 -0.3442  1.7364
   64MOL   H31920605   7.384   3.352   3.800  0.9233 -1.0146 -0.0240
   64MOL   H32020606   7.392   3.781   3.694  0.7715  0.1849 -0.3425
   64MOL   H32120607   7.258   3.802   3.807 -1.0095  0.1542 -3.2162
   64MOL   H32220608   7.401   3.709   3.857 -1.1690  1.0572  0.3896
   65MOL     C120609   5.775   3.855   0.605 -0.1227  0.4077  0.5544
   65MOL     C220610   5.775   3.870   0.754 -0.2049  0.6509  0.3829
   65MOL     C320611   5.795   3.998   0.811  0.4635 -0.0261  0.2058
   65MOL     C420612   5.800   4.008   0.951 -0.0156  0.6312 -0.3419
   65MOL     C520613   5.787   3.891   1.027 -0.0008  0.3077 -1.0717
   65MOL     F620614   5.783   3.897   1.164 -0.4360 -0.0333  0.0307
   65MOL     C720615   5.785   3.760   0.972  0.3984 -0.1755 -0.3466
   65MOL     C820616   5.764   3.754   0.832  0.3347  0.3910 -0.0439
   65MOL     C920617   5.645   3.806   0.553  0.1711  0.0743 -0.0380
   65MOL    H1020618   5.862   3.797   0.575 -1.4518 -0.4661 -1.7970
   65MOL    H1120619   5.817   4.084   0.750 -0.8976 -0.3866 -0.8045
   65MOL    H1220620   5.807   4.100   1.006  0.5208 -0.3613  1.2783
   65MOL    H1320621   5.781   3.674   1.037  1.9751 -0.4223 -0.5426
   65MOL    H1420622   5.752   3.660   0.780  0.2016  0.8463 -0.8504
   65MOL    H1520623   5.634   3.707   0.598 -2.8261 -0.2359 -1.3272
   65MOL    H1620624   5.567   3.867   0.597  0.4989  0.6545 -0.2652
   65MOL    H1720625   5.774   3.958   0.571 -0.3437 -0.5251 -2.4752
   65MOL    C1820626   5.616   3.787   0.404  0.7599  0.3252  0.3628
   65MOL    C1920627   5.493   3.684   0.382  0.0926  0.6674  0.5329
   65MOL    C2020628   5.370   3.702   0.446  0.5289 -0.7196 -0.0794
   65MOL    C2120629   5.264   3.611   0.429  0.4984  0.3618 -0.3447
   65MOL    C2220630   5.278   3.502   0.335  0.4326  0.7364  0.5992
   65MOL    F2320631   5.182   3.410   0.312 -0.1317  0.3973  0.3715
   65MOL    C2420632   5.404   3.478   0.273  0.0565  0.7513  0.1841
   65MOL    C2520633   5.513   3.565   0.309 -0.3831 -0.4745  0.2512
   65MOL    C2620634   5.573   3.913   0.329 -0.7626  0.2778 -0.0543
   65MOL    H2720635   5.700   3.744   0.350  0.3101 -0.5926  0.3974
   65MOL    H2820636   5.345   3.794   0.497 -1.1731 -0.7227 -0.8567
   65MOL    H2920637   5.176   3.629   0.490  0.3968  0.7092 -0.5967
   65MOL    H3020638   5.418   3.392   0.209  2.8162  1.4503 -0.2577
   65MOL    H3120639   5.612   3.540   0.274 -0.3321  0.9507 -0.6460
   65MOL    H3220640   5.527   3.892   0.232 -0.5736  2.9002 -0.7325
   65MOL    H3320641   5.489   3.959   0.382  0.7665  2.0768  0.8436
   65MOL    C3420642   5.687   4.018   0.308  0.0296 -0.3805 -0.2763
   65MOL    C3520643   5.809   3.959   0.239 -0.3486  0.9587  0.6345
   65MOL    C3620644   5.934   3.988   0.298  0.3162  0.2040  0.1575
   65MOL    C3720645   6.053   3.958   0.225 -0.4006  0.3581 -0.0984
   65MOL    C3820646   6.043   3.873   0.115 -0.2048 -0.2702 -0.6361
   65MOL    F3920647   6.164   3.836   0.064  0.2595 -0.0334  0.1751
   65MOL    C4020648   5.919   3.824   0.068  0.3038  1.1674 -0.2258
   65MOL    C4120649   5.799   3.873   0.127  0.0548 -0.1716 -0.2999
   65MOL    C4220650   5.641   4.147   0.232 -0.1519  0.0470  0.7596
   65MOL    H4320651   5.710   4.043   0.411 -0.9382 -1.0603  0.1092
   65MOL    H4420652   5.934   4.046   0.389 -2.2382 -0.6709  0.7783
   65MOL    H4520653   6.152   3.993   0.251 -0.8723  1.6276  0.0198
   65MOL    H4620654   5.909   3.749   8.225  1.4755 -0.0082  0.7498
   65MOL    H4720655   5.703   3.846   0.087 -0.2056 -0.2598  0.3908
   65MOL    H4820656   5.716   4.209   0.183 -2.0453  1.6105 -0.2527
   65MOL    H4920657   5.584   4.107   0.147  0.4705 -0.3866  0.5434
   65MOL    C5020658   5.557   4.243   0.314  0.5500 -0.3109 -0.0642
   65MOL    C5120659   5.635   4.314   0.420 -0.3461  0.8264 -0.4630
   65MOL    C5220660   5.605   4.287   0.555 -0.9487  0.2291 -0.8095
   65MOL    C5320661   5.684   4.345   0.653  0.0629  0.5117  0.0705
   65MOL    C5420662   5.779   4.435   0.624 -0.4956 -0.5229  0.2845
   65MOL    F5520663   5.834   4.508   0.722 -0.2113  0.2896  0.5228
   65MOL    C5620664   5.808   4.465   0.487 -0.1646  0.4179  0.1229
   65MOL    C5720665   5.732   4.408   0.383  0.1986 -0.6586 -0.2370
   65MOL    C5820666   5.484   4.348   0.226 -0.2173 -0.1304 -0.3187
   65MOL    H5920667   5.483   4.191   0.374  1.5022 -0.2627  1.1842
   65MOL    H6020668   5.542   4.202   0.576 -0.1873 -0.0054  0.6353
   65MOL    H6120669   5.675   4.314   0.756  0.0911 -0.8608 -0.3387
   65MOL    H6220670   5.889   4.533   0.464 -0.2674  0.0358 -1.4009
   65MOL    H6320671   5.760   4.422   0.279  1.8439  0.8615  0.3895
   65MOL    H6420672   5.446   4.430   0.287 -0.6169  1.7577 -3.0301
   65MOL    H6520673   5.543   4.383   0.141 -2.0672  1.8254 -0.8518
   65MOL    C6620674   5.347   4.289   0.170 -0.0948  0.4094  0.1719
   65MOL    C6720675   5.254   4.233   0.282  0.5880 -0.1275 -0.7263
   65MOL    C6820676   5.192   4.319   0.378 -0.8366  0.2595 -0.2218
   65MOL    C6920677   5.114   4.260   0.482  0.0310  0.0103  0.5806
   65MOL    C7020678   5.103   4.120   0.502 -0.8339 -0.7221  0.0611
   65MOL    F7120679   5.020   4.065   0.593 -0.5308 -0.3980  0.3396
   65MOL    C7220680   5.178   4.042   0.413 -0.0259  0.0410  0.1992
   65MOL    C7320681   5.243   4.094   0.303  0.6751  0.3032  0.3248
   65MOL    C7420682   5.273   4.382   0.068  0.0356  0.3112 -0.5233
   65MOL    H7520683   5.367   4.208   0.100 -3.3279 -1.9064  1.8108
   65MOL    H7620684   5.212   4.425   0.381 -1.5311  0.3958 -0.3680
   65MOL    H7720685   5.065   4.324   0.555  1.8340 -0.2077  2.0309
   65MOL    H7820686   5.178   3.935   0.427 -0.4390  0.2164  1.6053
   65MOL    H7920687   5.301   4.025   0.244  0.2538  0.3007 -0.0887
   65MOL    H8020688   5.173   4.343   0.053  0.0002  0.5021 -0.7885
   65MOL    H8120689   5.260   4.484   0.106 -0.7941  0.7324 -1.9111
   65MOL    C8220690   5.345   4.402   8.165  0.6525  0.0741  0.2962
   65MOL    C8320691   5.320   4.292   8.056 -0.2969  0.0612 -0.1060
   65MOL    C8420692   5.196   4.289   7.985 -0.6327 -0.3496  0.1829
   65MOL    C8520693   5.180   4.191   7.889 -0.3926 -0.3523 -0.0441
   65MOL    C8620694   5.280   4.101   7.860  0.1626 -0.6482 -1.2196
   65MOL    F8720695   5.261   4.013   7.758  0.2012  0.0842  0.3087
   65MOL    C8820696   5.398   4.098   7.928  0.2652 -0.5351 -0.7211
   65MOL    C8920697   5.422   4.193   8.032  0.2885  1.0715 -0.3249
   65MOL    C9020698   5.326   4.538   8.100 -0.2196 -0.5299 -0.0982
   65MOL    H9120699   5.454   4.392   8.169  0.6990  0.0641 -0.8981
   65MOL    H9220700   5.121   4.364   8.002 -1.3531 -1.0528  0.1218
   65MOL    H9320701   5.082   4.193   7.844 -0.0986  2.2987 -0.6410
   65MOL    H9420702   5.460   4.014   7.900  1.2273  0.0392 -0.3103
   65MOL    H9520703   5.516   4.199   8.084  0.1309 -3.5931  0.7152
   65MOL    H9620704   5.375   4.543   8.002  0.8073 -0.1918  0.4255
   65MOL    H9720705   5.222   4.549   8.069 -0.2385  0.7065  0.3595
   65MOL    C9820706   5.370   4.665   8.177 -0.6947  1.0051  0.3199
   65MOL    C9920707   5.517   4.666   8.213  0.8453 -0.0075 -0.5113
   65MOL   C10020708   5.559   4.700   0.108 -0.0262  0.4053 -0.5801
   65MOL   C10120709   5.696   4.711   0.146 -0.1911  0.2930 -0.0702
   65MOL   C10220710   5.792   4.668   0.054  1.0118 -0.8999 -0.2124
   65MOL   F10320711   5.920   4.678   0.100 -0.0896  0.4118 -0.2372
   65MOL   C10420712   5.756   4.621   8.158 -0.0876  0.6472  0.4951
   65MOL   C10520713   5.617   4.626   8.122  0.3992 -0.4118 -0.2665
   65MOL   C10620714   5.336   4.794   8.102  0.2366  0.2833  0.0925
   65MOL   H10720715   5.322   4.675   0.040  0.8596 -0.2411  1.2444
   65MOL   H10820716   5.488   4.722   0.186  1.5202 -0.2948  1.0613
   65MOL   H10920717   5.738   4.740   0.241  0.3712 -1.9712  0.4156
   65MOL   H11020718   5.835   4.596   8.088 -1.0251 -0.8787 -0.0504
   65MOL   H11120719   5.589   4.583   8.027 -0.5419  0.7854 -0.5442
   65MOL   H11220720   5.402   4.786   8.015  1.6906  0.2397  1.1772
   65MOL   H11320721   5.235   4.786   8.062  0.1068 -1.4616  0.6919
   65MOL   C11420722   5.356   4.927   8.171 -0.1447  0.5546  0.0739
   65MOL   C11520723   5.348   5.041   8.066  0.1881  0.5559 -0.2488
   65MOL   C11620724   5.469   5.106   8.031  0.2996 -0.0873 -0.1045
   65MOL   C11720725   5.479   5.189   7.921  0.8682  0.4279 -0.0961
   65MOL   C11820726   5.356   5.225   7.859 -0.4811  0.3813  0.1826
   65MOL   F11920727   5.362   5.295   7.748  0.2694 -0.2925  0.0380
   65MOL   C12020728   5.236   5.175   7.896  0.0097 -0.1071  0.1916
   65MOL   C12120729   5.228   5.073   8.000  0.1207 -0.0805  0.1285
   65MOL   C12220730   5.259   4.953   0.053  0.2467 -0.0182 -0.1883
   65MOL   H12320731   5.451   4.931   8.223  0.3798  2.1858 -0.9842
   65MOL   H12420732   5.562   5.075   8.076  0.8461 -1.9220 -2.4468
   65MOL   H12520733   5.574   5.234   7.898  0.6568  1.3663  0.8040
   65MOL   H12620734   5.146   5.201   7.842 -0.5619  1.0620  1.6681
   65MOL   H12720735   5.132   5.029   8.026 -0.1175  1.5250  2.1702
   65MOL   H12820736   5.158   4.971   0.015 -0.2903 -0.6713  0.8984
   65MOL   H12920737   5.259   4.862   0.113 -2.6459 -0.2760 -0.5182
   65MOL   C13020738   5.300   5.064   0.150  0.6590 -0.4174 -0.0376
   65MOL   C13120739   5.169   5.110   0.211  0.0740  0.9499 -0.7684
   65MOL   C13220740   5.096   5.204   0.140  0.0732  0.0226 -0.0425
   65MOL   C13320741   4.971   5.251   0.186  0.2158  0.0593  0.0128
   65MOL   C13420742   4.915   5.210   0.309 -0.0305 -0.5178  0.4846
   65MOL   F13520743   4.807   5.272   0.346  0.8967  0.5204 -0.1674
   65MOL   C13620744   4.994   5.125   0.386  0.5732 -0.8212 -0.0125
   65MOL   C13720745   5.121   5.081   0.346  0.0862 -0.1763 -0.4662
   65MOL   C13820746   5.409   5.014   0.252  0.2634  0.8669  0.4295
   65MOL   H13920747   5.336   5.155   0.103 -0.9426  0.1738 -0.1388
   65MOL   H14020748   5.125   5.234   0.041  1.2580 -1.2062 -0.0842
   65MOL   H14120749   4.920   5.329   0.132 -1.4005  0.6567  2.2812
   65MOL   H14220750   4.956   5.105   0.485  0.4061  2.3823  0.6263
   65MOL   H14320751   5.163   5.007   0.412  1.3797  0.7099 -0.2821
   65MOL   H14420752   5.361   4.944   0.321 -0.2724 -0.7213 -1.5268
   65MOL   H14520753   5.490   4.956   0.208 -0.8157 -0.3701  0.0292
   65MOL   C14620754   5.484   5.126   0.330  0.1557 -0.7291 -0.1799
   65MOL   C14720755   5.555   5.074   0.459  0.0383 -0.6193 -0.1452
   65MOL   C14820756   5.502   5.135   0.578  0.6897  0.0365  0.7700
   65MOL   C14920757   5.536   5.077   0.698  0.1831  0.3271  0.3905
   65MOL   C15020758   5.632   4.971   0.706  0.0317  0.4021 -0.4691
   65MOL   F15120759   5.662   4.908   0.826  0.3616  0.1143  0.5327
   65MOL   C15220760   5.692   4.924   0.589 -0.6860  0.7814 -0.0452
   65MOL   C15320761   5.656   4.971   0.464  0.2133 -0.1460  0.0832
   65MOL   C15420762   5.588   5.202   0.233  0.3147  0.5667  0.7820
   65MOL   H15520763   5.409   5.200   0.361  1.9505  0.2707  1.8990
   65MOL   H15620764   5.423   5.208   0.589 -0.6721 -1.3084  0.0889
   65MOL   H15720765   5.493   5.108   0.792 -1.9946 -1.6418  0.1031
   65MOL   H15820766   5.759   4.841   0.602 -2.3584 -0.3907  1.3770
   65MOL   H15920767   5.702   4.936   0.373  0.5343  1.4387 -0.3825
   65MOL   H16020768   5.588   5.144   0.141 -0.1437  0.3901  0.8924
   65MOL   H16120769   5.539   5.293   0.199  0.6955 -0.3900 -2.4453
   65MOL   C16220770   5.731   5.242   0.284  0.3568  0.4668  0.0454
   65MOL   C16320771   5.832   5.274   0.172 -0.1329 -0.2284  1.1432
   65MOL   C16420772   5.964   5.228   0.177  0.3481 -0.2563 -0.3131
   65MOL   C16520773   6.051   5.252   0.067  0.1899 -0.6654  0.4516
   65MOL   C16620774   6.010   5.350   8.199  0.2482  0.3770 -0.4105
   65MOL   F16720775   6.106   5.391   8.105  0.0058 -0.3564 -0.2370
   65MOL   C16820776   5.880   5.405   8.203  0.4112 -0.1028 -0.6538
   65MOL   C16920777   5.793   5.365   0.072  0.4328 -0.9594 -0.2202
   65MOL   C17020778   5.704   5.357   0.378 -0.0962 -0.1584 -0.0982
   65MOL   H17120779   5.767   5.156   0.339  2.9670  0.8738 -0.9339
   65MOL   H17220780   5.986   5.167   0.263  0.3859  1.7085  1.0872
   65MOL   H17320781   6.153   5.216   0.059  0.1561 -0.6789  0.0710
   65MOL   H17420782   5.850   5.475   8.127 -0.9011 -0.6895 -0.6900
   65MOL   H17520783   5.693   5.406   0.074 -0.3366 -2.7586 -0.0944
   65MOL   H17620784   5.686   5.436   0.306 -1.2155 -1.5969 -1.4471
   65MOL   H17720785   5.629   5.338   0.455  0.4541 -0.3114  0.4135
   65MOL   C17820786   5.835   5.411   0.451  0.4206  0.1281 -0.2769
   65MOL   C17920787   5.807   5.551   0.511  0.0235 -0.0241  0.4266
   65MOL   C18020788   5.689   5.579   0.591  0.2252  0.1901  0.3612
   65MOL   C18120789   5.664   5.709   0.644 -1.0068  0.7526  0.2089
   65MOL   C18220790   5.763   5.809   0.626 -0.0158 -0.9280 -0.4158
   65MOL   F18320791   5.751   5.926   0.694 -0.3998  0.0700  0.3572
   65MOL   C18420792   5.879   5.778   0.556  0.5106 -0.3514 -0.1357
   65MOL   C18520793   5.899   5.652   0.491  0.3719 -0.7945  0.0401
   65MOL   C18620794   5.880   5.309   0.558  0.7938  0.0208 -0.1082
   65MOL   H18720795   5.903   5.419   0.367 -0.3750  2.8356 -0.7056
   65MOL   H18820796   5.621   5.497   0.606 -0.7384  0.9951  0.4629
   65MOL   H18920797   5.576   5.726   0.705 -1.3199 -2.6305  0.7724
   65MOL   H19020798   5.956   5.853   0.551 -1.4149  1.5450 -2.2578
   65MOL   H19120799   5.989   5.623   0.440 -0.4607 -1.9276 -0.8202
   65MOL   H19220800   5.807   5.316   0.638  0.8962 -2.5617  0.2217
   65MOL   H19320801   5.883   5.206   0.525 -0.0242  0.2004 -0.7613
   65MOL   C19420802   6.023   5.321   0.625  0.4107 -0.5557  0.1914
   65MOL   C19520803   6.135   5.304   0.522 -0.4442  0.0811  0.7927
   65MOL   C19620804   6.165   5.174   0.475 -1.1687  0.4689  0.1955
   65MOL   C19720805   6.255   5.147   0.368  0.0928 -0.5139  0.6703
   65MOL   C19820806   6.317   5.260   0.311  0.2411  0.0115  0.4348
   65MOL   F19920807   6.387   5.243   0.194 -0.3732 -0.0668 -0.2647
   65MOL   C20020808   6.299   5.390   0.365  0.0809  0.6641 -0.4513
   65MOL   C20120809   6.210   5.410   0.470 -0.5822 -0.2312  0.5174
   65MOL   C20220810   6.047   5.433   0.732 -0.4429 -0.2379  0.6646
   65MOL   H20320811   6.015   5.231   0.686 -1.6834 -0.1711  0.5507
   65MOL   H20420812   6.101   5.098   0.517 -0.7190  0.2361  0.4569
   65MOL   H20520813   6.265   5.044   0.338  1.4039 -0.9246  2.4137
   65MOL   H20620814   6.358   5.470   0.323 -1.2458  2.7713  1.5393
   65MOL   H20720815   6.192   5.507   0.514 -0.7375 -0.0410  0.0336
   65MOL   H20820816   6.150   5.468   0.724 -0.1579 -1.0614  0.7248
   65MOL   H20920817   5.985   5.521   0.712  3.8559  2.4078 -1.8178
   65MOL   C21020818   6.031   5.401   0.878  0.0990  0.2361  0.0594
   65MOL   C21120819   6.104   5.498   0.968 -0.3773  0.1014 -0.2026
   65MOL   C21220820   6.211   5.460   1.048  0.5987 -0.0496  0.0194
   65MOL   C21320821   6.269   5.549   1.139 -0.7026 -0.0334 -0.1318
   65MOL   C21420822   6.219   5.682   1.152  0.2865 -0.5985 -0.0377
   65MOL   F21520823   6.272   5.767   1.241 -0.2698  0.6583 -0.0237
   65MOL   C21620824   6.125   5.730   1.066  0.2468  0.4414 -0.2199
   65MOL   C21720825   6.060   5.632   0.979 -0.0638  0.0918  0.3228
   65MOL   C21820826   5.882   5.353   0.916 -0.6631 -0.2783 -0.4747
   65MOL   H21920827   6.089   5.309   0.884 -0.8527 -0.3398  0.5492
   65MOL   H22020828   6.245   5.357   1.043 -0.5837 -0.5612  2.0373
   65MOL   H22120829   6.354   5.525   1.200  0.8024  2.5185 -1.1551
   65MOL   H22220830   6.099   5.835   1.066 -0.4834  0.2618  1.1430
   65MOL   H22320831   5.985   5.666   0.908 -0.5099  1.1532  1.2757
   65MOL   H22420832   5.802   5.418   0.882 -1.6592 -1.0038  0.4465
   65MOL   H22520833   5.852   5.265   0.860  1.6274 -0.3528 -1.6554
   65MOL   C22620834   5.867   5.347   1.076  0.3648  0.7551  0.5918
   65MOL   C22720835   5.714   5.338   1.111  0.2484  0.7287 -0.9527
   65MOL   C22820836   5.634   5.226   1.065  0.2899 -0.4620 -0.4420
   65MOL   C22920837   5.498   5.224   1.097 -0.6021 -0.3283 -0.0752
   65MOL   C23020838   5.431   5.327   1.171 -0.2258  0.6690 -0.0546
   65MOL   F23120839   5.295   5.329   1.171  0.0988  0.1079  0.1712
   65MOL   C23220840   5.509   5.436   1.217  0.5578  0.3423  0.3850
   65MOL   C23320841   5.646   5.443   1.186  0.6571 -0.1404  0.7548
   65MOL   C23420842   5.947   5.232   1.151  0.2026  0.7743 -0.3071
   65MOL   H23520843   5.898   5.443   1.119  0.4362  0.2040  1.7864
   65MOL   H23620844   5.663   5.142   1.004  0.8025  1.0963 -2.3802
   65MOL   H23720845   5.433   5.146   1.060 -1.6350  0.0208  0.9909
   65MOL   H23820846   5.459   5.512   1.276 -0.4133 -0.7752  1.0219
   65MOL   H23920847   5.704   5.530   1.213  0.1916  0.6841 -0.7803
   65MOL   H24020848   5.897   5.139   1.125 -3.1355  2.1649  0.8729
   65MOL   H24120849   6.042   5.218   1.100  0.8766  0.3253  1.0572
   65MOL   C24220850   5.963   5.240   1.303  0.4348  0.0258  0.3847
   65MOL   C24320851   6.015   5.098   1.345 -0.1560 -0.2326 -0.3478
   65MOL   C24420852   5.938   5.035   1.448 -0.1236  0.3360  0.6350
   65MOL   C24520853   5.976   4.900   1.476  0.3439 -0.0495  0.0819
   65MOL   C24620854   6.091   4.836   1.424 -0.2485  0.7742  0.8255
   65MOL   F24720855   6.131   4.716   1.472  0.7736  0.2241  0.1273
   65MOL   C24820856   6.175   4.915   1.340 -0.0731  0.0324 -0.0141
   65MOL   C24920857   6.133   5.033   1.295  0.3313  0.3036  0.1335
   65MOL   C25020858   6.063   5.356   1.342 -0.2648  0.6435 -0.2204
   65MOL   H25120859   5.875   5.258   1.365  0.8254 -0.4820  1.0942
   65MOL   H25220860   5.848   5.075   1.492 -0.7243  0.2618 -0.5079
   65MOL   H25320861   5.913   4.855   1.552 -1.2693  0.6323 -0.8332
   65MOL   H25420862   6.267   4.874   1.302 -1.2667  0.5324 -3.6373
   65MOL   H25520863   6.199   5.078   1.222 -1.6548  0.9143 -1.3336
   65MOL   H25620864   6.149   5.340   1.277  1.0172  0.4878  1.4961
   65MOL   H25720865   6.014   5.443   1.298 -1.2392 -0.4283 -1.3209
   65MOL   C25820866   6.111   5.377   1.493 -0.4897 -0.2094 -0.1266
   65MOL   C25920867   6.192   5.506   1.504  0.6104 -0.6959 -0.4742
   65MOL   C26020868   6.122   5.628   1.493 -0.1258 -0.4455 -0.0103
   65MOL   C26120869   6.185   5.749   1.515 -0.3739 -0.2806  0.4899
   65MOL   C26220870   6.325   5.749   1.549  0.4944  0.3514  0.5359
   65MOL   F26320871   6.385   5.863   1.578 -0.0246 -0.0969  0.3117
   65MOL   C26420872   6.400   5.632   1.538  0.1840 -0.0106 -0.0717
   65MOL   C26520873   6.335   5.508   1.509  0.0121 -0.4208 -0.0187
   65MOL   C26620874   6.003   5.362   1.601  1.0173 -0.6908 -0.8200
   65MOL   H26720875   6.179   5.293   1.509  1.9425  1.6153 -0.6485
   65MOL   H26820876   6.015   5.638   1.483 -0.0546  1.4846  0.9248
   65MOL   H26920877   6.129   5.842   1.515  0.8638  0.4822  2.2385
   65MOL   H27020878   6.507   5.644   1.550  0.3643 -1.2389 -0.3643
   65MOL   H27120879   6.390   5.415   1.499  0.4236 -0.0050 -1.6823
   65MOL   H27220880   5.927   5.439   1.587  0.5930 -1.0101 -0.2679
   65MOL   H27320881   5.959   5.263   1.586 -2.1519  1.0889 -3.9941
   65MOL   C27420882   6.056   5.374   1.745  0.4131  0.4468 -0.5321
   65MOL   C27520883   5.954   5.441   1.843 -0.7473  0.3182  0.4480
   65MOL   C27620884   5.887   5.365   1.940 -0.0664  0.0129 -0.2984
   65MOL   C27720885   5.802   5.429   2.027  0.4072 -0.0870 -0.5187
   65MOL   C27820886   5.796   5.571   2.023  0.2686 -0.2825 -0.1431
   65MOL   F27920887   5.726   5.628   2.123  0.1541  0.5089 -0.2362
   65MOL   C28020888   5.865   5.651   1.930  0.1336 -0.3027 -0.1314
   65MOL   C28120889   5.942   5.580   1.839 -0.4401 -0.0688 -0.1841
   65MOL   C28220890   6.120   5.240   1.794  0.0582  0.0137  0.1469
   65MOL   H28320891   6.141   5.443   1.739 -0.0196  0.8543 -2.2115
   65MOL   H28420892   5.893   5.261   1.968  0.0909  0.2572  0.6093
   65MOL   H28520893   5.769   5.377   2.116  3.0032  4.7688  3.5710
   65MOL   H28620894   5.854   5.758   1.939  1.7941 -0.1301  0.0600
   65MOL   H28720895   6.001   5.636   1.769 -1.0384  0.4140 -0.3056
   65MOL   H28820896   6.048   5.164   1.823  0.4567 -0.2166  0.5438
   65MOL   H28920897   6.176   5.192   1.713 -0.1298  0.2775 -0.1406
   65MOL   C29020898   6.215   5.262   1.923  0.2929  0.0231  0.1427
   65MOL   C29120899   6.249   5.125   1.979 -0.4118 -0.2956 -0.5121
   65MOL   C29220900   6.324   5.024   1.912 -0.4532 -0.6965 -0.0970
   65MOL   C29320901   6.346   4.900   1.968  0.1523  0.7254 -0.4005
   65MOL   C29420902   6.292   4.866   2.094  0.4356  0.3069 -0.1229
   65MOL   F29520903   6.307   4.743   2.144  0.4490 -0.0464  0.3694
   65MOL   C29620904   6.213   4.964   2.161  0.2300  0.6881  0.4871
   65MOL   C29720905   6.193   5.089   2.102 -0.8231  0.2471  0.6907
   65MOL   C29820906   6.344   5.337   1.886 -0.4252 -0.7663 -0.3603
   65MOL   H29920907   6.151   5.320   1.989  0.5875  0.3281  0.1589
   65MOL   H30020908   6.362   5.048   1.814 -1.6931 -3.2733 -1.2635
   65MOL   H30120909   6.393   4.826   1.905 -0.7855  0.5227 -0.8703
   65MOL   H30220910   6.176   4.948   2.262 -0.3251 -1.1361 -0.0019
   65MOL   H30320911   6.140   5.164   2.159 -1.9869 -1.5226  2.0076
   65MOL   H30420912   6.386   5.292   1.796  1.2550 -1.3008  0.6607
   65MOL   H30520913   6.315   5.434   1.843 -1.5652 -1.3978 -1.0398
   65MOL   C30620914   6.452   5.351   1.990 -0.4302  0.3812  0.2888
   65MOL   C30720915   6.578   5.410   1.935 -0.2844  0.3352  0.0199
   65MOL   C30820916   6.699   5.397   2.011 -0.6994 -0.0447 -0.4471
   65MOL   C30920917   6.822   5.443   1.955 -0.0487  0.2364  0.5827
   65MOL   C31020918   6.815   5.524   1.843  0.0816 -0.7144 -0.1333
   65MOL   F31120919   6.930   5.574   1.790  0.0920  0.3727  0.0171
   65MOL   C31220920   6.696   5.545   1.771  0.0066  0.2584  0.2886
   65MOL   C31320921   6.578   5.492   1.822  1.2232 -0.8348  0.2980
   65MOL   C31420922   6.398   5.434   2.103 -0.4245 -0.5859  0.1019
   65MOL   H31520923   6.471   5.254   2.038 -0.4277 -0.0659 -0.6167
   65MOL   H31620924   6.691   5.334   2.099  0.5555 -1.8925 -1.6303
   65MOL   H31720925   6.918   5.433   2.003  1.1088  1.1286 -1.4391
   65MOL   H31820926   6.697   5.611   1.685  2.2611  0.6654  0.6037
   65MOL   H31920927   6.487   5.515   1.768 -0.5252 -1.6446  2.8105
   65MOL   H32020928   6.395   5.540   2.077  0.8335 -0.8079 -0.9747
   65MOL   H32120929   6.301   5.401   2.140 -1.2429  1.8004  0.2041
   65MOL   H32220930   6.470   5.429   2.185 -0.5615 -1.2582  0.1866
   66MOL     C120931   4.532   4.092   3.761 -0.1854 -0.1114 -0.3781
   66MOL     C220932   4.431   4.192   3.704  0.4347  0.2265  0.0566
   66MOL     C320933   4.356   4.161   3.594 -0.3525  0.5132  0.3689
   66MOL     C420934   4.267   4.250   3.538 -0.6680 -0.4422 -0.4426
   66MOL     C520935   4.247   4.371   3.605  0.4326  0.6346  0.1550
   66MOL     F620936   4.154   4.452   3.544 -0.3345  0.3226  0.0584
   66MOL     C720937   4.314   4.405   3.724  0.0102 -0.2127 -0.4213
   66MOL     C820938   4.410   4.314   3.768  0.1746 -0.0681 -0.5649
   66MOL     C920939   4.499   4.039   3.899 -0.0332 -0.4681 -0.1705
   66MOL    H1020940   4.627   4.145   3.774 -0.0578 -0.9498  2.3918
   66MOL    H1120941   4.376   4.068   3.541  0.7371  0.3396  1.0917
   66MOL    H1220942   4.218   4.217   3.448 -0.5535  2.3024 -1.5577
   66MOL    H1320943   4.300   4.503   3.768 -1.4728 -0.5524 -0.0979
   66MOL    H1420944   4.472   4.338   3.854 -0.0608  0.2773 -0.4897
   66MOL    H1520945   4.591   3.993   3.936 -0.0931 -0.8870 -0.5301
   66MOL    H1620946   4.495   4.123   3.968  0.2897  0.1956 -0.9551
   66MOL    H1720947   4.556   4.014   3.690  0.6898 -1.1608  1.0433
   66MOL    C1820948   4.377   3.940   3.907 -0.3097 -0.1955  0.0741
   66MOL    C1920949   4.390   3.836   3.796  0.3206  0.2373 -0.0827
   66MOL    C2020950   4.285   3.827   3.700  0.1730  1.2709  0.1218
   66MOL    C2120951   4.295   3.744   3.588  0.2570 -0.4083 -0.2015
   66MOL    C2220952   4.406   3.664   3.577 -0.5802  0.4388 -0.4989
   66MOL    F2320953   4.420   3.576   3.474 -0.1689 -0.7011  0.1166
   66MOL    C2420954   4.506   3.660   3.677  0.2557 -0.1301 -0.5874
   66MOL    C2520955   4.494   3.749   3.787  0.3709  0.8200 -0.1142
   66MOL    C2620956   4.367   3.885   4.048  0.2370  0.1948 -0.4010
   66MOL    H2720957   4.292   4.004   3.881 -0.6182 -0.0239  1.4604
   66MOL    H2820958   4.194   3.885   3.701 -1.0807 -0.5716 -2.1726
   66MOL    H2920959   4.212   3.732   3.521  0.0624 -0.7185  0.0965
   66MOL    H3020960   4.588   3.589   3.677 -0.9076 -1.5898  2.6718
   66MOL    H3120961   4.576   3.757   3.857 -0.5094  0.2440  0.9926
   66MOL    H3220962   4.459   3.831   4.068  0.2623 -0.1104 -1.2996
   66MOL    H3320963   4.374   3.972   4.112  0.3369 -0.4002  0.4002
   66MOL    C3420964   4.244   3.802   4.075  0.8592 -0.3841 -0.4233
   66MOL    C3520965   4.272   3.690   4.170  0.5443  0.5381 -0.2808
   66MOL    C3620966   4.295   3.564   4.123  0.7435 -0.5127 -0.2526
   66MOL    C3720967   4.343   3.465   4.206  0.3302 -0.0066 -0.2235
   66MOL    C3820968   4.351   3.485   4.342 -0.3396  0.5036 -0.1958
   66MOL    F3920969   4.413   3.386   4.412 -0.4008  0.4159 -0.4925
   66MOL    C4020970   4.328   3.611   4.396 -0.1093  0.8655 -0.1222
   66MOL    C4120971   4.293   3.715   4.310  0.5458  0.2264 -0.0142
   66MOL    C4220972   4.122   3.888   4.111 -0.6849  0.1874 -0.3265
   66MOL    H4320973   4.229   3.744   3.984 -1.7443 -0.5782  0.0898
   66MOL    H4420974   4.275   3.551   4.018 -0.3532 -2.0531  0.1316
   66MOL    H4520975   4.367   3.365   4.173 -0.5483 -0.3388  0.1223
   66MOL    H4620976   4.353   3.631   4.500  1.3045 -1.1424 -0.0377
   66MOL    H4720977   4.278   3.818   4.336  0.0850 -0.3211  1.9139
   66MOL    H4820978   4.144   3.932   4.209 -0.1148  0.7356 -0.6945
   66MOL    H4920979   4.122   3.979   4.052  0.2867  0.1100 -0.4552
   66MOL    C5020980   3.982   3.824   4.096  0.2749 -0.0789 -0.4072
   66MOL    C5120981   3.877   3.912   4.159 -0.9466 -0.3765  0.1511
   66MOL    C5220982   3.801   3.865   4.266 -0.3164  1.0762  0.9073
   66MOL    C5320983   3.716   3.950   4.333  0.4666 -0.2930 -0.0634
   66MOL    C5420984   3.699   4.091   4.293 -0.2852  0.2950 -0.3884
   66MOL    F5520985   3.617   4.170   4.366 -0.0116  0.1197 -0.0297
   66MOL    C5620986   3.779   4.136   4.188  0.1106 -0.5721 -0.4718
   66MOL    C5720987   3.857   4.043   4.112 -0.3524 -0.3210 -0.2615
   66MOL    C5820988   3.958   3.787   3.950 -0.2746 -0.3218 -0.1798
   66MOL    H5920989   3.994   3.731   4.152 -1.7529  0.9622  1.8388
   66MOL    H6020990   3.809   3.760   4.290  0.7939  0.3868 -2.1869
   66MOL    H6120991   3.656   3.907   4.412  1.9249 -0.6622  0.8577
   66MOL    H6220992   3.766   4.238   4.154 -3.2504 -0.4260  1.0388
   66MOL    H6320993   3.914   4.075   4.025 -0.9246 -0.3504 -0.6526
   66MOL    H6420994   4.018   3.862   3.899 -1.4419  1.2468  0.7363
   66MOL    H6520995   4.015   3.696   3.930  1.9925  0.9070  0.5113
   66MOL    C6620996   3.823   3.783   3.883 -0.1535 -0.3084  0.4643
   66MOL    C6720997   3.841   3.787   3.737 -0.5570  0.2541  0.2475
   66MOL    C6820998   3.837   3.667   3.659 -0.0494 -0.1464  0.5290
   66MOL    C6920999   3.869   3.676   3.521 -0.6276  0.1977 -0.0800
   66MOL    C7021000   3.887   3.797   3.452 -0.4822 -0.6751 -0.1609
   66MOL    F7121001   3.888   3.800   3.317  0.0933 -0.3558  0.2159
   66MOL    C7221002   3.887   3.911   3.531 -0.2953 -0.5485  0.0506
   66MOL    C7321003   3.871   3.908   3.668 -0.4857 -0.5061  0.0730
   66MOL    C7421004   3.727   3.671   3.940  0.1037  0.5394 -0.2617
   66MOL    H7521005   3.774   3.874   3.917 -1.0155 -1.0882  1.3418
   66MOL    H7621006   3.808   3.575   3.707  1.2060 -3.1941 -4.3214
   66MOL    H7721007   3.863   3.588   3.459  2.3420 -0.9175  1.1223
   66MOL    H7821008   3.895   4.011   3.490 -0.0598 -0.0046  1.3784
   66MOL    H7921009   3.873   4.002   3.722 -0.4384 -2.3234  3.4107
   66MOL    H8021010   3.754   3.573   3.902  0.1737 -0.2119  1.6671
   66MOL    H8121011   3.727   3.678   4.049  1.8268 -1.9118 -0.0429
   66MOL    C8221012   3.580   3.698   3.897 -0.3771  0.0045 -0.4372
   66MOL    C8321013   3.511   3.561   3.870 -0.7691 -0.1460  0.7395
   66MOL    C8421014   3.462   3.532   3.746  0.8738 -0.1209 -0.3126
   66MOL    C8521015   3.395   3.411   3.723  0.9015  0.0747 -0.6099
   66MOL    C8621016   3.373   3.322   3.833  0.1548 -0.1280  0.0826
   66MOL    F8721017   3.321   3.198   3.822  0.2370  0.1569  0.0692
   66MOL    C8821018   3.426   3.354   3.957 -0.7797  0.7339 -0.8931
   66MOL    C8921019   3.492   3.475   3.979  0.0755  1.2300 -0.6884
   66MOL    C9021020   3.507   3.791   3.999 -0.0365 -0.1479 -0.1398
   66MOL    H9121021   3.594   3.758   3.807 -3.2798  0.7502 -0.4350
   66MOL    H9221022   3.470   3.608   3.670 -0.7893  0.9415  0.5376
   66MOL    H9321023   3.360   3.379   3.626  0.5034  0.4097 -0.5791
   66MOL    H9421024   3.406   3.298   4.047  0.8912 -0.1803 -1.0659
   66MOL    H9521025   3.534   3.494   4.076  0.9255  0.2417 -0.8492
   66MOL    H9621026   3.509   3.747   4.099  3.8386  0.6459  0.1937
   66MOL    H9721027   3.554   3.888   4.016 -1.2600  0.2967  0.8025
   66MOL    C9821028   3.366   3.827   3.965  0.3135  0.4344  0.0196
   66MOL    C9921029   3.278   3.881   4.079 -0.5202  0.0122  0.7577
   66MOL   C10021030   3.169   3.806   4.124 -0.4360  0.0086  0.3030
   66MOL   C10121031   3.074   3.856   4.216 -0.0875 -0.1029  0.0556
   66MOL   C10221032   3.090   3.989   4.258  0.4366 -0.7984  0.2693
   66MOL   F10321033   2.996   4.035   4.344  0.5926  0.2250  0.2095
   66MOL   C10421034   3.190   4.073   4.202  0.2804  0.4885  0.8145
   66MOL   C10521035   3.284   4.019   4.111  0.0983 -0.4849 -0.1219
   66MOL   C10621036   3.355   3.916   3.840 -0.0988  0.3858  0.2172
   66MOL   H10721037   3.329   3.731   3.929  3.9900 -0.6748 -1.1009
   66MOL   H10821038   3.160   3.703   4.092  0.4409 -0.3008  1.0411
   66MOL   H10921039   2.994   3.793   4.252  1.7417 -1.1099  2.4773
   66MOL   H11021040   3.201   4.175   4.234  0.0493  0.6911  0.2587
   66MOL   H11121041   3.360   4.090   4.083 -1.1651  0.3128 -1.6105
   66MOL   H11221042   3.348   4.023   3.859  2.9003  0.7940 -0.7083
   66MOL   H11321043   3.452   3.914   3.789 -0.2406 -0.9570 -0.0185
   66MOL   C11421044   3.247   3.874   3.739 -0.1108  0.4104 -0.3971
   66MOL   C11521045   3.100   3.864   3.795 -0.3888 -0.3078 -0.6081
   66MOL   C11621046   3.039   3.743   3.805  0.3598  0.4420 -0.2539
   66MOL   C11721047   2.918   3.727   3.868  0.2667 -0.0413  0.2692
   66MOL   C11821048   2.857   3.843   3.931 -0.8934 -0.0207 -0.3638
   66MOL   F11921049   2.738   3.828   3.995 -0.2064 -0.3305  0.2774
   66MOL   C12021050   2.926   3.966   3.934 -0.4095  1.0585  0.6572
   66MOL   C12121051   3.044   3.978   3.859 -0.6093  0.6813 -0.5319
   66MOL   C12221052   3.231   3.963   3.614 -0.1649 -0.4265  0.7514
   66MOL   H12321053   3.272   3.772   3.709 -0.5335  0.7759 -2.0036
   66MOL   H12421054   3.087   3.653   3.769 -0.3439 -0.1578  0.3044
   66MOL   H12521055   2.859   3.637   3.872 -0.3046  0.3309  0.2246
   66MOL   H12621056   2.889   4.045   3.997 -0.4673 -0.3714  2.4516
   66MOL   H12721057   3.102   4.069   3.872  0.9823 -0.3738 -0.0556
   66MOL   H12821058   3.139   3.944   3.559  1.2296 -3.1247 -0.7274
   66MOL   H12921059   3.226   4.064   3.655 -1.6601 -0.7652  1.4473
   66MOL   C13021060   3.351   3.953   3.522  0.1567 -0.4640  0.3465
   66MOL   C13121061   3.376   3.813   3.465  0.1954 -0.0851  0.7324
   66MOL   C13221062   3.511   3.762   3.462  0.5668  0.4554  0.4272
   66MOL   C13321063   3.532   3.636   3.401 -0.0729  0.6715 -0.5289
   66MOL   C13421064   3.430   3.568   3.339 -0.2538  0.3875  0.0676
   66MOL   F13521065   3.460   3.452   3.279  0.4368 -0.6330  0.0112
   66MOL   C13621066   3.298   3.619   3.339  0.2306  0.1897 -0.6026
   66MOL   C13721067   3.267   3.739   3.403 -0.1287 -0.1817  0.5941
   66MOL   C13821068   3.346   4.054   3.407 -0.4725 -0.2304  0.8133
   66MOL   H13921069   3.443   3.973   3.577  0.3602  0.9595 -0.4939
   66MOL   H14021070   3.596   3.815   3.503  0.3872  1.1394 -0.0712
   66MOL   H14121071   3.631   3.593   3.405 -1.6537 -3.0313  1.6993
   66MOL   H14221072   3.212   3.571   3.296 -0.3971  1.3689 -0.7027
   66MOL   H14321073   3.165   3.774   3.392 -0.6648 -1.5533  1.1384
   66MOL   H14421074   3.426   4.039   3.334 -0.0908 -2.4043  1.6589
   66MOL   H14521075   3.258   4.040   3.345  2.0247 -1.4573 -2.6632
   66MOL   C14621076   3.365   4.205   3.447  0.4774 -0.1883  0.6533
   66MOL   C14721077   3.478   4.231   3.542  0.3280 -0.5898 -0.2168
   66MOL   C14821078   3.610   4.231   3.493  0.4009 -0.4175 -0.3312
   66MOL   C14921079   3.711   4.271   3.583 -0.1606  0.6331  0.2837
   66MOL   C15021080   3.684   4.285   3.720 -0.5709 -0.0446  1.3258
   66MOL   F15121081   3.783   4.299   3.814 -0.0745 -0.1956  0.6622
   66MOL   C15221082   3.553   4.276   3.767  0.2588 -0.4750 -0.2781
   66MOL   C15321083   3.448   4.257   3.681  0.4267  0.5976  0.0254
   66MOL   C15421084   3.351   4.299   3.322 -0.3530 -0.1301 -0.5193
   66MOL   H15521085   3.276   4.227   3.507 -0.4391  2.9232 -1.7312
   66MOL   H15621086   3.633   4.214   3.389  0.1951 -1.8473 -0.1504
   66MOL   H15721087   3.815   4.271   3.552 -0.7660  1.4361 -1.7977
   66MOL   H15821088   3.531   4.285   3.873 -0.2186  0.6803 -0.4697
   66MOL   H15921089   3.351   4.261   3.729  0.2805 -0.6958 -0.1272
   66MOL   H16021090   3.439   4.283   3.260  0.9272  2.3024  0.6022
   66MOL   H16121091   3.272   4.262   3.257 -0.4854 -2.8191  1.0747
   66MOL   C16221092   3.313   4.441   3.366 -0.7112  0.3903  0.4500
   66MOL   C16321093   3.417   4.536   3.303 -0.2030  0.1723 -1.1798
   66MOL   C16421094   3.463   4.529   3.168 -0.1170 -0.4528  0.4222
   66MOL   C16521095   3.563   4.616   3.124  0.5724  0.4121  0.7460
   66MOL   C16621096   3.624   4.709   3.213 -0.0686 -0.3535 -0.3206
   66MOL   F16721097   3.729   4.785   3.166 -0.0011  0.0342 -0.3650
   66MOL   C16821098   3.572   4.723   3.342 -0.1064 -0.3809  0.7981
   66MOL   C16921099   3.474   4.638   3.389  0.2142  0.8221 -0.4462
   66MOL   C17021100   3.163   4.472   3.336 -0.1234 -0.6827 -0.1518
   66MOL   H17121101   3.329   4.449   3.473  0.2918  1.4505  0.2283
   66MOL   H17221102   3.434   4.453   3.097  2.6479 -0.7984 -0.4037
   66MOL   H17321103   3.612   4.601   3.029 -1.6787 -1.5386 -0.1512
   66MOL   H17421104   3.623   4.796   3.403  1.8366 -0.5229 -0.6022
   66MOL   H17521105   3.438   4.653   3.490 -0.8951 -0.9612 -0.5628
   66MOL   H17621106   3.141   4.579   3.341  1.2047 -0.1759 -3.9398
   66MOL   H17721107   3.142   4.457   3.230 -0.9129  0.8107 -0.2210
   66MOL   C17821108   3.060   4.415   3.429 -0.3489  0.5384 -0.0515
   66MOL   C17921109   3.069   4.444   3.579 -0.2367 -0.1617  0.0446
   66MOL   C18021110   3.144   4.555   3.620  0.1884  0.5530 -0.6826
   66MOL   C18121111   3.171   4.560   3.761 -0.4737 -0.2779 -0.5343
   66MOL   C18221112   3.131   4.465   3.855 -0.1404  0.5192  0.1530
   66MOL   F18321113   3.175   4.466   3.985  0.1984 -0.1803 -0.0885
   66MOL   C18421114   3.051   4.357   3.810  0.1850 -0.0731  0.2113
   66MOL   C18521115   3.025   4.348   3.670 -0.0452  0.3433  0.7502
   66MOL   C18621116   2.913   4.440   3.378 -0.5906 -0.5059  0.0569
   66MOL   H18721117   3.095   4.312   3.422  0.7352  0.7434  1.9083
   66MOL   H18821118   3.177   4.639   3.560 -2.6829  2.8960  0.8476
   66MOL   H18921119   3.240   4.637   3.793 -0.3546 -0.6524  0.1136
   66MOL   H19021120   3.040   4.280   3.885  1.5389 -1.7150 -1.2308
   66MOL   H19121121   2.977   4.262   3.626  2.9029 -0.2065 -1.5208
   66MOL   H19221122   2.850   4.408   3.461  0.6679 -0.8246  0.9043
   66MOL   H19321123   2.896   4.548   3.373 -0.4497 -0.3514  2.4345
   66MOL   C19421124   2.864   4.379   3.251  0.6106 -0.2691  0.3216
   66MOL   C19521125   2.917   4.239   3.229 -0.1780 -0.0640  0.3820
   66MOL   C19621126   2.970   4.194   3.108 -1.1932 -0.3471 -0.3181
   66MOL   C19721127   3.007   4.058   3.086 -0.0897 -1.5293 -0.5404
   66MOL   C19821128   2.987   3.965   3.192 -0.4634 -0.1436  0.9994
   66MOL   F19921129   3.031   3.837   3.176 -0.0351  0.9614 -0.3702
   66MOL   C20021130   2.926   4.005   3.312 -0.9749  0.0156 -0.7949
   66MOL   C20121131   2.899   4.140   3.327  0.3661 -0.4623  0.1333
   66MOL   C20221132   2.714   4.392   3.239  0.0377  0.5992  0.3225
   66MOL   H20321133   2.894   4.452   3.176 -2.4717  0.5725 -0.1674
   66MOL   H20421134   2.988   4.274   3.038  0.3405  0.4198  0.9141
   66MOL   H20521135   3.054   4.035   2.992 -1.5258  0.4436 -1.7973
   66MOL   H20621136   2.914   3.936   3.395  1.8459 -0.2006 -0.5281
   66MOL   H20721137   2.842   4.181   3.409  1.0402  0.3434  0.2001
   66MOL   H20821138   2.681   4.330   3.323 -2.9173  0.7250 -0.7246
   66MOL   H20921139   2.677   4.493   3.253  1.5552  1.1381  0.5501
   66MOL   C21021140   2.648   4.325   3.109 -0.6510  0.7309  0.0141
   66MOL   C21121141   2.498   4.307   3.126  0.8010  0.5066  0.8649
   66MOL   C21221142   2.410   4.415   3.137  0.1351  0.2464  0.0566
   66MOL   C21321143   2.269   4.399   3.149  0.4439 -0.3388 -0.2834
   66MOL   C21421144   2.210   4.268   3.150 -0.6580  0.0012 -0.4654
   66MOL   F21521145   2.076   4.255   3.168 -0.1099 -0.2774 -0.9201
   66MOL   C21621146   2.293   4.161   3.146  0.3879 -0.3222 -0.5443
   66MOL   C21721147   2.436   4.180   3.134 -0.0003 -0.4533 -0.0746
   66MOL   C21821148   2.691   4.387   2.976 -0.1373  0.2682  0.3439
   66MOL   H21921149   2.687   4.224   3.102  0.8563  1.3253 -0.3303
   66MOL   H22021150   2.453   4.513   3.128 -1.0891  0.7091 -0.7557
   66MOL   H22121151   2.207   4.487   3.163  1.2267 -0.1226  2.2573
   66MOL   H22221152   2.250   4.062   3.146 -1.0945  0.2818 -2.2990
   66MOL   H22321153   2.484   4.083   3.143 -1.8719 -1.3100  1.2362
   66MOL   H22421154   2.716   4.491   2.998  0.7028  0.2280 -0.3921
   66MOL   H22521155   2.787   4.338   2.956 -1.0681 -1.8443  0.8762
   66MOL   C22621156   2.596   4.377   2.852 -0.0176 -0.2532 -0.4895
   66MOL   C22721157   2.631   4.471   2.737  0.0286 -0.1463  0.3417
   66MOL   C22821158   2.723   4.429   2.645  0.3808  0.1992  0.4956
   66MOL   C22921159   2.757   4.511   2.536  0.4944 -0.2437  0.0098
   66MOL   C23021160   2.701   4.641   2.525 -0.7170  0.4223  0.0743
   66MOL   F23121161   2.725   4.724   2.418 -0.1872 -0.1670 -0.0686
   66MOL   C23221162   2.609   4.693   2.618 -0.1121  0.9702 -0.1659
   66MOL   C23321163   2.569   4.601   2.720 -0.2194  0.4073 -0.3066
   66MOL   C23421164   2.572   4.230   2.819 -0.4511  0.6994  0.7150
   66MOL   H23521165   2.503   4.423   2.886  1.5119  0.8903  2.3943
   66MOL   H23621166   2.778   4.336   2.657 -0.1866  0.0039  1.6295
   66MOL   H23721167   2.826   4.473   2.462  0.1406 -1.5766  0.3679
   66MOL   H23821168   2.575   4.796   2.620  0.9487  1.3295 -0.1626
   66MOL   H23921169   2.486   4.633   2.781  0.1088 -0.4764  0.6033
   66MOL   H24021170   2.663   4.187   2.777 -1.3299  0.1915 -0.6614
   66MOL   H24121171   2.565   4.175   2.913 -1.0161  0.3311  0.4548
   66MOL   C24221172   2.457   4.214   2.727  0.1620  0.3896  0.2474
   66MOL   C24321173   2.469   4.080   2.658  0.2438  0.2543 -0.6635
   66MOL   C24421174   2.506   4.072   2.522  0.1264  0.5489  0.2291
   66MOL   C24521175   2.471   3.951   2.451  0.4134 -0.1055 -0.2589
   66MOL   C24621176   2.438   3.832   2.523 -0.1321  0.6653  0.3155
   66MOL   F24721177   2.415   3.716   2.459  0.3558 -0.2043  0.0330
   66MOL   C24821178   2.429   3.840   2.662 -0.5618 -0.4768 -0.1616
   66MOL   C24921179   2.444   3.961   2.730  0.5042 -0.2212 -0.8923
   66MOL   C25021180   2.321   4.228   2.794 -0.4559 -0.1656  0.5527
   66MOL   H25121181   2.464   4.298   2.658  1.6530  0.9091  1.0137
   66MOL   H25221182   2.537   4.155   2.461  2.8763 -1.6813 -1.5354
   66MOL   H25321183   2.489   3.942   2.345 -2.5823 -1.7390 -0.7123
   66MOL   H25421184   2.418   3.746   2.713 -3.8083  0.4733  0.9830
   66MOL   H25521185   2.434   3.955   2.837 -0.0681  1.7028 -0.8180
   66MOL   H25621186   2.270   4.136   2.826 -0.9996  0.2362  0.8546
   66MOL   H25721187   2.335   4.282   2.888 -4.5821  0.6422  0.8245
   66MOL   C25821188   2.215   4.302   2.707 -0.7778 -0.1396 -0.0415
   66MOL   C25921189   2.182   4.216   2.587 -0.3707  0.1282 -0.7043
   66MOL   C26021190   2.215   4.261   2.458 -0.2917 -0.2021  0.4862
   66MOL   C26121191   2.186   4.182   2.344 -0.1165 -0.3535  0.1367
   66MOL   C26221192   2.118   4.056   2.358 -0.3361 -0.6566 -0.0889
   66MOL   F26321193   2.083   3.984   2.250 -0.2816 -0.2290 -0.0100
   66MOL   C26421194   2.093   4.007   2.491 -0.3742  0.4200 -1.1479
   66MOL   C26521195   2.128   4.088   2.602  0.2589  0.6557  0.2880
   66MOL   C26621196   2.083   4.334   2.787  0.2642 -0.4555  0.3850
   66MOL   H26721197   2.266   4.394   2.681  1.0596 -0.9608  0.5582
   66MOL   H26821198   2.255   4.359   2.437 -0.5294 -0.2432 -0.1689
   66MOL   H26921199   2.203   4.229   2.249  0.1700  0.1411  0.4328
   66MOL   H27021200   2.052   3.908   2.508 -2.3191  1.5845  1.2662
   66MOL   H27121201   2.108   4.040   2.697  1.5900 -0.9880 -0.2247
   66MOL   H27221202   2.009   4.262   2.752  0.9839  0.0117 -2.1518
   66MOL   H27321203   2.097   4.328   2.895 -1.3087  1.8534  0.7627
   66MOL   C27421204   2.024   4.476   2.768 -0.3503 -0.4420 -0.0191
   66MOL   C27521205   1.881   4.471   2.830 -0.3737 -0.5846  0.3450
   66MOL   C27621206   1.855   4.453   2.969  0.0523 -0.2695 -0.4292
   66MOL   C27721207   1.723   4.424   3.009 -0.5719  0.0476 -0.1181
   66MOL   C27821208   1.615   4.438   2.919 -0.0699 -0.1210 -0.2135
   66MOL   F27921209   1.486   4.417   2.957  0.2610  0.3890  0.2318
   66MOL   C28021210   1.639   4.455   2.783  0.6134 -0.2464 -0.0266
   66MOL   C28121211   1.771   4.476   2.733  0.0481 -0.0217 -0.1352
   66MOL   C28221212   2.109   4.580   2.844  0.0771 -0.2659  0.2318
   66MOL   H28321213   2.012   4.502   2.663  0.7260  0.6903  0.1178
   66MOL   H28421214   1.941   4.449   3.034  0.6227  0.5859 -1.1090
   66MOL   H28521215   1.706   4.422   3.116  0.9927  2.4074  0.2278
   66MOL   H28621216   1.551   4.461   2.721  0.2161  0.2131  0.5742
   66MOL   H28721217   1.795   4.500   2.631  0.9703  0.1388  0.1096
   66MOL   H28821218   2.093   4.589   2.951 -1.3149  0.4567 -0.0271
   66MOL   H28921219   2.213   4.550   2.839  0.4260  0.8457  0.7114
   66MOL   C29021220   2.105   4.714   2.775  0.2924  0.2357 -0.1803
   66MOL   C29121221   1.963   4.781   2.786 -0.7005 -0.1821  0.0694
   66MOL   C29221222   1.882   4.800   2.672 -0.6287  0.5958 -0.3054
   66MOL   C29321223   1.769   4.875   2.684  0.1932 -0.0107  0.1146
   66MOL   C29421224   1.725   4.928   2.807 -0.4396  0.1894  0.2147
   66MOL   F29521225   1.606   4.990   2.814 -0.2604 -0.7449 -0.0236
   66MOL   C29621226   1.797   4.909   2.923  0.3217 -0.1195 -0.7479
   66MOL   C29721227   1.922   4.836   2.910 -0.4277 -0.7358  0.4211
   66MOL   C29821228   2.217   4.811   2.823  0.3061 -1.0706 -0.3441
   66MOL   H29921229   2.122   4.703   2.667  1.6930 -1.6240  0.2114
   66MOL   H30021230   1.927   4.763   2.581  1.6994 -1.2088  1.4847
   66MOL   H30121231   1.709   4.910   2.602 -0.5786 -0.2645  0.5676
   66MOL   H30221232   1.757   4.965   3.006 -0.1866  1.3561 -1.9582
   66MOL   H30321233   1.989   4.827   2.995 -0.5583 -0.7890  0.5185
   66MOL   H30421234   2.212   4.804   2.931 -1.7718 -1.1045 -0.4150
   66MOL   H30521235   2.315   4.779   2.790  0.4492  0.5910 -1.6601
   66MOL   C30621236   2.212   4.958   2.778 -0.2021  0.1947 -0.7607
   66MOL   C30721237   2.285   5.049   2.888  0.6422 -0.4509  0.3181
   66MOL   C30821238   2.213   5.125   2.979 -0.2089 -0.2906  0.3022
   66MOL   C30921239   2.279   5.206   3.073 -0.3072  0.3889 -0.3626
   66MOL   C31021240   2.419   5.199   3.090  0.0528  0.3585 -0.6761
   66MOL   F31121241   2.483   5.281   3.180 -0.1443 -0.3126  0.1576
   66MOL   C31221242   2.485   5.119   3.000 -0.5970 -0.1358 -0.3559
   66MOL   C31321243   2.422   5.046   2.895  0.1090 -0.2949  0.3573
   66MOL   C31421244   2.272   4.983   2.635  0.2045 -0.7972  0.3418
   66MOL   H31521245   2.109   4.992   2.776  0.4533  2.3640  0.2125
   66MOL   H31621246   2.106   5.141   2.975 -0.3544 -1.4304 -0.4687
   66MOL   H31721247   2.226   5.283   3.129 -1.3232 -0.2020 -0.5011
   66MOL   H31821248   2.592   5.109   2.994 -0.7380 -1.7695 -0.3698
   66MOL   H31921249   2.474   4.998   2.813 -1.2574 -0.2857 -0.5394
   66MOL   H32021250   2.191   4.953   2.568 -1.3022 -1.1578  2.2807
   66MOL   H32121251   2.303   5.086   2.619  1.4301 -1.2459 -0.2395
   66MOL   H32221252   2.360   4.920   2.618  1.1903 -0.1904  2.9706
   67MOL     C121253   6.333   2.841   2.675  0.5089  0.8213 -0.6449
   67MOL     C221254   6.397   2.981   2.664 -0.3481 -0.3183 -0.3097
   67MOL     C321255   6.523   3.002   2.716 -0.5999 -0.8448  0.6262
   67MOL     C421256   6.582   3.130   2.718 -0.0827 -0.2863 -0.2894
   67MOL     C521257   6.519   3.234   2.646  0.3499  0.0386 -0.4690
   67MOL     F621258   6.582   3.355   2.651 -0.0500 -0.2510  0.2668
   67MOL     C721259   6.389   3.213   2.589  0.2147  0.1769  0.1491
   67MOL     C821260   6.333   3.082   2.594  0.2498  1.2207 -0.2172
   67MOL     C921261   6.408   2.729   2.598 -0.3314 -0.2335 -0.2930
   67MOL    H1021262   6.234   2.838   2.630  0.8890  0.6000 -1.4875
   67MOL    H1121263   6.573   2.912   2.751  1.7692 -0.4170 -1.4775
   67MOL    H1221264   6.683   3.148   2.753 -0.3569  0.8860 -0.0862
   67MOL    H1321265   6.332   3.291   2.539  2.0729  1.4417 -0.0680
   67MOL    H1421266   6.234   3.070   2.553  0.8587  2.0024 -1.9651
   67MOL    H1521267   6.415   2.753   2.491 -2.6734  0.5086 -0.3106
   67MOL    H1621268   6.510   2.720   2.636 -0.4849 -1.4588 -0.1497
   67MOL    H1721269   6.326   2.801   2.776  0.0609 -2.0211 -1.7710
   67MOL    C1821270   6.345   2.592   2.609 -0.4149 -0.5037 -0.3967
   67MOL    C1921271   6.199   2.588   2.565  0.1085 -0.7158  0.4661
   67MOL    C2021272   6.107   2.513   2.641 -0.5037 -0.2449  0.4898
   67MOL    C2121273   5.971   2.503   2.592 -0.1296 -0.2668  0.7234
   67MOL    C2221274   5.929   2.562   2.467  0.6086  0.7572 -1.5491
   67MOL    F2321275   5.800   2.548   2.426 -0.1381 -0.8091  0.2812
   67MOL    C2421276   6.026   2.624   2.390 -0.3140 -1.3269 -0.6563
   67MOL    C2521277   6.156   2.643   2.437  0.2773  0.6220 -1.4161
   67MOL    C2621278   6.422   2.474   2.549  0.1437  0.1918 -0.5218
   67MOL    H2721279   6.338   2.571   2.715  1.3669 -1.2835 -0.4241
   67MOL    H2821280   6.155   2.476   2.730  0.6741 -2.4581 -1.0278
   67MOL    H2921281   5.892   2.457   2.649 -0.9272 -0.5949 -0.6216
   67MOL    H3021282   5.986   2.680   2.306 -1.5445  0.9446  1.4115
   67MOL    H3121283   6.225   2.684   2.364  1.4396  1.7501  0.2769
   67MOL    H3221284   6.353   2.390   2.540 -0.9599  0.9602  0.4840
   67MOL    H3321285   6.441   2.493   2.443  1.0533 -0.6709 -0.5222
   67MOL    C3421286   6.553   2.431   2.617 -0.5104 -0.0367 -0.1766
   67MOL    C3521287   6.543   2.410   2.762 -0.4901  0.1109 -0.3012
   67MOL    C3621288   6.618   2.488   2.851  0.1416  0.3158  0.6593
   67MOL    C3721289   6.597   2.467   2.985 -0.0762 -0.4734 -0.1046
   67MOL    C3821290   6.511   2.371   3.041 -1.0339 -0.4647  0.2931
   67MOL    F3921291   6.506   2.360   3.173 -0.2567  0.0982  0.2088
   67MOL    C4021292   6.435   2.292   2.956  1.0146  0.4089  0.3343
   67MOL    C4121293   6.453   2.309   2.816  0.1155  0.1704  0.3038
   67MOL    C4221294   6.631   2.316   2.543  0.0254 -0.2402  0.6647
   67MOL    H4321295   6.617   2.519   2.617  0.1154 -0.4880  0.2039
   67MOL    H4421296   6.683   2.569   2.823  1.0891 -1.3941 -2.3061
   67MOL    H4521297   6.646   2.537   3.050  2.1432 -0.7578 -1.4466
   67MOL    H4621298   6.370   2.213   2.990 -1.7340  1.7864 -1.5799
   67MOL    H4721299   6.401   2.243   2.748 -0.4079  1.1788 -0.2763
   67MOL    H4821300   6.695   2.264   2.614  0.6409  0.2062  0.4477
   67MOL    H4921301   6.556   2.241   2.520 -0.2093 -0.0790  0.9054
   67MOL    C5021302   6.702   2.356   2.413  0.6930 -0.6054 -0.2003
   67MOL    C5121303   6.841   2.417   2.439 -0.4312  1.1085  0.2893
   67MOL    C5221304   6.924   2.372   2.545  0.4601 -0.2229  0.1791
   67MOL    C5321305   7.053   2.427   2.563 -0.5935  0.8922 -0.1293
   67MOL    C5421306   7.094   2.525   2.473 -0.0383 -0.4438  0.5555
   67MOL    F5521307   7.214   2.582   2.485  0.1416 -0.5712 -0.7795
   67MOL    C5621308   7.018   2.559   2.361  0.3565  0.3840  0.0618
   67MOL    C5721309   6.886   2.513   2.349 -0.3573 -0.3077  0.3945
   67MOL    C5821310   6.711   2.240   2.312  0.3285 -0.2910 -0.0424
   67MOL    H5921311   6.644   2.435   2.366  0.6866  0.0175  0.8330
   67MOL    H6021312   6.897   2.289   2.609  1.0352 -0.1390  0.5423
   67MOL    H6121313   7.104   2.393   2.652 -0.3724 -1.6994 -1.2035
   67MOL    H6221314   7.055   2.625   2.284  1.0270 -0.6242 -0.4968
   67MOL    H6321315   6.822   2.552   2.271 -0.3350 -2.3822 -0.7173
   67MOL    H6421316   6.777   2.268   2.230  0.0806  0.4918  0.0306
   67MOL    H6521317   6.756   2.160   2.372  1.3971  0.9435  0.8239
   67MOL    C6621318   6.581   2.191   2.245  0.3792 -0.7101 -1.1444
   67MOL    C6721319   6.491   2.298   2.177  0.5103 -0.5846 -0.6287
   67MOL    C6821320   6.555   2.384   2.087  0.0729 -0.1088 -0.3450
   67MOL    C6921321   6.479   2.489   2.036 -0.0049 -0.4014 -0.1501
   67MOL    C7021322   6.351   2.516   2.083  0.0859 -0.1221 -1.1542
   67MOL    F7121323   6.299   2.635   2.065 -0.7804 -0.0954 -0.6247
   67MOL    C7221324   6.288   2.436   2.177  0.1227 -0.0473  0.5714
   67MOL    C7321325   6.359   2.326   2.223 -0.2113  0.0947  0.0148
   67MOL    C7421326   6.624   2.081   2.143 -0.0460  0.5537 -0.6687
   67MOL    H7521327   6.509   2.154   2.318 -1.1049  1.3600 -1.4963
   67MOL    H7621328   6.657   2.359   2.063 -0.1698 -2.8551  1.2664
   67MOL    H7721329   6.528   2.555   1.966 -0.9749 -0.8635 -1.2764
   67MOL    H7821330   6.184   2.456   2.198  0.3601  2.1592 -0.1900
   67MOL    H7921331   6.301   2.265   2.291 -0.1250  0.1190  0.1103
   67MOL    H8021332   6.636   2.120   2.043 -0.8274 -0.1354 -1.0382
   67MOL    H8121333   6.709   2.023   2.180 -0.7897 -0.9667 -1.2959
   67MOL    C8221334   6.523   1.959   2.137  0.3963 -0.1605  0.0213
   67MOL    C8321335   6.394   2.005   2.074  0.0510  0.4703 -0.0507
   67MOL    C8421336   6.386   2.071   1.948 -0.0379  0.2382  0.6834
   67MOL    C8521337   6.265   2.122   1.894 -0.5539 -0.2493  0.3420
   67MOL    C8621338   6.145   2.098   1.965  0.5986 -0.0307  0.3288
   67MOL    F8721339   6.026   2.137   1.910  0.3090  0.1022  0.2214
   67MOL    C8821340   6.146   2.023   2.081 -0.6089  0.4989  0.2406
   67MOL    C8921341   6.270   1.975   2.137 -0.4178  0.0323  0.7995
   67MOL    C9021342   6.574   1.828   2.079  0.3355 -0.3485  0.3840
   67MOL    H9121343   6.509   1.941   2.244  0.0009  3.0612  0.5872
   67MOL    H9221344   6.479   2.079   1.894 -0.6942 -1.0578 -0.7048
   67MOL    H9321345   6.266   2.177   1.801  0.1581  0.8997  1.0200
   67MOL    H9421346   6.051   1.995   2.125 -0.3635  0.9840  1.0999
   67MOL    H9521347   6.266   1.908   2.222  3.1730 -0.8487  0.3334
   67MOL    H9621348   6.607   1.852   1.978 -0.2642 -0.8881  0.0519
   67MOL    H9721349   6.661   1.817   2.143  0.2593 -1.6855  0.2710
   67MOL    C9821350   6.478   1.704   2.088  0.1845 -0.5776 -0.9101
   67MOL    C9921351   6.530   1.597   1.999  0.2753 -0.1607  0.2426
   67MOL   C10021352   6.538   1.616   1.858 -0.3960  0.3860 -0.5302
   67MOL   C10121353   6.594   1.517   1.773  0.1015 -0.1106 -0.5974
   67MOL   C10221354   6.646   1.400   1.824  0.0889 -0.3189  0.8799
   67MOL   F10321355   6.696   1.299   1.742 -0.3025  0.0216 -0.0642
   67MOL   C10421356   6.642   1.379   1.961 -0.2168  0.0574 -0.0227
   67MOL   C10521357   6.586   1.481   2.049 -0.4816 -0.4996 -0.0964
   67MOL   C10621358   6.443   1.663   2.231  0.5300  0.5083  0.8848
   67MOL   H10721359   6.388   1.739   2.037  0.7248  0.7199 -0.9894
   67MOL   H10821360   6.486   1.701   1.819 -0.0094  0.2950 -1.2528
   67MOL   H10921361   6.583   1.535   1.667  1.1780  1.1885 -0.5052
   67MOL   H11021362   6.671   1.281   1.997 -0.2444  0.0164 -0.1117
   67MOL   H11121363   6.591   1.464   2.155  2.0782 -0.1720 -0.1300
   67MOL   H11221364   6.535   1.631   2.281  0.6014 -0.4334  0.1589
   67MOL   H11321365   6.415   1.757   2.278  0.2128  1.3671 -0.9941
   67MOL   C11421366   6.329   1.562   2.258  0.1117  0.6696  0.1662
   67MOL   C11521367   6.333   1.514   2.397 -0.0554  0.1703  0.1620
   67MOL   C11621368   6.366   1.378   2.424  0.9442 -1.1515 -0.2466
   67MOL   C11721369   6.380   1.331   2.551 -0.6856 -0.4861  0.2442
   67MOL   C11821370   6.370   1.420   2.662  0.3964  0.2527  0.5854
   67MOL   F11921371   6.385   1.370   2.787 -0.4611  0.3138  0.4973
   67MOL   C12021372   6.342   1.554   2.641 -0.1482 -0.1102 -0.2864
   67MOL   C12121373   6.325   1.604   2.508 -0.1106  0.1968  0.0552
   67MOL   C12221374   6.189   1.631   2.221  0.3485  0.1514  0.5656
   67MOL   H12321375   6.333   1.480   2.187 -0.1923  0.8527 -0.0629
   67MOL   H12421376   6.384   1.310   2.343 -0.6076 -1.0027 -0.7248
   67MOL   H12521377   6.402   1.227   2.565  0.8405 -0.1904  0.1851
   67MOL   H12621378   6.354   1.622   2.724 -0.5888 -0.9890  0.5022
   67MOL   H12721379   6.304   1.709   2.496 -1.7988 -0.0580  0.6754
   67MOL   H12821380   6.174   1.724   2.274 -0.1525  0.1242  0.4670
   67MOL   H12921381   6.197   1.656   2.115  2.7400  3.1900  1.3926
   67MOL   C13021382   6.057   1.549   2.248  0.2500  0.1724  0.2775
   67MOL   C13121383   5.962   1.635   2.331  0.0132 -0.6000 -0.0813
   67MOL   C13221384   5.935   1.603   2.464 -0.2082  0.0031  0.4459
   67MOL   C13321385   5.842   1.671   2.546 -0.1291  0.1224  0.2647
   67MOL   C13421386   5.792   1.793   2.505 -0.0853  0.6902 -0.3576
   67MOL   F13521387   5.721   1.866   2.595 -0.6100 -0.0434  0.1810
   67MOL   C13621388   5.830   1.839   2.375  0.3372  0.1594 -0.8247
   67MOL   C13721389   5.911   1.762   2.287  1.0630 -0.1362  0.7188
   67MOL   C13821390   5.999   1.488   2.117 -0.5274  0.3091  0.7618
   67MOL   H13921391   6.075   1.460   2.308 -3.0237 -0.8841 -0.2306
   67MOL   H14021392   5.973   1.509   2.499  1.3488  0.7751  0.8695
   67MOL   H14121393   5.812   1.635   2.643  0.6613  0.9231  0.8146
   67MOL   H14221394   5.792   1.936   2.348  2.0652  0.9853 -0.3012
   67MOL   H14321395   5.922   1.805   2.188  0.0030 -1.8373 -0.1634
   67MOL   H14421396   5.918   1.416   2.130  2.0986 -2.7200  0.9267
   67MOL   H14521397   5.963   1.570   2.056 -1.4717 -2.6276 -2.8048
   67MOL   C14621398   6.106   1.412   2.020  0.7048 -0.2463 -0.2541
   67MOL   C14721399   6.183   1.290   2.090  0.1744 -0.5873 -0.3915
   67MOL   C14821400   6.113   1.207   2.178  0.5793  0.6047  0.3549
   67MOL   C14921401   6.182   1.098   2.242 -0.2010  0.0377 -1.1391
   67MOL   C15021402   6.317   1.068   2.215  0.4619  0.0715  0.1644
   67MOL   F15121403   6.375   0.962   2.279 -0.1559 -0.2757  0.0418
   67MOL   C15221404   6.383   1.144   2.113 -0.7340  0.4468  0.6697
   67MOL   C15321405   6.312   1.259   2.050  0.2856 -0.0470 -0.4748
   67MOL   C15421406   6.037   1.358   1.891  0.1349  0.0889  0.1782
   67MOL   H15521407   6.181   1.484   1.986 -0.7435  1.7213  0.5772
   67MOL   H15621408   6.007   1.218   2.199  0.5867  0.6001  0.3968
   67MOL   H15721409   6.135   1.034   2.316  0.2799 -0.5739 -1.3526
   67MOL   H15821410   6.484   1.115   2.089 -0.3837 -2.7038  5.2534
   67MOL   H15921411   6.362   1.317   1.975  1.8072  1.2202  1.4566
   67MOL   H16021412   6.103   1.306   1.822  0.5770  0.1279  0.5707
   67MOL   H16121413   5.964   1.284   1.924 -0.8199  1.4330  1.1375
   67MOL   C16221414   5.976   1.470   1.806  0.4654 -0.0748 -0.1858
   67MOL   C16321415   6.077   1.572   1.761  0.5026  0.1384  0.2796
   67MOL   C16421416   6.048   1.709   1.785  0.0083  0.2728 -0.1235
   67MOL   C16521417   6.128   1.812   1.728  0.7494 -0.4943  0.5971
   67MOL   C16621418   6.246   1.782   1.659  0.8718 -0.4289  0.0353
   67MOL   F16721419   6.341   1.869   1.626  0.1347 -0.1097 -0.1221
   67MOL   C16821420   6.270   1.648   1.628  0.2102 -0.3833 -0.6164
   67MOL   C16921421   6.189   1.541   1.679  0.0402  0.6779  0.1890
   67MOL   C17021422   5.887   1.427   1.692  0.4116  0.0323  0.4230
   67MOL   H17121423   5.905   1.512   1.877 -0.0534 -0.3258 -0.5543
   67MOL   H17221424   5.958   1.739   1.838  0.9712  0.8932  1.1783
   67MOL   H17321425   6.109   1.917   1.746  0.1383 -0.5003 -0.0020
   67MOL   H17421426   6.366   1.625   1.585  0.5566  1.8235 -1.1040
   67MOL   H17521427   6.219   1.443   1.645 -1.9978  0.2364 -0.3628
   67MOL   H17621428   5.839   1.518   1.656  0.0475  0.2980  1.5396
   67MOL   H17721429   5.947   1.407   1.604 -0.8359  2.0001 -0.9148
   67MOL   C17821430   5.770   1.318   1.715 -0.1546 -0.3232  0.3978
   67MOL   C17921431   5.685   1.348   1.836 -0.2282 -0.9627 -0.4076
   67MOL   C18021432   5.693   1.262   1.950  0.7845 -0.6316 -0.1125
   67MOL   C18121433   5.609   1.292   2.063  0.2488 -0.0499  0.5300
   67MOL   C18221434   5.519   1.399   2.055 -0.1496 -0.1384  0.2078
   67MOL   F18321435   5.443   1.419   2.167 -0.0119  0.3213 -0.4319
   67MOL   C18421436   5.506   1.478   1.943  0.4169 -0.6262  0.1004
   67MOL   C18521437   5.591   1.452   1.837 -0.4440 -0.8442 -0.3948
   67MOL   C18621438   5.686   1.308   1.587  0.0143 -0.3049 -0.5615
   67MOL   H18721439   5.804   1.215   1.733  1.2382  0.4357  2.3031
   67MOL   H18821440   5.758   1.179   1.972  1.1953 -0.1044  0.6907
   67MOL   H18921441   5.618   1.231   2.151  2.1573 -1.1794 -0.4162
   67MOL   H19021442   5.430   1.554   1.938 -0.8809 -1.9525 -0.9159
   67MOL   H19121443   5.580   1.514   1.749 -2.4434  1.4903  1.4336
   67MOL   H19221444   5.601   1.244   1.610 -0.3655  0.5049  0.3277
   67MOL   H19321445   5.648   1.409   1.568 -0.9051 -0.8177 -1.5394
   67MOL   C19421446   5.758   1.251   1.464  0.0172  0.4458  1.3681
   67MOL   C19521447   5.768   1.100   1.454  0.8680 -0.1327  0.3175
   67MOL   C19621448   5.877   1.024   1.499  0.0948  0.1703 -0.0458
   67MOL   C19721449   5.878   0.882   1.490 -0.0888  0.5288 -0.3131
   67MOL   C19821450   5.765   0.822   1.439  1.0857  0.2675 -0.2443
   67MOL   F19921451   5.761   0.689   1.431 -0.0504 -0.4475  0.1374
   67MOL   C20021452   5.651   0.887   1.413 -0.4900 -0.1104 -0.8390
   67MOL   C20121453   5.650   1.030   1.415  0.1768  0.3248  0.3102
   67MOL   C20221454   5.704   1.296   1.326  0.2466  0.0600  0.1270
   67MOL   H20321455   5.865   1.274   1.457 -0.0713  0.4168 -0.4599
   67MOL   H20421456   5.965   1.073   1.538 -0.1850 -1.4732  2.6968
   67MOL   H20521457   5.957   0.820   1.529 -0.4928  0.9434  1.2182
   67MOL   H20621458   5.566   0.835   1.371  1.4298 -1.8028 -2.7762
   67MOL   H20721459   5.553   1.075   1.400  0.7453  1.0939 -1.1345
   67MOL   H20821460   5.761   1.250   1.246  0.9972  1.2319 -0.0217
   67MOL   H20921461   5.597   1.274   1.317  0.0818  0.2899  1.3355
   67MOL   C21021462   5.720   1.448   1.297  0.2073 -0.3969 -0.8041
   67MOL   C21121463   5.867   1.496   1.306  0.3465 -0.3151 -0.3259
   67MOL   C21221464   5.978   1.429   1.249  0.1867  0.6113 -0.0235
   67MOL   C21321465   6.106   1.484   1.257 -0.0657 -0.2964  0.5584
   67MOL   C21421466   6.124   1.607   1.322 -0.1790 -0.8807 -0.7847
   67MOL   F21521467   6.244   1.659   1.349 -0.5287 -0.4836 -0.1312
   67MOL   C21621468   6.011   1.682   1.374 -0.1643  0.2427 -0.1636
   67MOL   C21721469   5.882   1.625   1.369  0.1566 -0.1999 -0.0519
   67MOL   C21821470   5.661   1.492   1.163  0.2662  0.8171 -0.2228
   67MOL   H21921471   5.671   1.497   1.380  0.4499  1.1366 -1.5562
   67MOL   H22021472   5.958   1.332   1.206 -0.0974  1.0396 -0.8703
   67MOL   H22121473   6.191   1.431   1.216  2.0466  3.4787 -0.0966
   67MOL   H22221474   6.022   1.780   1.418 -1.9238  0.1449  0.5244
   67MOL   H22321475   5.800   1.684   1.406  0.3030 -0.0083 -0.0350
   67MOL   H22421476   5.720   1.579   1.136  1.3269  0.9834  2.5019
   67MOL   H22521477   5.709   1.430   1.088  0.9278  0.2036  0.7049
   67MOL   C22621478   5.516   1.536   1.158 -0.5164  0.1342 -0.3696
   67MOL   C22721479   5.510   1.661   1.060  0.1577 -0.0465 -0.1025
   67MOL   C22821480   5.473   1.643   0.929 -0.0223 -0.1169  0.0521
   67MOL   C22921481   5.449   1.758   0.848 -0.7266  0.6917 -0.0772
   67MOL   C23021482   5.465   1.889   0.903 -0.2301  0.6752  0.0777
   67MOL   F23121483   5.444   2.001   0.832 -0.1643  0.3238  0.4059
   67MOL   C23221484   5.528   1.902   1.029  0.2342 -0.5739  1.3144
   67MOL   C23321485   5.543   1.785   1.111  0.1121 -0.3467  0.1807
   67MOL   C23421486   5.421   1.422   1.124  0.3171 -0.2206  0.1991
   67MOL   H23521487   5.489   1.577   1.255  2.7610 -0.6401  0.9189
   67MOL   H23621488   5.455   1.545   0.887 -0.3194  0.2364 -0.6356
   67MOL   H23721489   5.396   1.737   0.756  1.3105 -3.5259 -0.3554
   67MOL   H23821490   5.534   2.005   1.058 -1.8108  0.9367 -3.1464
   67MOL   H23921491   5.595   1.788   1.206  1.7447 -0.3956 -0.6930
   67MOL   H24021492   5.470   1.377   1.037 -0.5314  1.8807 -1.4019
   67MOL   H24121493   5.425   1.350   1.205  0.8572 -0.1082  0.2765
   67MOL   C24221494   5.269   1.449   1.106  0.2505 -0.3796  0.3164
   67MOL   C24321495   5.190   1.334   1.073 -0.0351 -0.4645 -0.2533
   67MOL   C24421496   5.122   1.329   0.949 -0.5327  0.1621  0.3326
   67MOL   C24521497   5.050   1.216   0.901 -0.3555  0.1425  0.4797
   67MOL   C24621498   5.046   1.103   0.988 -0.8669  0.0474  0.1409
   67MOL   F24721499   4.995   0.985   0.949 -0.6074  0.3330  0.3094
   67MOL   C24821500   5.123   1.110   1.106 -0.4230 -0.3798  0.5746
   67MOL   C24921501   5.188   1.219   1.151  0.0333  0.4302 -0.0257
   67MOL   C25021502   5.199   1.530   1.221 -0.4341 -0.4269 -0.4912
   67MOL   H25121503   5.258   1.511   1.017 -1.8418  0.3484  1.0534
   67MOL   H25221504   5.109   1.412   0.881 -0.2495 -1.3981 -1.6884
   67MOL   H25321505   4.999   1.215   0.806 -2.5273  3.6967  1.4963
   67MOL   H25421506   5.132   1.027   1.175  1.6730  0.2460  1.0735
   67MOL   H25521507   5.234   1.219   1.249 -1.3876 -0.3761  0.6498
   67MOL   H25621508   5.188   1.466   1.309 -0.6634  0.9986  0.5461
   67MOL   H25721509   5.268   1.610   1.248 -1.9696  0.0508  2.2405
   67MOL   C25821510   5.067   1.601   1.194  0.5911 -0.5322 -0.4294
   67MOL   C25921511   4.948   1.508   1.189 -0.3233  0.0471 -0.5139
   67MOL   C26021512   4.864   1.516   1.076 -0.8670  1.1762 -0.1228
   67MOL   C26121513   4.741   1.449   1.072  0.0258  0.4279 -0.3876
   67MOL   C26221514   4.699   1.366   1.179 -0.0209  0.1731  0.2558
   67MOL   F26321515   4.586   1.300   1.165  0.2312 -0.2255 -0.0035
   67MOL   C26421516   4.783   1.351   1.286 -0.6782  0.1409  0.0157
   67MOL   C26521517   4.902   1.427   1.302  0.0885 -0.0079 -0.4109
   67MOL   C26621518   5.039   1.713   1.299 -0.3063  0.0153  0.5036
   67MOL   H26721519   5.069   1.638   1.091  1.5022 -1.0641 -0.6138
   67MOL   H26821520   4.882   1.581   0.992  0.3185  0.9333 -0.0748
   67MOL   H26921521   4.661   1.457   0.999 -2.5301  1.4781  2.4174
   67MOL   H27021522   4.763   1.270   1.354  2.8430 -0.9097 -0.0999
   67MOL   H27121523   4.959   1.411   1.392 -1.9246  0.9217  1.0596
   67MOL   H27221524   4.932   1.716   1.318 -0.4185  0.3932 -0.2090
   67MOL   H27321525   5.078   1.680   1.396  4.0671 -0.2082 -1.2336
   67MOL   C27421526   5.097   1.855   1.259 -0.0888 -0.5595 -0.0430
   67MOL   C27521527   5.059   1.897   1.116  0.1792 -0.0208 -0.2052
   67MOL   C27621528   5.136   1.995   1.049  0.1995 -0.4265  0.0070
   67MOL   C27721529   5.108   2.038   0.921  0.2708 -0.1510  0.0608
   67MOL   C27821530   4.999   1.988   0.852 -0.2860 -1.1336 -0.4226
   67MOL   F27921531   4.981   2.018   0.719  0.0600  0.5708 -0.3967
   67MOL   C28021532   4.914   1.898   0.918  0.3948 -0.7156  0.0737
   67MOL   C28121533   4.948   1.848   1.044 -0.9754  0.3959  0.1214
   67MOL   C28221534   5.072   1.961   1.371 -0.4414  0.0554 -0.1218
   67MOL   H28321535   5.203   1.834   1.250 -0.2461 -1.2043 -0.4247
   67MOL   H28421536   5.215   2.052   1.095 -0.1480 -0.3110  0.4619
   67MOL   H28521537   5.183   2.107   0.885 -1.6111  1.8403 -0.1772
   67MOL   H28621538   4.820   1.868   0.874 -0.2587  0.9778  0.2887
   67MOL   H28721539   4.875   1.783   1.091 -0.8166  1.2892  1.6489
   67MOL   H28821540   5.124   1.937   1.464 -0.3736  0.9974  0.0894
   67MOL   H28921541   5.126   2.053   1.347 -2.4123  1.1042 -0.6306
   67MOL   C29021542   4.925   2.001   1.404  0.2421 -0.1377 -0.9437
   67MOL   C29121543   4.873   1.934   1.541 -0.3858  0.0883  0.2959
   67MOL   C29221544   4.813   1.809   1.541 -0.2991  0.0717 -0.1915
   67MOL   C29321545   4.772   1.747   1.660  0.2115  0.8107 -0.5114
   67MOL   C29421546   4.808   1.810   1.783  0.3213 -0.0696  0.2771
   67MOL   F29521547   4.765   1.742   1.898  0.6131  0.8000 -0.2022
   67MOL   C29621548   4.870   1.936   1.786  0.1022 -0.2946  0.2746
   67MOL   C29721549   4.894   1.998   1.661 -0.3756  0.4628  0.0678
   67MOL   C29821550   4.904   2.154   1.383 -0.1496 -0.3743 -0.1246
   67MOL   H29921551   4.873   1.952   1.322 -1.2682 -0.9415  0.4579
   67MOL   H30021552   4.782   1.753   1.454  2.3110  1.5108 -2.1112
   67MOL   H30121553   4.720   1.653   1.654  0.6407  0.5409 -0.0532
   67MOL   H30221554   4.886   1.985   1.881  3.7740  1.8416 -1.2954
   67MOL   H30321555   4.943   2.094   1.663 -2.0253  1.3299 -0.1381
   67MOL   H30421556   4.966   2.214   1.449  0.8622 -0.9851 -0.5044
   67MOL   H30521557   4.940   2.176   1.282 -0.4318 -0.3221 -0.2155
   67MOL   C30621558   4.757   2.203   1.402 -0.2878  0.3688  0.1348
   67MOL   C30721559   4.766   2.352   1.431  0.4416  0.2474 -1.0130
   67MOL   C30821560   4.799   2.448   1.333 -0.3001 -0.2039 -0.2382
   67MOL   C30921561   4.814   2.587   1.369  0.6712  0.4842 -0.6136
   67MOL   C31021562   4.771   2.629   1.493 -0.3805  0.4262 -0.0759
   67MOL   F31121563   4.750   2.754   1.518 -0.2442 -0.0415 -0.4167
   67MOL   C31221564   4.731   2.533   1.591 -0.2058  0.1074  0.5020
   67MOL   C31321565   4.744   2.400   1.564 -0.6958 -0.0755 -0.6027
   67MOL   C31421566   4.661   2.179   1.284 -0.2961  0.0405 -0.4939
   67MOL   H31521567   4.708   2.149   1.484  0.9453 -0.2208  0.4993
   67MOL   H31621568   4.826   2.402   1.239  0.7989  1.1128 -0.5666
   67MOL   H31721569   4.838   2.667   1.301 -2.5446  0.8295 -1.4075
   67MOL   H31821570   4.710   2.564   1.692 -0.0683  2.4202 -0.1530
   67MOL   H31921571   4.737   2.332   1.648 -1.2947  1.2837  0.4794
   67MOL   H32021572   4.707   2.207   1.189  1.1419 -0.5883 -0.0027
   67MOL   H32121573   4.636   2.073   1.275  0.6339 -0.2644  0.4024
   67MOL   H32221574   4.573   2.242   1.295 -0.7042 -0.5731 -0.2014
   68MOL     C121575   5.061   6.769   4.261 -0.2139 -0.1013 -0.4604
   68MOL     C221576   5.118   6.779   4.397 -0.2450  0.7062  0.4558
   68MOL     C321577   5.064   6.872   4.494 -0.3934  0.5993 -0.4690
   68MOL     C421578   5.118   6.877   4.623  0.4408 -0.8583 -0.0952
   68MOL     C521579   5.206   6.781   4.665  0.3295  0.5352 -0.1559
   68MOL     F621580   5.235   6.775   4.799 -0.3584  0.5477 -0.2565
   68MOL     C721581   5.257   6.684   4.577 -0.3394  0.0410  0.3063
   68MOL     C821582   5.215   6.683   4.444 -0.3507  0.0190  0.4571
   68MOL     C921583   5.017   6.626   4.218  0.3544  0.3715 -0.0034
   68MOL    H1021584   5.144   6.806   4.200  0.9283 -0.2287  0.9847
   68MOL    H1121585   4.989   6.942   4.459 -0.7764 -0.3191 -1.5309
   68MOL    H1221586   5.087   6.954   4.692  3.7801  1.3283 -0.9331
   68MOL    H1321587   5.331   6.617   4.618  1.2567  0.9523 -0.9716
   68MOL    H1421588   5.272   6.610   4.388  0.8218  2.9901 -2.4151
   68MOL    H1521589   5.091   6.547   4.233 -0.3106 -0.1616  0.5414
   68MOL    H1621590   4.931   6.602   4.280  0.1661 -1.0579 -0.7845
   68MOL    H1721591   4.984   6.846   4.257 -0.9475 -0.8541 -1.0711
   68MOL    C1821592   4.988   6.631   4.073 -0.6442  0.5374 -0.0636
   68MOL    C1921593   5.111   6.648   3.982 -0.3408 -0.8395 -0.3686
   68MOL    C2021594   5.116   6.752   3.889  0.0806 -0.2210 -0.4590
   68MOL    C2121595   5.228   6.771   3.811 -0.0325  0.0855  0.1441
   68MOL    C2221596   5.336   6.675   3.813 -0.1890  0.3128 -0.2960
   68MOL    F2321597   5.437   6.677   3.730 -0.1937  0.1404  0.4362
   68MOL    C2421598   5.331   6.582   3.919  0.3405  0.8481 -0.0093
   68MOL    C2521599   5.221   6.567   4.004 -0.2250 -0.2799 -0.0521
   68MOL    C2621600   4.908   6.511   4.018  0.3666  0.3200 -0.1275
   68MOL    H2721601   4.919   6.715   4.066 -2.6296 -1.1001 -0.5988
   68MOL    H2821602   5.030   6.817   3.888  0.9255  0.9080 -0.8028
   68MOL    H2921603   5.213   6.847   3.736  0.7091 -0.3155 -0.4121
   68MOL    H3021604   5.411   6.511   3.935  0.2866  0.8148  0.1117
   68MOL    H3121605   5.212   6.488   4.077  1.5887  1.0876  1.7149
   68MOL    H3221606   4.900   6.536   3.912  3.2146  0.2937 -0.3978
   68MOL    H3321607   4.955   6.414   4.031 -0.9400 -0.3407 -0.2005
   68MOL    C3421608   4.767   6.489   4.066  0.7474 -0.0226 -0.3352
   68MOL    C3521609   4.683   6.613   4.059  0.6533 -0.2612 -0.6203
   68MOL    C3621610   4.623   6.661   4.177 -0.0099  0.7546  0.2136
   68MOL    C3721611   4.552   6.782   4.181 -0.1338 -0.2277  0.0943
   68MOL    C3821612   4.541   6.857   4.060  0.3609  0.2156  0.3517
   68MOL    F3921613   4.477   6.975   4.064 -0.0551 -0.0440 -0.2363
   68MOL    C4021614   4.590   6.810   3.936  0.1280 -0.3407 -0.0853
   68MOL    C4121615   4.659   6.687   3.941  0.1395  0.0754  0.1947
   68MOL    C4221616   4.704   6.379   3.987  0.0911 -0.4760  0.3882
   68MOL    H4321617   4.770   6.456   4.170 -1.8680  2.0203  0.4697
   68MOL    H4421618   4.624   6.612   4.274  3.2263  1.5848  0.6393
   68MOL    H4521619   4.508   6.833   4.265 -1.0555  0.7425 -0.9637
   68MOL    H4621620   4.568   6.858   3.841 -0.8618  0.4274  0.5185
   68MOL    H4721621   4.690   6.652   3.843  1.3141 -2.2600  1.3495
   68MOL    H4821622   4.601   6.375   4.022  0.1078  1.3767  0.7162
   68MOL    H4921623   4.699   6.416   3.885 -2.0627 -2.2514 -0.1964
   68MOL    C5021624   4.766   6.232   4.003 -0.0345 -0.1627 -0.0513
   68MOL    C5121625   4.750   6.181   4.148 -0.0902 -0.3012 -0.2133
   68MOL    C5221626   4.622   6.159   4.206 -0.4611 -0.2159 -0.7776
   68MOL    C5321627   4.609   6.107   4.338  0.2340 -0.5105  0.2617
   68MOL    C5421628   4.723   6.070   4.408  0.1885  0.3670 -0.1613
   68MOL    F5521629   4.707   6.023   4.536 -0.0019 -0.1042 -0.1178
   68MOL    C5621630   4.851   6.088   4.350 -0.0112 -0.5777 -0.7608
   68MOL    C5721631   4.863   6.145   4.223 -0.2817  0.1210 -0.4691
   68MOL    C5821632   4.698   6.138   3.901  0.0347 -0.1853  0.3188
   68MOL    H5921633   4.871   6.228   3.976 -0.3030  1.9492 -1.5407
   68MOL    H6021634   4.535   6.181   4.146 -0.4523  1.9808 -0.0051
   68MOL    H6121635   4.513   6.090   4.383  0.7569 -0.7332  1.2858
   68MOL    H6221636   4.942   6.063   4.403  0.0919  1.3459  0.0379
   68MOL    H6321637   4.965   6.143   4.187  0.3926  2.8751  1.1566
   68MOL    H6421638   4.594   6.138   3.934  0.2813  0.4518  1.1025
   68MOL    H6521639   4.694   6.179   3.800 -1.2070  1.1644  0.8888
   68MOL    C6621640   4.751   5.994   3.907 -0.5989 -0.1233  0.0239
   68MOL    C6721641   4.651   5.907   3.826 -0.7724  0.3725 -0.2610
   68MOL    C6821642   4.628   5.940   3.691  0.6322  0.6128  0.3379
   68MOL    C6921643   4.537   5.863   3.612  0.3672 -0.0864 -0.0399
   68MOL    C7021644   4.481   5.749   3.664  0.0891 -0.0447 -0.2719
   68MOL    F7121645   4.412   5.665   3.580  0.4552  0.4570 -0.1169
   68MOL    C7221646   4.495   5.717   3.801 -0.0789  0.3097  0.1679
   68MOL    C7321647   4.574   5.798   3.877 -0.5594  0.1424  0.2003
   68MOL    C7421648   4.888   5.982   3.842  0.0400 -0.3206  0.3995
   68MOL    H7521649   4.754   5.957   4.009  1.6635  2.3269  0.8861
   68MOL    H7621650   4.678   6.026   3.649 -0.3552  1.6511  1.2775
   68MOL    H7721651   4.533   5.897   3.510  0.2899  1.6863  0.5263
   68MOL    H7821652   4.461   5.625   3.847 -0.0994 -0.1288 -0.7198
   68MOL    H7921653   4.594   5.767   3.978 -0.1444 -1.2757 -0.3063
   68MOL    H8021654   4.870   6.013   3.740  1.9348 -0.3597  0.0352
   68MOL    H8121655   4.965   6.055   3.866  0.8610 -0.6553 -1.1874
   68MOL    C8221656   4.949   5.838   3.863 -0.0458  0.5478  0.2787
   68MOL    C8321657   5.051   5.826   3.752 -0.4501  0.5113 -0.2161
   68MOL    C8421658   5.175   5.898   3.756 -0.6916  0.0321  0.2552
   68MOL    C8521659   5.277   5.876   3.659  0.8142 -0.7070  0.0357
   68MOL    C8621660   5.245   5.802   3.545  1.0933 -0.3277  0.5377
   68MOL    F8721661   5.345   5.786   3.447  0.2273 -0.4382 -0.4309
   68MOL    C8821662   5.120   5.738   3.541  0.4556  0.9922  0.2507
   68MOL    C8921663   5.030   5.737   3.644  0.0542 -0.0025 -0.3528
   68MOL    C9021664   4.998   5.823   4.011  0.1291  0.3064  0.2305
   68MOL    H9121665   4.877   5.757   3.852 -0.1489  0.7018 -0.1887
   68MOL    H9221666   5.199   5.962   3.840 -1.6030  1.1165 -0.2939
   68MOL    H9321667   5.366   5.937   3.668  1.1672 -1.0130 -1.3795
   68MOL    H9421668   5.107   5.682   3.450 -0.3151 -0.3791  1.1747
   68MOL    H9521669   4.936   5.684   3.637 -0.2078  0.4745 -0.4642
   68MOL    H9621670   5.013   5.921   4.055  1.2423 -0.0837  0.7397
   68MOL    H9721671   4.909   5.785   4.063 -1.0674  2.5939 -0.0927
   68MOL    C9821672   5.124   5.747   4.050 -0.4446 -0.2038 -0.2352
   68MOL    C9921673   5.155   5.768   4.199 -0.7013  0.3149 -0.0328
   68MOL   C10021674   5.279   5.830   4.234 -0.3828  0.4960  0.8469
   68MOL   C10121675   5.303   5.872   4.364  0.1535 -0.3065  1.2287
   68MOL   C10221676   5.199   5.858   4.461 -0.5657  0.1063  0.3093
   68MOL   F10321677   5.215   5.907   4.582 -0.3028 -0.1821 -0.5671
   68MOL   C10421678   5.079   5.792   4.427  0.2888 -1.0225  0.0160
   68MOL   C10521679   5.059   5.747   4.300  0.2147  0.0455 -0.1767
   68MOL   C10621680   5.124   5.590   4.012  0.0636  0.2132  0.3494
   68MOL   H10721681   5.209   5.774   3.988 -0.9627 -1.3558 -1.4838
   68MOL   H10821682   5.353   5.843   4.157 -0.4857 -1.0023  0.4864
   68MOL   H10921683   5.396   5.916   4.397 -0.1551  0.6336  0.8647
   68MOL   H11021684   5.008   5.798   4.508  0.2208  1.6499 -0.1880
   68MOL   H11121685   4.971   5.690   4.277  0.6037 -0.7358  0.2724
   68MOL   H11221686   5.077   5.548   4.101 -0.0063  0.1696  0.2916
   68MOL   H11321687   5.055   5.571   3.929  0.7751 -1.4392  0.1153
   68MOL   C11421688   5.257   5.511   3.987 -0.3466 -0.2120  0.5686
   68MOL   C11521689   5.242   5.362   4.005 -0.3706  0.6981 -1.0406
   68MOL   C11621690   5.317   5.298   4.106 -0.8950 -0.7030  0.9717
   68MOL   C11721691   5.315   5.160   4.121  0.6971  0.1041 -0.3338
   68MOL   C11821692   5.235   5.081   4.040 -0.6818 -0.3092  0.1663
   68MOL   F11921693   5.236   4.945   4.051 -0.2364  0.3968  0.5892
   68MOL   C12021694   5.167   5.141   3.936  0.3254  0.0274  1.1327
   68MOL   C12121695   5.174   5.279   3.920  0.9713 -0.1823 -0.0142
   68MOL   C12221696   5.320   5.535   3.848  0.7250 -0.0149  0.7388
   68MOL   H12321697   5.315   5.548   4.071  0.7000 -1.1259  0.2620
   68MOL   H12421698   5.375   5.349   4.182  1.0007 -1.9837  0.4325
   68MOL   H12521699   5.359   5.105   4.203  1.0614 -0.2269 -0.7493
   68MOL   H12621700   5.123   5.083   3.857  1.6875  1.5493 -0.7909
   68MOL   H12721701   5.127   5.317   3.830 -1.6606 -1.9779  0.5403
   68MOL   H12821702   5.283   5.459   3.779 -0.1384 -1.2734  2.5676
   68MOL   H12921703   5.283   5.626   3.801  1.4399 -0.3920 -0.6011
   68MOL   C13021704   5.473   5.535   3.837 -1.1687 -0.8094  0.1476
   68MOL   C13121705   5.545   5.405   3.885  0.3714 -0.1422 -0.2118
   68MOL   C13221706   5.517   5.288   3.815 -0.2001 -0.1028 -0.2790
   68MOL   C13321707   5.560   5.164   3.877  0.0359 -0.1317  0.3127
   68MOL   C13421708   5.630   5.165   3.999 -0.1383  0.2353  1.1695
   68MOL   F13521709   5.659   5.048   4.060  0.3131  0.0155 -0.0211
   68MOL   C13621710   5.661   5.288   4.065  1.3169  0.2806  0.4269
   68MOL   C13721711   5.613   5.409   4.010  0.0107 -0.2959 -0.1538
   68MOL   C13821712   5.519   5.578   3.695  0.7609 -0.2134  0.3252
   68MOL   H13921713   5.504   5.614   3.904  0.0237 -0.9919 -0.1829
   68MOL   H14021714   5.456   5.295   3.726  1.4146 -1.2201 -1.4947
   68MOL   H14121715   5.531   5.071   3.831 -0.1029  0.0069  0.1203
   68MOL   H14221716   5.717   5.290   4.157  0.1916  1.3981  1.1087
   68MOL   H14321717   5.637   5.504   4.054  0.5340  0.1638 -1.3903
   68MOL   H14421718   5.480   5.495   3.635 -0.5033 -0.0188  0.8477
   68MOL   H14521719   5.447   5.654   3.665  1.3569  0.1218 -0.2359
   68MOL   C14621720   5.661   5.624   3.672  0.7761  0.7963 -0.2290
   68MOL   C14721721   5.691   5.749   3.758 -0.0268  0.5813  0.6382
   68MOL   C14821722   5.759   5.735   3.879  0.4281  0.3984  0.0105
   68MOL   C14921723   5.789   5.853   3.955 -0.7748  0.0568 -0.3793
   68MOL   C15021724   5.734   5.976   3.912  0.6051 -0.1915 -0.5856
   68MOL   F15121725   5.768   6.083   3.985  0.3094 -0.2995 -0.0208
   68MOL   C15221726   5.647   5.985   3.805  0.1325  0.7114 -0.0140
   68MOL   C15321727   5.629   5.869   3.724  0.7364  0.2112  0.0908
   68MOL   C15421728   5.766   5.511   3.678 -0.1690 -0.7117 -0.1867
   68MOL   H15521729   5.654   5.658   3.568 -0.2474  0.8846 -0.1436
   68MOL   H15621730   5.810   5.642   3.900 -2.2113 -1.1573 -0.2856
   68MOL   H15721731   5.870   5.857   4.026 -2.4256  0.3657  1.5186
   68MOL   H15821732   5.592   6.073   3.776 -3.5723 -2.0705 -1.9422
   68MOL   H15921733   5.590   5.878   3.624  0.4659 -2.0062 -0.0211
   68MOL   H16021734   5.860   5.565   3.667 -0.4669  0.0527  0.8673
   68MOL   H16121735   5.765   5.465   3.777 -1.3998  1.3618  0.7952
   68MOL   C16221736   5.753   5.400   3.576 -0.0986 -0.1518 -0.3714
   68MOL   C16321737   5.771   5.464   3.433 -0.3585 -0.1646 -0.6465
   68MOL   C16421738   5.665   5.456   3.342  0.1409 -0.2610 -0.2717
   68MOL   C16521739   5.680   5.505   3.207 -0.0952  0.1784  0.0248
   68MOL   C16621740   5.806   5.556   3.164 -0.5619  0.1110  0.1643
   68MOL   F16721741   5.814   5.593   3.034 -0.2754  0.4985 -0.4198
   68MOL   C16821742   5.911   5.566   3.255 -0.0981  0.0972  0.2629
   68MOL   C16921743   5.893   5.523   3.391 -0.0259 -0.2764  0.0235
   68MOL   C17021744   5.845   5.278   3.604 -0.1054  0.5760  0.3062
   68MOL   H17121745   5.655   5.354   3.583 -0.0535 -0.5852 -2.5222
   68MOL   H17221746   5.569   5.420   3.377 -0.0067  0.0413 -0.3637
   68MOL   H17321747   5.593   5.503   3.144  0.2992 -0.7547 -0.4978
   68MOL   H17421748   5.995   5.625   3.223  0.4670  0.3362  2.1711
   68MOL   H17521749   5.972   5.543   3.463  1.6142 -0.6775 -1.6362
   68MOL   H17621750   5.797   5.212   3.677  1.1101 -0.0697  0.5392
   68MOL   H17721751   5.847   5.225   3.509  1.7090  1.2634 -0.0609
   68MOL   C17821752   5.997   5.285   3.638 -0.3631 -0.2593  0.9626
   68MOL   C17921753   6.024   5.356   3.770  0.7989 -0.1787  0.2593
   68MOL   C18021754   6.093   5.482   3.760  0.2144  0.1595 -0.3123
   68MOL   C18121755   6.115   5.553   3.876  0.9208 -0.1672  0.3703
   68MOL   C18221756   6.086   5.494   4.002  0.3786 -0.4894  0.4796
   68MOL   F18321757   6.118   5.556   4.113 -0.0536 -0.0700  0.1772
   68MOL   C18421758   6.017   5.369   4.012  0.6262  0.1951  0.1798
   68MOL   C18521759   5.986   5.301   3.892 -0.9477  0.0036 -0.3626
   68MOL   C18621760   6.070   5.150   3.629 -0.6465 -0.4824  0.1916
   68MOL   H18721761   6.041   5.341   3.556 -0.4573 -0.6389  0.6440
   68MOL   H18821762   6.111   5.519   3.660  1.7837 -2.0599 -0.9058
   68MOL   H18921763   6.174   5.643   3.884  2.1664 -0.9883  0.6218
   68MOL   H19021764   6.002   5.313   4.104 -0.3304 -1.7865 -1.1548
   68MOL   H19121765   5.929   5.209   3.897  2.0491 -1.9056 -0.2529
   68MOL   H19221766   6.036   5.085   3.710 -2.4446  0.2778  0.0625
   68MOL   H19321767   6.038   5.105   3.535 -1.5666  2.2168 -0.8390
   68MOL   C19421768   6.227   5.161   3.634 -0.3031  0.0508  0.1811
   68MOL   C19521769   6.283   5.033   3.689  0.3693  0.2408 -0.2818
   68MOL   C19621770   6.333   4.923   3.614 -0.0796  0.1209 -0.2152
   68MOL   C19721771   6.393   4.814   3.682  0.2099  0.2447  0.2180
   68MOL   C19821772   6.382   4.804   3.822 -0.6073 -0.2314 -0.2154
   68MOL   F19921773   6.425   4.691   3.882  0.4696  0.0055 -0.1556
   68MOL   C20021774   6.327   4.905   3.900  0.4302 -0.2036  0.5741
   68MOL   C20121775   6.276   5.016   3.828  0.2429 -0.4212 -0.1045
   68MOL   C20221776   6.280   5.198   3.498  0.1664  0.7566  0.3529
   68MOL   H20321777   6.258   5.234   3.709  0.1377 -1.2993  1.3283
   68MOL   H20421778   6.335   4.929   3.507 -0.4637  2.0768 -0.1252
   68MOL   H20521779   6.438   4.728   3.636 -0.2476  1.4490 -2.5831
   68MOL   H20621780   6.305   4.889   4.005 -0.6832  0.8177  0.5102
   68MOL   H20721781   6.232   5.097   3.884  1.1801  0.2747 -0.3795
   68MOL   H20821782   6.247   5.121   3.429 -0.4573  0.7051  0.7078
   68MOL   H20921783   6.241   5.294   3.464 -2.3439 -0.5400 -0.5074
   68MOL   C21021784   6.432   5.212   3.483  0.1947 -0.9675  0.5799
   68MOL   C21121785   6.480   5.208   3.338  0.4449 -0.7545  0.4869
   68MOL   C21221786   6.408   5.256   3.223 -0.3582 -0.1850 -0.2528
   68MOL   C21321787   6.448   5.234   3.091  0.0172 -0.2724 -0.1003
   68MOL   C21421788   6.568   5.156   3.066 -0.1651 -0.8286 -0.2110
   68MOL   F21521789   6.611   5.128   2.937 -0.1169 -0.1531 -0.0060
   68MOL   C21621790   6.641   5.112   3.182  0.4180 -0.0380 -0.9207
   68MOL   C21721791   6.593   5.123   3.315  0.1780 -0.2438 -0.3487
   68MOL   C21821792   6.483   5.342   3.545  0.1085  0.5210  0.0982
   68MOL   H21921793   6.479   5.134   3.541  0.1678 -1.5770 -0.2101
   68MOL   H22021794   6.322   5.320   3.231 -0.5502 -0.1023 -2.7484
   68MOL   H22121795   6.400   5.266   3.000 -1.2601 -1.8456 -0.0004
   68MOL   H22221796   6.734   5.062   3.163  1.3147  0.8801  0.9873
   68MOL   H22321797   6.656   5.080   3.391  0.2202 -1.6609 -1.1728
   68MOL   H22421798   6.491   5.416   3.465  0.7458  0.7143  0.3399
   68MOL   H22521799   6.419   5.380   3.625  0.3322  2.1047 -0.4638
   68MOL   C22621800   6.632   5.348   3.605 -0.3760 -0.5349  0.2277
   68MOL   C22721801   6.674   5.494   3.598  0.4045 -0.9327 -0.2141
   68MOL   C22821802   6.803   5.529   3.554  0.0161  0.4105  0.1895
   68MOL   C22921803   6.836   5.662   3.530 -0.9015 -0.2175  0.7629
   68MOL   C23021804   6.745   5.760   3.565 -0.4875 -0.6952 -0.0360
   68MOL   F23121805   6.773   5.888   3.532  0.4516 -0.3245  0.3811
   68MOL   C23221806   6.626   5.726   3.632 -0.0606 -0.6499 -0.4019
   68MOL   C23321807   6.587   5.593   3.648  0.1497  0.0147 -0.0402
   68MOL   C23421808   6.644   5.297   3.754  1.5325  0.2579 -0.5676
   68MOL   H23521809   6.700   5.296   3.539 -1.9992 -1.4963 -0.7164
   68MOL   H23621810   6.873   5.455   3.520  2.4002  2.9052 -0.5322
   68MOL   H23721811   6.921   5.685   3.467 -0.9879  1.8394  1.3799
   68MOL   H23821812   6.556   5.800   3.669 -1.3324 -1.8916 -0.3065
   68MOL   H23921813   6.494   5.566   3.697 -0.9857  0.7984 -1.6909
   68MOL   H24021814   6.715   5.356   3.812  1.3732 -0.1280  0.0244
   68MOL   H24121815   6.547   5.300   3.803  2.1501  1.8553  0.5933
   68MOL   C24221816   6.701   5.160   3.753 -0.1832 -0.0177  0.5489
   68MOL   C24321817   6.852   5.141   3.733 -0.2231  0.6659  0.2869
   68MOL   C24421818   6.907   5.030   3.663 -0.1124 -0.2521 -0.4847
   68MOL   C24521819   7.048   5.015   3.651  0.1782  0.0928  0.2011
   68MOL   C24621820   7.134   5.110   3.712  0.1821  0.3854  0.4119
   68MOL   F24721821   7.268   5.097   3.693  0.0815  0.1008  0.2749
   68MOL   C24821822   7.079   5.224   3.768  0.5108  0.1867  0.6249
   68MOL   C24921823   6.945   5.236   3.781 -0.1058  0.8028 -0.2293
   68MOL   C25021824   6.649   5.085   3.868 -0.1828  0.2632  0.5742
   68MOL   H25121825   6.652   5.119   3.664  2.6518  0.9303 -1.5326
   68MOL   H25221826   6.844   4.952   3.623  0.1493 -1.2400  1.0059
   68MOL   H25321827   7.089   4.929   3.601  1.1349  0.7852 -0.2254
   68MOL   H25421828   7.140   5.302   3.811  0.0205  1.4105 -0.8756
   68MOL   H25521829   6.911   5.327   3.828 -1.5566  0.4437 -0.5523
   68MOL   H25621830   6.540   5.091   3.871 -0.2689  0.6452 -1.9453
   68MOL   H25721831   6.661   4.983   3.833  0.2011 -0.0820  1.6930
   68MOL   C25821832   6.716   5.123   4.001 -0.6242  0.7985  0.3046
   68MOL   C25921833   6.680   5.264   4.055 -0.0299  0.6519 -0.6243
   68MOL   C26021834   6.549   5.310   4.072 -0.1980  0.1581  0.8537
   68MOL   C26121835   6.518   5.447   4.105 -0.1082 -0.5990  0.1816
   68MOL   C26221836   6.629   5.540   4.109  0.0359 -0.7927 -0.0229
   68MOL   F26321837   6.609   5.672   4.110  0.3191 -0.0480  0.2129
   68MOL   C26421838   6.759   5.492   4.094  0.0055  0.2309  0.2984
   68MOL   C26521839   6.784   5.357   4.073 -0.1624  0.1994 -0.2861
   68MOL   C26621840   6.684   5.026   4.118 -0.3977  0.1800 -0.3610
   68MOL   H26721841   6.825   5.125   3.991 -0.8461  1.4818 -2.2517
   68MOL   H26821842   6.474   5.234   4.060  0.5556 -0.1921 -2.1731
   68MOL   H26921843   6.419   5.480   4.132 -0.5386 -1.4474 -0.3362
   68MOL   H27021844   6.846   5.556   4.090  1.7322 -2.1504 -2.8170
   68MOL   H27121845   6.887   5.328   4.058  0.1361  1.2405 -0.2790
   68MOL   H27221846   6.728   5.051   4.214  1.2238 -2.4111 -0.3772
   68MOL   H27321847   6.576   5.038   4.125 -0.4914 -1.2065  0.9113
   68MOL   C27421848   6.715   4.874   4.091 -0.2764 -0.7713 -0.0231
   68MOL   C27521849   6.858   4.845   4.081  0.0739  0.1582 -0.7995
   68MOL   C27621850   6.946   4.863   4.198 -0.2273  0.9464 -0.5082
   68MOL   C27721851   7.075   4.815   4.194  0.2763 -0.1865 -0.5191
   68MOL   C27821852   7.132   4.773   4.070 -0.2840  0.1166  0.1016
   68MOL   F27921853   7.261   4.749   4.066 -0.3341 -0.1537 -0.3367
   68MOL   C28021854   7.054   4.773   3.952 -0.7256  0.5613 -0.0682
   68MOL   C28121855   6.918   4.802   3.957  0.0245  0.5597 -0.6440
   68MOL   C28221856   6.646   4.787   4.197 -0.1291  0.9220  0.1020
   68MOL   H28321857   6.683   4.845   3.991  2.6548 -0.0400 -1.2373
   68MOL   H28421858   6.898   4.893   4.290 -0.2500 -1.5338  0.3126
   68MOL   H28521859   7.124   4.814   4.291 -2.3327 -0.0599  0.8476
   68MOL   H28621860   7.114   4.756   3.864  1.5839 -0.8685  1.7058
   68MOL   H28721861   6.867   4.806   3.862 -3.2864 -0.0025  1.0453
   68MOL   H28821862   6.688   4.789   4.298 -0.3447  0.7016  0.1981
   68MOL   H28921863   6.547   4.831   4.208  0.2682  2.4230 -2.0644
   68MOL   C29021864   6.644   4.641   4.154 -0.0365  0.7887  0.0713
   68MOL   C29121865   6.779   4.567   4.197 -0.7227 -0.1546  0.7358
   68MOL   C29221866   6.862   4.512   4.102 -0.4884 -1.0472  0.2366
   68MOL   C29321867   6.981   4.445   4.138 -0.0933 -0.1783 -0.6766
   68MOL   C29421868   7.016   4.434   4.277 -0.7647 -0.7993  0.5283
   68MOL   F29521869   7.136   4.379   4.306  0.0797  0.3052  0.0398
   68MOL   C29621870   6.936   4.493   4.368 -0.0673  0.8129  0.2845
   68MOL   C29721871   6.815   4.551   4.331 -0.0638 -0.0625 -0.2357
   68MOL   C29821872   6.519   4.570   4.204  0.5422  0.3997 -0.1815
   68MOL   H29921873   6.644   4.634   4.045 -0.6523  0.3790  0.0957
   68MOL   H30021874   6.843   4.517   3.996 -1.7898 -2.7691  0.3621
   68MOL   H30121875   7.050   4.404   4.066 -1.2682 -2.7944 -0.3758
   68MOL   H30221876   6.967   4.486   4.471  0.4716  1.6436  0.1898
   68MOL   H30321877   6.749   4.593   4.405  2.1515 -0.9674  2.3420
   68MOL   H30421878   6.512   4.580   4.312 -2.7513  1.5463 -0.4710
   68MOL   H30521879   6.430   4.622   4.170  1.2132  1.1930 -0.7699
   68MOL   C30621880   6.492   4.422   4.181 -0.2429 -1.0402 -0.2434
   68MOL   C30721881   6.482   4.393   4.031  0.3381  0.2743 -0.8180
   68MOL   C30821882   6.593   4.351   3.958  0.5023  0.0457 -0.7889
   68MOL   C30921883   6.579   4.331   3.821  0.2294  0.4557 -0.4642
   68MOL   C31021884   6.458   4.346   3.754  0.0529 -0.6070  0.8087
   68MOL   F31121885   6.446   4.326   3.617  0.3940 -0.1921 -0.5374
   68MOL   C31221886   6.348   4.390   3.831  0.1879  0.0007  0.1117
   68MOL   C31321887   6.362   4.411   3.966  0.3377 -1.0106  0.3520
   68MOL   C31421888   6.587   4.337   4.269  0.2955 -0.2377 -0.3102
   68MOL   H31521889   6.392   4.405   4.219 -0.6381 -0.2927 -0.9183
   68MOL   H31621890   6.685   4.328   4.011  0.8980  2.0771 -0.5444
   68MOL   H31721891   6.673   4.305   3.775 -0.4388 -0.6844 -1.1764
   68MOL   H31821892   6.256   4.412   3.779  0.2790  0.4306  0.1334
   68MOL   H31921893   6.276   4.465   4.003  0.8292 -0.3463  0.5299
   68MOL   H32021894   6.601   4.378   4.369 -1.3968  0.4616 -0.3414
   68MOL   H32121895   6.555   4.233   4.278  0.7552 -0.2238  1.6830
   68MOL   H32221896   6.685   4.330   4.221  0.7818 -1.0721  0.7927
   69MOL     C121897   3.861   1.071   4.474  0.1034  0.4923 -0.6134
   69MOL     C221898   3.880   0.942   4.562 -0.0594  0.7176 -0.1574
   69MOL     C321899   3.988   0.856   4.540  0.2558  0.5091  0.7589
   69MOL     C421900   4.010   0.743   4.615  0.3063 -0.3055  0.7113
   69MOL     C521901   3.916   0.707   4.716 -0.9621  0.3201 -0.4311
   69MOL     F621902   3.945   0.597   4.799  0.5442 -0.0995 -0.4994
   69MOL     C721903   3.801   0.787   4.731 -0.1317  0.2823  0.4515
   69MOL     C821904   3.782   0.903   4.656  0.3585  0.3389  0.3960
   69MOL     C921905   3.802   1.038   4.341  0.3726  0.4517  0.4274
   69MOL    H1021906   3.949   1.134   4.462  0.4148  0.2220  0.2115
   69MOL    H1121907   4.059   0.885   4.464 -1.7360  1.2686 -0.8589
   69MOL    H1221908   4.101   0.688   4.596 -0.2511 -0.7555 -0.7183
   69MOL    H1321909   3.722   0.746   4.792  2.6309 -0.7406  3.4910
   69MOL    H1421910   3.694   0.962   4.674  1.5149  1.5931  2.1181
   69MOL    H1521911   3.848   0.947   4.303 -0.4709  1.0416 -2.1174
   69MOL    H1621912   3.696   1.032   4.366  0.7135  3.0027  2.8068
   69MOL    H1721913   3.782   1.130   4.521  0.7874  1.6213 -0.8431
   69MOL    C1821914   3.821   1.153   4.244  0.8841  0.1877 -0.2583
   69MOL    C1921915   3.963   1.191   4.216 -0.4951 -0.5381  0.4781
   69MOL    C2021916   3.991   1.333   4.203  0.4596 -0.4505  0.1273
   69MOL    C2121917   4.120   1.376   4.182 -0.6559  0.4016 -0.6343
   69MOL    C2221918   4.228   1.279   4.170 -0.1373  0.5480 -0.0094
   69MOL    F2321919   4.351   1.331   4.155 -0.5508  0.5169 -0.1479
   69MOL    C2421920   4.203   1.144   4.182  0.0550  0.4744 -0.7631
   69MOL    C2521921   4.069   1.095   4.209 -0.0526  0.3962 -0.3543
   69MOL    C2621922   3.758   1.125   4.101 -0.3353  0.1898 -0.0263
   69MOL    H2721923   3.776   1.244   4.285 -0.4269 -0.4733 -0.2069
   69MOL    H2821924   3.907   1.399   4.205 -0.0685 -1.1161  4.2178
   69MOL    H2921925   4.129   1.483   4.187 -1.0371  0.3582  1.8942
   69MOL    H3021926   4.290   1.080   4.184  1.6351  2.4943 -2.2241
   69MOL    H3121927   4.057   0.989   4.224 -0.7242  0.3570 -1.1069
   69MOL    H3221928   3.783   1.197   4.023  0.1100 -0.4495 -0.4782
   69MOL    H3321929   3.794   1.030   4.062  0.5279  0.1527  0.8617
   69MOL    C3421930   3.601   1.124   4.092 -0.6269 -0.5275 -0.0468
   69MOL    C3521931   3.542   1.252   4.151  0.5416 -0.0767 -0.0969
   69MOL    C3621932   3.595   1.382   4.120  0.0200  0.3857 -0.8488
   69MOL    C3721933   3.540   1.492   4.176  0.6343 -0.1208  0.6764
   69MOL    C3821934   3.433   1.475   4.263 -0.0558  0.2378  0.6262
   69MOL    F3921935   3.377   1.587   4.308 -0.3056  0.0972 -0.6204
   69MOL    C4021936   3.384   1.352   4.304  0.1845 -0.4195  1.1746
   69MOL    C4121937   3.441   1.237   4.243  0.4228 -0.8130 -0.0628
   69MOL    C4221938   3.535   1.092   3.953  0.0494 -0.4679 -0.4498
   69MOL    H4321939   3.575   1.038   4.153 -0.1678 -0.4396  0.2718
   69MOL    H4421940   3.675   1.394   4.048 -1.0987 -0.1506 -2.2058
   69MOL    H4521941   3.573   1.592   4.154 -1.7712  0.4959 -0.3080
   69MOL    H4621942   3.302   1.338   4.372 -0.4862 -1.4607  0.1777
   69MOL    H4721943   3.399   1.140   4.265 -0.2488 -0.2266  1.2728
   69MOL    H4821944   3.546   1.186   3.899  0.5413 -0.5554 -0.5009
   69MOL    H4921945   3.606   1.031   3.898  0.4507  0.5505 -1.0630
   69MOL    C5021946   3.387   1.051   3.946  0.0994 -0.5127  0.2433
   69MOL    C5121947   3.312   1.124   3.837 -0.1508 -0.4613 -0.5114
   69MOL    C5221948   3.375   1.133   3.710 -0.5105  0.0892  0.2040
   69MOL    C5321949   3.303   1.193   3.600 -0.0101 -0.4944 -0.0112
   69MOL    C5421950   3.168   1.242   3.621  0.6324 -0.0459  0.5250
   69MOL    F5521951   3.096   1.282   3.515 -0.1525 -0.2477  0.0180
   69MOL    C5621952   3.117   1.246   3.758  0.4346 -0.4978  0.4685
   69MOL    C5721953   3.186   1.190   3.862  0.2517  0.4100  0.3293
   69MOL    C5821954   3.361   0.896   3.948 -0.7816  0.2200  0.3287
   69MOL    H5921955   3.336   1.089   4.035  1.4767 -0.2153  0.9164
   69MOL    H6021956   3.475   1.094   3.699 -0.2822  0.8883 -0.5764
   69MOL    H6121957   3.344   1.202   3.500 -3.0379  0.8479 -1.2000
   69MOL    H6221958   3.019   1.280   3.789  0.4744 -1.2772  1.4713
   69MOL    H6321959   3.137   1.184   3.958  1.1894 -0.4324  0.7672
   69MOL    H6421960   3.253   0.886   3.936 -0.6197 -0.2025 -0.8662
   69MOL    H6521961   3.418   0.860   3.862  0.8958  1.2134  0.9808
   69MOL    C6621962   3.426   0.828   4.079 -0.0935  0.1308 -0.0990
   69MOL    C6721963   3.362   0.859   4.216  0.8056  0.2692  0.4187
   69MOL    C6821964   3.441   0.863   4.328 -0.7077  0.4377 -0.1289
   69MOL    C6921965   3.394   0.919   4.446  0.6555  0.1386  0.4623
   69MOL    C7021966   3.256   0.940   4.459 -0.0857  0.7158 -1.0686
   69MOL    F7121967   3.198   0.957   4.580  0.0447 -0.0311 -0.2639
   69MOL    C7221968   3.169   0.934   4.351  0.4468  0.0929 -0.0834
   69MOL    C7321969   3.220   0.895   4.224 -0.9569  0.0025 -0.1753
   69MOL    C7421970   3.428   0.680   4.071  0.1455  0.3525  0.2156
   69MOL    H7521971   3.531   0.856   4.084  0.5293 -1.9707 -0.6985
   69MOL    H7621972   3.545   0.836   4.320 -0.8527 -0.1698  0.0557
   69MOL    H7721973   3.472   0.928   4.521  0.3825 -0.8450  0.8721
   69MOL    H7821974   3.062   0.948   4.358  0.3833 -0.9376  1.2586
   69MOL    H7921975   3.165   0.876   4.133  0.4403 -1.4881 -0.7285
   69MOL    H8021976   3.412   0.647   4.174 -1.5922  1.7700  0.4200
   69MOL    H8121977   3.343   0.636   4.019  0.5951 -1.2539  0.7976
   69MOL    C8221978   3.558   0.627   4.008  0.2524 -0.2096 -0.0756
   69MOL    C8321979   3.688   0.651   4.086 -0.0805 -0.7130 -0.9501
   69MOL    C8421980   3.798   0.697   4.014  0.7373 -0.2457  0.0659
   69MOL    C8521981   3.919   0.719   4.088  0.3357  0.8371  0.3654
   69MOL    C8621982   3.928   0.702   4.227 -0.1286 -1.1065 -0.0893
   69MOL    F8721983   4.047   0.718   4.299 -0.3392 -0.1872  0.6566
   69MOL    C8821984   3.808   0.669   4.296  0.5703  0.8454  0.5379
   69MOL    C8921985   3.699   0.622   4.221 -0.5912  0.2874 -0.1037
   69MOL    C9021986   3.536   0.479   3.963  0.4037  0.2879  0.0974
   69MOL    H9121987   3.575   0.675   3.912 -0.8465  3.0496  1.2928
   69MOL    H9221988   3.801   0.724   3.910 -1.8703 -0.3432 -0.0667
   69MOL    H9321989   4.004   0.757   4.033  1.2417 -2.1246 -0.3771
   69MOL    H9421990   3.813   0.659   4.404  0.5508 -0.4339  0.4300
   69MOL    H9521991   3.617   0.576   4.276 -0.4304 -0.4562 -0.4747
   69MOL    H9621992   3.542   0.418   4.053  0.3720 -1.2586 -0.9380
   69MOL    H9721993   3.434   0.461   3.930  0.7721 -1.7727  0.0503
   69MOL    C9821994   3.631   0.428   3.858  0.6383 -0.0513 -0.3953
   69MOL    C9921995   3.704   0.305   3.906  0.1668  0.2421 -0.2107
   69MOL   C10021996   3.631   0.182   3.913 -0.1202 -0.5198 -0.3245
   69MOL   C10121997   3.704   0.066   3.942  0.0221  0.0440 -0.8436
   69MOL   C10221998   3.846   0.070   3.960  0.1425  0.5490  0.7837
   69MOL   F10321999   3.907   8.195   3.991 -0.5610 -0.2476  0.4311
   69MOL   C10422000   3.909   0.195   3.962 -0.0194  0.4132  0.6264
   69MOL   C10522001   3.839   0.311   3.939  0.3690 -0.1195 -0.2078
   69MOL   C10622002   3.574   0.406   3.718 -0.2162 -0.0286 -0.5268
   69MOL   H10722003   3.710   0.502   3.849 -0.8799  1.5610 -0.9496
   69MOL   H10822004   3.523   0.186   3.899 -0.2186 -2.4484 -0.2210
   69MOL   H10922005   3.651   8.207   3.947 -3.1048  1.7858 -0.2926
   69MOL   H11022006   4.017   0.204   3.961  0.0545 -0.6100 -1.0781
   69MOL   H11122007   3.900   0.400   3.938  1.1422 -0.6314 -3.1607
   69MOL   H11222008   3.646   0.342   3.667 -0.8833 -0.4902 -0.8953
   69MOL   H11322009   3.484   0.347   3.739  0.0608  0.6144  2.7580
   69MOL   C11422010   3.550   0.524   3.619 -0.3161 -0.5323  0.2856
   69MOL   C11522011   3.650   0.628   3.627  0.2936  0.0173 -0.8478
   69MOL   C11622012   3.787   0.601   3.623  0.2455  0.1574 -0.2060
   69MOL   C11722013   3.879   0.713   3.628 -0.2780 -1.2595 -0.0141
   69MOL   C11822014   3.835   0.845   3.622  0.1859  0.3166  0.0072
   69MOL   F11922015   3.920   0.944   3.608  0.0229 -0.1481  0.2743
   69MOL   C12022016   3.697   0.863   3.638  1.5586  0.1302  0.1231
   69MOL   C12122017   3.607   0.762   3.638 -0.5409 -0.3103  0.9414
   69MOL   C12222018   3.532   0.478   3.466  0.5138  0.2485  0.0557
   69MOL   H12322019   3.463   0.579   3.655  0.2040 -0.2487  1.1241
   69MOL   H12422020   3.823   0.500   3.615 -1.3867 -0.5655  1.1210
   69MOL   H12522021   3.986   0.701   3.615 -0.1858 -0.3603 -0.1486
   69MOL   H12622022   3.662   0.965   3.641 -2.0274 -1.0536  0.4401
   69MOL   H12722023   3.501   0.783   3.632 -0.6137 -0.8601  0.2433
   69MOL   H12822024   3.570   0.554   3.398  1.4130 -0.2029  0.0583
   69MOL   H12922025   3.589   0.387   3.450 -0.8867 -0.6899  0.2998
   69MOL   C13022026   3.374   0.463   3.434 -0.0540  0.4950 -0.7562
   69MOL   C13122027   3.292   0.586   3.441  0.0577  0.1209 -0.1048
   69MOL   C13222028   3.331   0.712   3.387 -0.4243 -0.4439  0.8570
   69MOL   C13322029   3.247   0.829   3.394 -1.0104  0.0867  0.6041
   69MOL   C13422030   3.124   0.820   3.460 -0.3370 -0.4461  0.6725
   69MOL   F13522031   3.050   0.937   3.487 -0.0750 -0.1471  0.0324
   69MOL   C13622032   3.078   0.689   3.502  0.2634 -1.3113  0.0584
   69MOL   C13722033   3.158   0.576   3.488  1.0338  0.2841 -1.4316
   69MOL   C13822034   3.362   0.383   3.303 -0.0997 -0.1497 -0.5052
   69MOL   H13922035   3.331   0.405   3.516  0.6632  2.6706  1.1939
   69MOL   H14022036   3.430   0.720   3.344 -0.8487  2.2220  0.2640
   69MOL   H14122037   3.285   0.926   3.362 -0.6179  0.5677  2.4404
   69MOL   H14222038   2.986   0.666   3.553  1.3487 -3.1072  1.2864
   69MOL   H14322039   3.120   0.486   3.535  0.4597  1.3215  0.1558
   69MOL   H14422040   3.329   0.450   3.224 -0.2075 -0.5100 -0.7638
   69MOL   H14522041   3.461   0.362   3.262  0.1534 -1.0461  0.5222
   69MOL   C14622042   3.288   0.248   3.299 -0.0640 -0.1603 -0.5867
   69MOL   C14722043   3.150   0.250   3.366 -0.5375  0.2447 -0.3273
   69MOL   C14822044   3.045   0.330   3.307  0.0506  0.3954 -0.5005
   69MOL   C14922045   2.918   0.331   3.371  0.3781 -0.0748  0.4151
   69MOL   C15022046   2.890   0.246   3.481 -0.4594 -0.4031 -0.1838
   69MOL   F15122047   2.768   0.240   3.531 -0.2003 -0.1854 -0.9253
   69MOL   C15222048   2.991   0.171   3.544  1.1575 -0.0433 -0.0489
   69MOL   C15322049   3.120   0.173   3.481  0.1867 -0.3659 -0.0915
   69MOL   C15422050   3.300   0.196   3.161 -0.8864  0.4271 -0.0952
   69MOL   H15522051   3.338   0.176   3.363 -0.4021  0.5934  0.5465
   69MOL   H15622052   3.051   0.386   3.214  0.6728  2.2393  0.6120
   69MOL   H15722053   2.847   0.390   3.313  1.7533  0.1742 -1.0575
   69MOL   H15822054   2.966   0.107   3.627 -1.4317  0.3104 -0.5202
   69MOL   H15922055   3.201   0.112   3.518 -1.0428 -1.3985  0.9123
   69MOL   H16022056   3.223   0.119   3.158  1.3087 -1.8487  0.2928
   69MOL   H16122057   3.277   0.273   3.088  0.1444  0.3276 -0.5305
   69MOL   C16222058   3.429   0.123   3.120  0.8886  0.0242  0.2263
   69MOL   C16322059   3.470   0.018   3.224  0.0758 -0.5643  0.6219
   69MOL   C16422060   3.380   8.153   3.264  0.5568 -0.0689 -0.4980
   69MOL   C16522061   3.420   8.060   3.362 -0.5930 -0.0079 -0.3579
   69MOL   C16622062   3.551   8.069   3.416 -0.1864  0.3746 -0.1913
   69MOL   F16722063   3.583   7.982   3.512 -0.2358 -0.1813 -0.0924
   69MOL   C16822064   3.640   8.166   3.368  0.9980  0.2263 -0.1118
   69MOL   C16922065   3.603   0.024   3.269 -0.5865 -0.6686 -0.2946
   69MOL   C17022066   3.427   0.062   2.977  0.0339  0.0715 -0.2743
   69MOL   H17122067   3.506   0.200   3.123  0.2073  0.7280 -0.1324
   69MOL   H17222068   3.283   8.158   3.217 -0.1664  0.9032  1.0511
   69MOL   H17322069   3.364   7.975   3.398  0.8512 -0.2402  1.3944
   69MOL   H17422070   3.743   8.174   3.400  0.9173 -0.0438  0.2102
   69MOL   H17522071   3.666   0.106   3.237  0.1045 -1.8848 -2.1386
   69MOL   H17622072   3.504   8.221   2.968  0.7733  0.7929 -0.0644
   69MOL   H17722073   3.337   8.234   2.978  0.4104 -0.5273 -2.1377
   69MOL   C17822074   3.448   0.169   2.859  0.1814 -0.0092 -0.9445
   69MOL   C17922075   3.583   0.166   2.787 -0.5595  0.1380  0.3163
   69MOL   C18022076   3.652   0.041   2.754  0.2543  1.0645  0.2979
   69MOL   C18122077   3.783   0.047   2.699 -0.4141  0.0590  0.5451
   69MOL   C18222078   3.848   0.168   2.681 -0.5674 -0.1995 -0.2000
   69MOL   F18322079   3.970   0.174   2.631 -0.4520  0.4968  0.2346
   69MOL   C18422080   3.784   0.288   2.710 -0.1697  0.5189 -0.3807
   69MOL   C18522081   3.652   0.288   2.763 -0.3593  0.5665 -0.3810
   69MOL   C18622082   3.338   0.151   2.754 -0.0876 -0.0281 -0.0096
   69MOL   H18722083   3.434   0.270   2.897 -1.5795 -0.0828 -1.3596
   69MOL   H18822084   3.601   8.181   2.758  0.5344  0.7896 -1.9746
   69MOL   H18922085   3.826   8.185   2.676  1.3529  0.7026  1.0825
   69MOL   H19022086   3.834   0.381   2.688 -0.2692  0.0004 -2.8822
   69MOL   H19122087   3.609   0.377   2.805  3.5255  2.6895 -0.6878
   69MOL   H19222088   3.371   0.200   2.662  0.0323 -1.4491 -0.7359
   69MOL   H19322089   3.335   0.052   2.710  0.9319  0.9599 -2.4250
   69MOL   C19422090   3.200   0.194   2.806  0.1240  0.0417  0.0297
   69MOL   C19522091   3.186   0.340   2.809  0.2053 -0.4253  0.1215
   69MOL   C19622092   3.112   0.402   2.915 -0.0667  0.5553 -0.7771
   69MOL   C19722093   3.100   0.541   2.920  0.5992 -0.1615  0.4737
   69MOL   C19822094   3.147   0.616   2.811 -0.1072  0.2509  0.1460
   69MOL   F19922095   3.133   0.750   2.819 -0.0288 -0.4632  0.4871
   69MOL   C20022096   3.214   0.552   2.705 -0.8944  0.1888 -0.1781
   69MOL   C20122097   3.227   0.415   2.699  0.2148 -0.8131  0.2338
   69MOL   C20222098   3.092   0.126   2.726  0.2036  0.5183 -0.5043
   69MOL   H20322099   3.193   0.166   2.911  0.2356  2.3993  0.6972
   69MOL   H20422100   3.081   0.352   3.006  1.8373  0.5246 -0.1130
   69MOL   H20522101   3.060   0.602   2.999  0.2794  0.7697 -0.3956
   69MOL   H20622102   3.253   0.623   2.634  0.4058 -1.9044 -1.5921
   69MOL   H20722103   3.276   0.372   2.613 -1.0732 -1.0015 -0.4284
   69MOL   H20822104   2.997   0.173   2.752 -0.6812 -1.2671 -0.3911
   69MOL   H20922105   3.123   0.144   2.623  0.9931  1.9314 -0.0344
   69MOL   C21022106   3.063   8.216   2.769  0.8376  1.0955 -0.0164
   69MOL   C21122107   2.995   8.197   2.905 -0.4248  0.7848 -0.4588
   69MOL   C21222108   3.050   8.110   3.003 -0.4262 -0.3047 -0.0722
   69MOL   C21322109   2.989   8.103   3.130  0.5034 -0.1322 -0.0656
   69MOL   C21422110   2.865   8.163   3.150  0.7453  0.0303 -0.3414
   69MOL   F21522111   2.799   8.121   3.259  0.2026  0.6365 -0.3328
   69MOL   C21622112   2.801   0.011   3.052 -0.3192 -0.1053 -0.8591
   69MOL   C21722113   2.870   0.032   2.933 -0.3347  0.2079  0.0309
   69MOL   C21822114   2.983   8.146   2.660 -0.2262 -0.1125 -0.1702
   69MOL   H21922115   3.163   8.173   2.771  0.4242  0.1215  0.2050
   69MOL   H22022116   3.139   8.052   2.984  0.0364  0.1445  0.7104
   69MOL   H22122117   3.030   8.037   3.205 -1.6939 -0.9758  0.4243
   69MOL   H22222118   2.698   0.038   3.065  0.2261  0.9116  1.6841
   69MOL   H22322119   2.823   0.087   2.852  0.3733  0.2481 -0.3559
   69MOL   H22422120   2.950   8.050   2.700  2.3249 -0.9919 -0.0566
   69MOL   H22522121   2.894   8.206   2.641  0.8640  1.2388 -1.0703
   69MOL   C22622122   3.064   8.110   2.532 -0.4209  0.1791 -0.1290
   69MOL   C22722123   3.168   8.004   2.551 -0.4013  1.0948 -0.2052
   69MOL   C22822124   3.138   7.885   2.627 -0.1312  0.4188  0.3234
   69MOL   C22922125   3.243   7.793   2.648  0.1440 -0.3393  0.4480
   69MOL   C23022126   3.372   7.819   2.603 -0.2625 -0.1785  0.1871
   69MOL   F23122127   3.460   7.731   2.649 -0.5810  0.1700  0.6398
   69MOL   C23222128   3.403   7.928   2.524  0.1200 -0.1279  0.0567
   69MOL   C23322129   3.298   8.021   2.496  0.6379 -0.4674  0.0523
   69MOL   C23422130   2.973   8.070   2.417  0.3131 -0.1277 -0.8264
   69MOL   H23522131   3.120   8.196   2.498  0.1719  0.5125  1.6253
   69MOL   H23622132   3.039   7.863   2.663 -0.2116 -0.0133 -0.1514
   69MOL   H23722133   3.221   7.704   2.705 -2.2857  0.2842  0.5366
   69MOL   H23822134   3.503   7.947   2.487 -0.2446  1.9993  0.0959
   69MOL   H23922135   3.319   8.114   2.445 -0.7794 -0.4371 -0.4978
   69MOL   H24022136   3.040   8.058   2.332  0.7576  2.4701 -0.8679
   69MOL   H24122137   2.911   7.982   2.435  1.1817 -0.2292  1.8124
   69MOL   C24222138   2.873   8.182   2.372 -0.7321  0.6845 -0.0018
   69MOL   C24322139   2.935   0.078   2.325 -0.2111  0.2819 -0.0468
   69MOL   C24422140   2.993   0.082   2.198  0.2455  0.1530  0.9970
   69MOL   C24522141   3.045   0.198   2.145  0.4727 -0.5608 -0.1255
   69MOL   C24622142   3.045   0.319   2.222 -0.0862  0.1935 -0.2542
   69MOL   F24722143   3.083   0.435   2.170 -0.1947  0.1559  0.4522
   69MOL   C24822144   2.997   0.312   2.355  0.4943  0.6132 -0.4839
   69MOL   C24922145   2.944   0.188   2.408  0.0317 -0.1497  0.3618
   69MOL   C25022146   2.770   8.125   2.275  0.6567 -0.6087 -0.4018
   69MOL   H25122147   2.809   8.206   2.457 -0.4727  0.7995  0.1630
   69MOL   H25222148   2.991   8.232   2.131 -0.6992  0.8313  0.1606
   69MOL   H25322149   3.075   0.202   2.041  1.0257 -0.3465  0.0378
   69MOL   H25422150   3.008   0.395   2.423  0.7862 -0.5750  0.9414
   69MOL   H25522151   2.901   0.188   2.507 -1.3966  0.2650 -0.2478
   69MOL   H25622152   2.730   8.219   2.237  0.5699  0.2358  1.6988
   69MOL   H25722153   2.822   8.068   2.198  0.9842 -0.9965  0.1042
   69MOL   C25822154   2.637   8.066   2.327  0.3378  0.0052  0.4218
   69MOL   C25922155   2.535   8.047   2.212  0.4820  0.2578 -0.4092
   69MOL   C26022156   2.395   8.070   2.234 -0.2211 -0.2040 -1.0609
   69MOL   C26122157   2.303   8.077   2.134  0.0663 -0.0420  0.0093
   69MOL   C26222158   2.342   8.049   2.002  0.0651 -0.1047 -0.0684
   69MOL   F26322159   2.253   8.054   1.904 -0.6641 -0.7896 -0.2279
   69MOL   C26422160   2.474   8.010   1.983 -0.2002 -0.1612  0.2982
   69MOL   C26522161   2.571   8.010   2.086 -0.4263 -0.0394 -0.2955
   69MOL   C26622162   2.655   7.938   2.406 -0.1134 -0.2837  0.1157
   69MOL   H26722163   2.589   8.133   2.399  1.0079  3.2573 -2.0296
   69MOL   H26822164   2.355   8.097   2.330  0.5584 -0.9858 -0.5123
   69MOL   H26922165   2.197   8.081   2.153  0.4160 -0.0474  2.0186
   69MOL   H27022166   2.504   7.989   1.881 -0.4455  1.0337 -0.0185
   69MOL   H27122167   2.676   7.991   2.070 -0.3585 -0.1670  0.3086
   69MOL   H27222168   2.575   7.870   2.378 -0.5741  0.6984 -0.9871
   69MOL   H27322169   2.741   7.880   2.370 -0.5010 -0.7288 -0.1014
   69MOL   C27422170   2.651   7.930   2.558 -0.6394  0.1261  0.3636
   69MOL   C27522171   2.534   8.007   2.625  0.3523  0.4173 -0.2253
   69MOL   C27622172   2.548   8.119   2.706 -0.2447 -0.2666 -0.0560
   69MOL   C27722173   2.439   8.170   2.774 -0.2957 -0.7693  0.6641
   69MOL   C27822174   2.309   8.131   2.742  0.2210 -0.0944 -0.5787
   69MOL   F27922175   2.199   8.198   2.794  0.2731  0.4219 -0.1892
   69MOL   C28022176   2.290   8.031   2.645  0.3516  0.3848 -0.3483
   69MOL   C28122177   2.399   7.962   2.592 -0.5428  0.0965 -0.3727
   69MOL   C28222178   2.649   7.787   2.609 -0.5191 -0.6129  0.2119
   69MOL   H28322179   2.747   7.957   2.600 -0.3297  0.0779 -0.3187
   69MOL   H28422180   2.650   8.154   2.715 -0.3830  0.1521 -0.1146
   69MOL   H28522181   2.450   0.017   2.843 -0.9100  1.2383 -1.5448
   69MOL   H28622182   2.189   8.016   2.611  0.1468  0.7919  0.0801
   69MOL   H28722183   2.381   7.875   2.531  2.0335 -1.9194  1.6255
   69MOL   H28822184   2.563   7.737   2.563  1.4442 -2.0080 -2.0398
   69MOL   H28922185   2.735   7.732   2.571 -0.2385  1.0592 -1.6519
   69MOL   C29022186   2.633   7.756   2.758  0.1118  0.1212 -0.6721
   69MOL   C29122187   2.542   7.629   2.776 -0.9659 -0.1833 -0.3982
   69MOL   C29222188   2.585   7.496   2.751 -0.3014 -0.1260  0.4951
   69MOL   C29322189   2.506   7.382   2.786 -0.0770  0.3819 -0.0109
   69MOL   C29422190   2.386   7.405   2.837  0.5703  0.7374  0.0323
   69MOL   F29522191   2.313   7.295   2.863 -0.5160  0.3579  0.1287
   69MOL   C29622192   2.338   7.531   2.871 -0.3006  0.3412 -0.6025
   69MOL   C29722193   2.410   7.643   2.827  0.3525  0.0741 -0.3082
   69MOL   C29822194   2.773   7.731   2.823  0.4305  0.0941 -0.0996
   69MOL   H29922195   2.589   7.836   2.817 -2.7495 -0.0121 -2.5473
   69MOL   H30022196   2.684   7.473   2.714 -1.3910 -0.7514 -2.1195
   69MOL   H30122197   2.536   7.282   2.760 -1.6111  0.1679 -1.0077
   69MOL   H30222198   2.245   7.548   2.924  0.5985 -1.4868  1.6254
   69MOL   H30322199   2.363   7.738   2.846  0.4868  0.8381 -3.4936
   69MOL   H30422200   2.816   7.631   2.820  2.3041  0.8467  0.7721
   69MOL   H30522201   2.842   7.787   2.760  0.2456 -2.3085 -2.5330
   69MOL   C30622202   2.799   7.793   2.960 -0.5166  0.0705 -0.4059
   69MOL   C30722203   2.700   7.754   3.071 -0.6057 -0.0497 -0.6549
   69MOL   C30822204   2.650   7.851   3.160 -0.2190  1.0585  0.8893
   69MOL   C30922205   2.581   7.800   3.274  0.3326  0.2800 -0.4139
   69MOL   C31022206   2.554   7.665   3.298  0.3234 -0.0238 -0.4720
   69MOL   F31122207   2.481   7.608   3.398 -0.3057  0.0462  0.3693
   69MOL   C31222208   2.598   7.576   3.200 -0.3302  0.4827  0.5622
   69MOL   C31322209   2.672   7.615   3.091 -0.0312  0.7213  0.2908
   69MOL   C31422210   2.952   7.777   3.000  0.1161  0.1822 -0.2261
   69MOL   H31522211   2.779   7.900   2.950 -0.3060  0.0928 -0.6094
   69MOL   H31622212   2.658   7.959   3.161  1.5714  0.9529  2.9883
   69MOL   H31722213   2.535   7.870   3.343  3.4512  0.5872  1.4740
   69MOL   H31822214   2.591   7.470   3.216 -0.8129  0.5543  0.8388
   69MOL   H31922215   2.706   7.536   3.026  0.5302 -0.3513  1.8948
   69MOL   H32022216   2.977   7.827   3.094  1.0619 -0.4922 -0.1195
   69MOL   H32122217   2.980   7.673   3.015 -0.9728 -0.7031 -3.8545
   69MOL   H32222218   3.022   7.827   2.933  2.1466 -0.0448  1.6567
   70MOL     C122219   6.334   7.032   6.380 -0.3487  0.3871 -0.0695
   70MOL     C222220   6.416   7.110   6.280 -0.1407 -0.5039  0.0092
   70MOL     C322221   6.362   7.138   6.153  0.4883  0.0988 -0.1618
   70MOL     C422222   6.433   7.212   6.062 -0.7184  0.2903  0.7485
   70MOL     C522223   6.560   7.266   6.097  0.3096  1.4744 -0.2121
   70MOL     F622224   6.630   7.349   6.020  0.4359  0.4524  0.7094
   70MOL     C722225   6.619   7.225   6.219  0.6037  0.6547 -0.5181
   70MOL     C822226   6.548   7.152   6.312 -0.3129 -1.3925  0.2330
   70MOL     C922227   6.306   7.108   6.509  0.5738 -0.7774  0.0003
   70MOL    H1022228   6.382   6.940   6.414 -0.2969 -0.6116 -2.7139
   70MOL    H1122229   6.267   7.098   6.120 -0.0085  1.1157  0.0233
   70MOL    H1222230   6.401   7.245   5.964 -0.9867  1.5557  1.2485
   70MOL    H1322231   6.722   7.249   6.237  0.3808  2.9672 -2.1717
   70MOL    H1422232   6.582   7.128   6.411  0.1702  1.2144  0.7282
   70MOL    H1522233   6.273   7.033   6.581  1.1116  0.5118  1.6219
   70MOL    H1622234   6.399   7.141   6.555 -0.1663  0.6799  0.4674
   70MOL    H1722235   6.253   6.998   6.316  0.7615 -1.0564 -0.7253
   70MOL    C1822236   6.196   7.218   6.491 -0.3773 -0.4259  0.2945
   70MOL    C1922237   6.058   7.160   6.472 -0.0264  0.0635  0.5677
   70MOL    C2022238   5.979   7.190   6.357  0.5880  0.2012 -0.2336
   70MOL    C2122239   5.856   7.124   6.339 -0.2543  0.1951 -0.2396
   70MOL    C2222240   5.806   7.037   6.435 -0.0042 -0.0822  0.6408
   70MOL    F2322241   5.681   6.979   6.423  0.2727  0.1692  0.0584
   70MOL    C2422242   5.881   7.009   6.551  0.7585 -0.3685  0.1252
   70MOL    C2522243   6.003   7.075   6.574  0.1994 -0.6275  0.1538
   70MOL    C2622244   6.211   7.334   6.600  0.2527 -0.0575  0.3007
   70MOL    H2722245   6.222   7.257   6.393  2.3718 -0.5850  0.9096
   70MOL    H2822246   6.016   7.252   6.277 -0.1186 -0.0545 -0.7607
   70MOL    H2922247   5.805   7.134   6.245  1.9971  2.1182 -1.3053
   70MOL    H3022248   5.832   6.947   6.625  0.5972 -0.9387 -0.4545
   70MOL    H3122249   6.052   7.058   6.668 -0.5845 -0.5511  0.5794
   70MOL    H3222250   6.220   7.286   6.698 -0.2913  0.6262  0.6901
   70MOL    H3322251   6.304   7.391   6.595 -0.4505  1.2895  2.1726
   70MOL    C3422252   6.091   7.428   6.625  0.2668 -0.3834 -0.4853
   70MOL    C3522253   6.084   7.491   6.765 -0.4542 -0.0035  0.9038
   70MOL    C3622254   6.048   7.407   6.871 -0.2166  0.4698 -0.4590
   70MOL    C3722255   6.054   7.456   7.006  0.3615  0.2631 -0.5623
   70MOL    C3822256   6.106   7.581   7.032 -0.2091  0.4265  0.1100
   70MOL    F3922257   6.112   7.624   7.155  0.1839 -0.2802  0.4807
   70MOL    C4022258   6.135   7.668   6.927 -0.2902 -0.7417 -0.5600
   70MOL    C4122259   6.124   7.620   6.792  0.0240  0.1840 -0.5470
   70MOL    C4222260   6.080   7.526   6.506 -0.1618  0.0219  0.4091
   70MOL    H4322261   6.009   7.357   6.634  1.1874 -1.6332 -1.7396
   70MOL    H4422262   6.023   7.302   6.864 -1.5331  0.7873 -0.6512
   70MOL    H4522263   6.033   7.390   7.089 -0.0346  0.5872 -0.4086
   70MOL    H4622264   6.159   7.772   6.938 -0.1675 -0.5026 -2.8427
   70MOL    H4722265   6.156   7.688   6.715 -1.7047  0.2234 -1.2657
   70MOL    H4822266   6.162   7.598   6.503 -0.5729  0.4387 -2.3033
   70MOL    H4922267   6.084   7.468   6.414  2.8439  1.9029 -0.7180
   70MOL    C5022268   5.947   7.602   6.485 -0.6273  0.0737  0.8294
   70MOL    C5122269   5.827   7.531   6.538  0.1946  0.6029 -0.5530
   70MOL    C5222270   5.779   7.564   6.668  0.6312 -0.5609  0.1624
   70MOL    C5322271   5.673   7.492   6.728  0.4678  0.0899 -0.6140
   70MOL    C5422272   5.615   7.386   6.662 -0.2396 -0.4792 -0.2387
   70MOL    F5522273   5.533   7.304   6.731 -0.1102 -0.5569  0.3535
   70MOL    C5622274   5.655   7.358   6.530  0.2313 -0.5432  0.3602
   70MOL    C5722275   5.765   7.418   6.474  0.0919 -0.7272 -0.4513
   70MOL    C5822276   5.951   7.756   6.493  0.1530  0.0584  0.1624
   70MOL    H5922277   5.936   7.587   6.378  0.8253 -0.6134  0.7638
   70MOL    H6022278   5.817   7.641   6.734  0.5342 -1.1657  0.9391
   70MOL    H6122279   5.642   7.523   6.827  0.8620  1.1569 -0.8142
   70MOL    H6222280   5.612   7.274   6.477 -1.0431  0.8130 -0.7965
   70MOL    H6322281   5.800   7.382   6.378  1.3183  0.5067 -0.4882
   70MOL    H6422282   5.945   7.782   6.599  0.7153  3.1847 -0.5214
   70MOL    H6522283   6.038   7.793   6.440 -1.3198  0.1175 -2.2789
   70MOL    C6622284   5.825   7.836   6.432 -0.3375 -0.7896  0.2460
   70MOL    C6722285   5.849   7.984   6.452 -0.3829  0.1475  0.4426
   70MOL    C6822286   5.768   8.046   6.547 -0.4525 -0.0688 -0.2994
   70MOL    C6922287   5.792   8.183   6.579 -0.2901 -0.0958  0.1409
   70MOL    C7022288   5.897   0.017   6.516 -0.2027  0.0086  0.0709
   70MOL    F7122289   5.921   0.145   6.556 -0.8423 -0.0319  0.3356
   70MOL    C7222290   5.978   8.186   6.423  0.2951  0.0405  0.1623
   70MOL    C7322291   5.958   8.054   6.395  0.8458  0.6826  0.4050
   70MOL    C7422292   5.811   7.819   6.273  0.7469  0.0692  0.2701
   70MOL    H7522293   5.740   7.808   6.493 -2.3538  2.3671 -0.9985
   70MOL    H7622294   5.691   7.996   6.604  0.3530 -0.7221  0.2254
   70MOL    H7722295   5.726   0.003   6.645  0.0268 -0.1767  0.5248
   70MOL    H7822296   6.064   0.008   6.388  0.4149  0.2514  0.7976
   70MOL    H7922297   6.024   8.006   6.324  0.6826  2.2411 -0.8492
   70MOL    H8022298   5.861   7.895   6.214  0.0103 -0.3110 -0.8618
   70MOL    H8122299   5.857   7.724   6.246  0.0316 -0.2743  0.2314
   70MOL    C8222300   5.665   7.809   6.219 -0.3336 -0.1086  0.3180
   70MOL    C8322301   5.575   7.906   6.291  0.6498 -0.8325  0.2989
   70MOL    C8422302   5.485   7.860   6.394  0.1925 -0.5724  0.0730
   70MOL    C8522303   5.420   7.948   6.476 -1.2173  0.7375 -0.0382
   70MOL    C8622304   5.410   8.086   6.433  0.4799 -0.3428  0.0092
   70MOL    F8722305   5.344   8.171   6.508  0.2417 -0.2298  0.2762
   70MOL    C8822306   5.489   8.132   6.323 -0.3914 -0.9409  0.1746
   70MOL    C8922307   5.578   8.043   6.254  0.9656 -0.4607 -0.0620
   70MOL    C9022308   5.660   7.822   6.064 -0.1010 -0.3623 -0.3751
   70MOL    H9122309   5.629   7.710   6.245  0.2061  0.5052  3.6315
   70MOL    H9222310   5.477   7.757   6.423 -0.2670 -0.4972  0.2082
   70MOL    H9322311   5.366   7.919   6.565  0.7041  0.4012  1.0296
   70MOL    H9422312   5.469   8.232   6.287  0.9415 -1.0725 -0.9779
   70MOL    H9522313   5.639   8.088   6.177  0.4321 -1.6086 -1.1760
   70MOL    H9622314   5.555   7.831   6.037 -0.0805 -1.3494 -0.8369
   70MOL    H9722315   5.709   7.916   6.039  0.0336 -0.1381  0.7305
   70MOL    C9822316   5.736   7.717   5.984  0.5713  0.3955 -0.1049
   70MOL    C9922317   5.671   7.580   5.993 -0.3670  0.4458 -0.1544
   70MOL   C10022318   5.712   7.483   6.090  0.6847  0.3042 -0.4713
   70MOL   C10122319   5.631   7.368   6.119  0.3414 -0.3526  0.1371
   70MOL   C10222320   5.518   7.342   6.041 -0.9369 -0.4432  0.1953
   70MOL   F10322321   5.448   7.231   6.068  0.0952 -0.1861 -0.5280
   70MOL   C10422322   5.487   7.433   5.934  0.1406 -0.4761 -0.3895
   70MOL   C10522323   5.552   7.559   5.920  0.6097 -0.2293 -0.1015
   70MOL   C10622324   5.763   7.760   5.845  0.1924 -0.2028  0.2271
   70MOL   H10722325   5.829   7.718   6.039  1.6715 -2.9869 -1.7310
   70MOL   H10822326   5.793   7.502   6.160 -1.3278  0.1074  1.9799
   70MOL   H10922327   5.653   7.308   6.206 -1.4890 -0.7160  0.3758
   70MOL   H11022328   5.400   7.402   5.878  0.5901 -0.7743 -0.9256
   70MOL   H11122329   5.511   7.627   5.846  1.0203  1.4329  1.1658
   70MOL   H11222330   5.817   7.677   5.798  0.2698  0.9892 -1.8321
   70MOL   H11322331   5.666   7.773   5.797 -0.2372 -0.7261  0.9273
   70MOL   C11422332   5.846   7.892   5.815 -0.5248 -0.5895  0.7119
   70MOL   C11522333   5.988   7.902   5.868  0.0701 -0.1644  0.0457
   70MOL   C11622334   6.018   7.996   5.964  0.0498 -0.1269  0.3399
   70MOL   C11722335   6.148   7.992   6.023  0.3941  0.3196  0.1745
   70MOL   C11822336   6.248   7.902   5.979  0.9155 -0.4966  1.0311
   70MOL   F11922337   6.373   7.899   6.034  0.0192  0.4201  0.0838
   70MOL   C12022338   6.211   7.806   5.881 -0.6708  0.2983 -0.6099
   70MOL   C12122339   6.080   7.801   5.822 -0.0597 -0.6896 -0.2621
   70MOL   C12222340   5.843   7.905   5.658  0.2989 -0.3658  0.0087
   70MOL   H12322341   5.782   7.970   5.855 -0.4395  0.5762 -1.3728
   70MOL   H12422342   5.944   8.064   6.003  0.7035  1.1624 -0.6695
   70MOL   H12522343   6.165   8.063   6.103 -1.4695 -0.7182  1.5299
   70MOL   H12622344   6.285   7.741   5.838 -0.8743 -1.6364  1.8302
   70MOL   H12722345   6.052   7.731   5.745 -0.0444 -0.4117 -0.5200
   70MOL   H12822346   5.924   7.975   5.637  1.6504 -1.8516  0.1418
   70MOL   H12922347   5.880   7.810   5.619  1.9721  0.4659 -0.4675
   70MOL   C13022348   5.705   7.946   5.580 -0.2439 -0.1772 -0.2250
   70MOL   C13122349   5.648   8.070   5.646 -0.3394 -0.0698 -0.2096
   70MOL   C13222350   5.719   8.187   5.638 -0.1145  0.3166 -0.0328
   70MOL   C13322351   5.676   0.068   5.714  0.0282 -0.5995  0.0010
   70MOL   C13422352   5.561   0.064   5.789 -0.3644  0.1702  0.0715
   70MOL   F13522353   5.523   0.167   5.866 -0.2413  0.0052 -0.4051
   70MOL   C13622354   5.488   8.175   5.789  0.0061 -0.3846 -0.0932
   70MOL   C13722355   5.529   8.059   5.720 -0.2636 -0.0255 -0.5996
   70MOL   C13822356   5.718   7.977   5.429  0.2252 -0.3266  0.6914
   70MOL   H13922357   5.638   7.860   5.580  1.1658 -1.3199  1.3535
   70MOL   H14022358   5.810   8.205   5.583 -0.3175 -1.2013 -0.8732
   70MOL   H14122359   5.733   0.159   5.715  0.3466 -0.7945 -0.1550
   70MOL   H14222360   5.402   8.180   5.853  0.9059  0.7676  1.0465
   70MOL   H14322361   5.475   7.966   5.720 -0.7824  0.2678  0.6024
   70MOL   H14422362   5.621   8.005   5.387  1.5810  1.3352 -1.4204
   70MOL   H14522363   5.775   8.069   5.423 -1.7106  0.9398  1.0533
   70MOL   C14622364   5.773   7.865   5.344  0.0019  0.0689 -0.4713
   70MOL   C14722365   5.692   7.731   5.356  0.3036 -1.3637 -0.0392
   70MOL   C14822366   5.726   7.636   5.453  0.5081  1.0434  0.4143
   70MOL   C14922367   5.657   7.512   5.467  0.4596 -0.3081  0.2527
   70MOL   C15022368   5.541   7.485   5.387 -0.5536 -0.6513 -0.4986
   70MOL   F15122369   5.477   7.366   5.391  0.0251 -0.1662 -0.3487
   70MOL   C15222370   5.498   7.587   5.296  0.8443 -0.0985 -0.1690
   70MOL   C15322371   5.577   7.707   5.274  0.0633  0.4391 -0.6641
   70MOL   C15422372   5.792   7.910   5.193 -0.2423 -0.0678 -0.2130
   70MOL   H15522373   5.865   7.854   5.401 -0.5512  0.3854  0.5000
   70MOL   H15622374   5.801   7.656   5.528  1.1263 -2.5035  0.8503
   70MOL   H15722375   5.686   7.451   5.551  0.1335 -0.2046  0.4375
   70MOL   H15822376   5.406   7.585   5.240 -0.4045  1.0591  1.7616
   70MOL   H15922377   5.547   7.782   5.202 -0.7560  2.3306  1.5800
   70MOL   H16022378   5.691   7.915   5.153 -0.9999  0.0985  1.6462
   70MOL   H16122379   5.826   8.014   5.191 -0.1571 -0.0880  0.0998
   70MOL   C16222380   5.870   7.814   5.112  0.4889 -0.6648  0.1033
   70MOL   C16322381   5.870   7.857   4.966 -0.6741  0.0628 -0.0601
   70MOL   C16422382   5.940   7.970   4.927 -0.1600 -0.2616  0.0732
   70MOL   C16522383   5.928   8.020   4.797 -0.0095  0.0126 -0.2125
   70MOL   C16622384   5.843   7.958   4.700  0.1970  0.3998 -0.6776
   70MOL   F16722385   5.847   7.994   4.568 -0.5016  0.2646  0.8887
   70MOL   C16822386   5.777   7.839   4.734 -0.1695  0.0929 -0.4812
   70MOL   C16922387   5.785   7.796   4.870  0.7106  0.2514  1.4022
   70MOL   C17022388   6.004   7.781   5.164 -1.4827  0.0835 -0.7057
   70MOL   H17122389   5.816   7.720   5.117 -1.7151  0.6334  1.1599
   70MOL   H17222390   6.003   8.018   5.000  2.0017 -3.8457  0.6703
   70MOL   H17322391   5.992   8.102   4.768  1.3747 -1.2174 -0.7284
   70MOL   H17422392   5.714   7.796   4.658  1.9242 -0.8310 -1.7333
   70MOL   H17522393   5.733   7.706   4.897 -0.6581  0.3994 -0.6840
   70MOL   H17622394   6.060   7.873   5.180 -0.4239 -0.8562  1.0825
   70MOL   H17722395   5.987   7.740   5.263  0.6474 -1.0550 -0.7818
   70MOL   C17822396   6.080   7.679   5.083  0.3805 -0.0522 -0.1111
   70MOL   C17922397   6.232   7.692   5.102  0.1298  0.2230 -0.1624
   70MOL   C18022398   6.287   7.690   5.233  0.1929 -0.3509  0.0737
   70MOL   C18122399   6.424   7.713   5.244  0.4687 -0.1973  0.4917
   70MOL   C18222400   6.505   7.739   5.132 -0.1975  0.1378  0.2996
   70MOL   F18322401   6.636   7.752   5.146  0.5815  0.3910  0.0504
   70MOL   C18422402   6.445   7.743   5.006 -0.9057  0.2056 -0.1122
   70MOL   C18522403   6.306   7.721   4.987 -0.0911  0.2003  0.1654
   70MOL   C18622404   6.017   7.531   5.115 -0.7563 -0.7532  0.3019
   70MOL   H18722405   6.055   7.704   4.980  1.0324 -2.0129 -0.7777
   70MOL   H18822406   6.236   7.675   5.327 -0.1132  0.9851  0.1323
   70MOL   H18922407   6.470   7.714   5.342  0.6014 -0.6310  0.4352
   70MOL   H19022408   6.510   7.760   4.921 -0.2176 -0.9650  0.1693
   70MOL   H19122409   6.262   7.730   4.889  2.5726  1.7892 -0.9456
   70MOL   H19222410   6.066   7.502   5.208 -0.5557 -0.1900  0.3766
   70MOL   H19322411   5.910   7.542   5.131 -0.9149  1.1862 -1.7751
   70MOL   C19422412   6.032   7.431   5.003  0.1482  0.7750  0.4319
   70MOL   C19522413   5.994   7.283   5.035  0.1731  0.2140 -0.4579
   70MOL   C19622414   5.862   7.238   5.075 -0.2722  0.1974  0.0577
   70MOL   C19722415   5.841   7.108   5.107  0.2253  0.9859 -0.7629
   70MOL   C19822416   5.949   7.018   5.109 -0.7574  0.3737 -0.3097
   70MOL   F19922417   5.921   6.892   5.152 -0.0742 -0.0979  0.1109
   70MOL   C20022418   6.079   7.058   5.069  0.3150 -0.4908 -0.2746
   70MOL   C20122419   6.100   7.194   5.037  0.2292 -0.4178 -0.3144
   70MOL   C20222420   5.943   7.463   4.881  0.3549  0.2451  0.4966
   70MOL   H20322421   6.138   7.439   4.980  0.2925 -0.4935  0.6159
   70MOL   H20422422   5.784   7.310   5.059  1.1823  1.4107 -1.9315
   70MOL   H20522423   5.744   7.079   5.144  1.1431  0.6370  1.4310
   70MOL   H20622424   6.159   6.985   5.062  1.7334  0.7897  1.9166
   70MOL   H20722425   6.197   7.233   5.012 -0.5159  1.2227 -0.6736
   70MOL   H20822426   5.840   7.429   4.895 -0.2867  1.0373 -2.1022
   70MOL   H20922427   5.923   7.569   4.870 -0.5623 -0.1417 -1.8527
   70MOL   C21022428   6.010   7.425   4.753  0.0823 -0.7045 -0.6315
   70MOL   C21122429   5.915   7.406   4.640  0.4475  0.5536  0.2917
   70MOL   C21222430   5.903   7.276   4.581 -0.3716 -0.0374  0.1595
   70MOL   C21322431   5.808   7.252   4.479  0.1556 -0.4575 -0.6607
   70MOL   C21422432   5.720   7.352   4.446 -0.1995 -1.4260  0.4058
   70MOL   F21522433   5.628   7.328   4.352  0.1328 -0.3458  0.1594
   70MOL   C21622434   5.738   7.486   4.488  0.2267  1.1600  0.5364
   70MOL   C21722435   5.834   7.514   4.586 -0.0992  0.1428 -0.5283
   70MOL   C21822436   6.125   7.523   4.715  0.0659  0.5486 -0.7391
   70MOL   H21922437   6.054   7.329   4.779 -2.0530 -2.2138 -2.4115
   70MOL   H22022438   5.978   7.203   4.608  2.5764  2.2997 -1.3427
   70MOL   H22122439   5.786   7.158   4.429 -2.1335  0.3039 -1.1465
   70MOL   H22222440   5.674   7.562   4.446  1.0226  2.0038  0.8446
   70MOL   H22322441   5.841   7.612   4.630 -1.1912 -0.8457  1.9469
   70MOL   H22422442   6.083   7.616   4.677  1.4405  0.1451 -3.3385
   70MOL   H22522443   6.178   7.551   4.806 -0.0386  0.8586 -0.7704
   70MOL   C22622444   6.212   7.477   4.599  0.0402 -0.0802  0.0000
   70MOL   C22722445   6.305   7.583   4.549  0.4605 -0.3165 -0.0390
   70MOL   C22822446   6.273   7.659   4.437  0.4475 -0.1839  0.3018
   70MOL   C22922447   6.352   7.772   4.397  0.0631 -0.3061  0.6402
   70MOL   C23022448   6.477   7.802   4.462 -0.3304 -0.0380  0.5084
   70MOL   F23122449   6.572   7.888   4.414  0.1106  0.2052 -0.3999
   70MOL   C23222450   6.501   7.734   4.583  0.1442 -0.1385  0.0712
   70MOL   C23322451   6.411   7.631   4.626 -0.5052  0.4004 -0.5862
   70MOL   C23422452   6.290   7.350   4.630  0.7832 -0.7000 -0.2093
   70MOL   H23522453   6.146   7.446   4.519 -1.2540 -0.9533  1.3909
   70MOL   H23622454   6.181   7.629   4.388  0.7355 -1.1705  0.3534
   70MOL   H23722455   6.333   7.833   4.310  0.2507 -0.0121  0.8054
   70MOL   H23822456   6.593   7.754   4.636  2.6062 -3.7616 -2.5967
   70MOL   H23922457   6.440   7.584   4.719  0.1694 -1.0864 -1.5262
   70MOL   H24022458   6.334   7.364   4.728  3.0194  0.6184 -1.3456
   70MOL   H24122459   6.213   7.272   4.634  0.7022 -0.5464  1.4504
   70MOL   C24222460   6.399   7.307   4.533  0.6138 -0.0153 -0.2025
   70MOL   C24322461   6.473   7.189   4.583  0.3873 -0.0729  0.0827
   70MOL   C24422462   6.420   7.061   4.596 -0.6607 -0.3229 -0.4369
   70MOL   C24522463   6.505   6.957   4.645  0.2020  0.2187  0.1487
   70MOL   C24622464   6.641   6.977   4.655 -0.0097 -0.0473 -0.0437
   70MOL   F24722465   6.725   6.873   4.663  0.2061 -0.4312 -0.2603
   70MOL   C24822466   6.696   7.107   4.648 -0.1321 -0.4889 -0.1642
   70MOL   C24922467   6.607   7.212   4.620  0.1681  0.7490 -0.1532
   70MOL   C25022468   6.356   7.284   4.385 -0.1766 -0.4792  0.6439
   70MOL   H25122469   6.472   7.387   4.525  0.7463 -0.2481 -1.2751
   70MOL   H25222470   6.318   7.037   4.568 -0.0068 -1.9146 -1.4952
   70MOL   H25322471   6.467   6.856   4.646  1.6959 -0.3497  0.5232
   70MOL   H25422472   6.802   7.128   4.652  0.6101 -3.6002 -2.0736
   70MOL   H25522473   6.641   7.314   4.626  0.0653  0.9818 -2.9066
   70MOL   H25622474   6.293   7.197   4.364  2.1748 -2.5409  1.9692
   70MOL   H25722475   6.297   7.371   4.357  0.9942  0.2749  0.4945
   70MOL   C25822476   6.470   7.278   4.286 -0.0552  0.3693 -0.0393
   70MOL   C25922477   6.412   7.251   4.146 -0.2226 -0.4772  0.5907
   70MOL   C26022478   6.343   7.353   4.076  0.8529 -0.2689 -0.9430
   70MOL   C26122479   6.279   7.332   3.957  0.1649  0.4135 -0.2920
   70MOL   C26222480   6.291   7.206   3.901 -0.3410  0.5660 -0.1474
   70MOL   F26322481   6.245   7.191   3.776 -0.2718  0.5559 -0.3306
   70MOL   C26422482   6.363   7.096   3.958  0.1746 -0.6961 -0.2856
   70MOL   C26522483   6.421   7.125   4.082 -0.1048  0.1466 -0.1191
   70MOL   C26622484   6.566   7.404   4.283 -0.2289 -0.4225  0.6135
   70MOL   H26722485   6.532   7.194   4.316 -2.8348 -1.4793  0.6836
   70MOL   H26822486   6.340   7.450   4.122  1.0306 -0.2508 -0.9695
   70MOL   H26922487   6.226   7.412   3.907  0.7094  0.7218 -0.3733
   70MOL   H27022488   6.370   6.999   3.912  1.1972 -1.0994  0.6906
   70MOL   H27122489   6.474   7.048   4.136  0.8491 -0.7905 -2.3202
   70MOL   H27222490   6.505   7.494   4.274  1.5018  0.7587  0.3882
   70MOL   H27322491   6.612   7.414   4.382  1.8587  0.9821 -0.4526
   70MOL   C27422492   6.671   7.409   4.164  0.0636  0.4022  0.5115
   70MOL   C27522493   6.721   7.553   4.152  0.6204  1.0079  0.1641
   70MOL   C27622494   6.793   7.608   4.261 -0.5387 -0.2215  0.5731
   70MOL   C27722495   6.819   7.745   4.246  0.0921  0.3643 -0.1224
   70MOL   C27822496   6.778   7.826   4.142 -0.0773  0.7167  0.0754
   70MOL   F27922497   6.780   7.965   4.138  0.6461 -0.1070  0.5092
   70MOL   C28022498   6.715   7.761   4.037  0.6339  1.3797  0.1314
   70MOL   C28122499   6.685   7.624   4.040 -0.1890  0.2310 -0.9800
   70MOL   C28222500   6.783   7.301   4.178  0.0873 -0.3428 -0.3684
   70MOL   H28322501   6.623   7.389   4.069  0.1716  1.3178  0.2629
   70MOL   H28422502   6.822   7.555   4.351 -2.5109 -0.3386  1.1643
   70MOL   H28522503   6.872   7.798   4.324  2.3842 -2.2998  0.1945
   70MOL   H28622504   6.698   7.816   3.946 -0.9960 -0.5174 -0.7525
   70MOL   H28722505   6.639   7.579   3.953 -1.1228 -0.4193 -0.1558
   70MOL   H28822506   6.842   7.306   4.270  0.6416 -0.9327 -0.6893
   70MOL   H28922507   6.725   7.209   4.191 -0.7470  0.5616  2.7929
   70MOL   C29022508   6.874   7.270   4.058 -0.0767  0.5084  0.0020
   70MOL   C29122509   6.951   7.136   4.086 -0.4486  0.2966  0.2488
   70MOL   C29222510   7.094   7.129   4.081  0.1644  0.4279 -0.1128
   70MOL   C29322511   7.160   7.006   4.108  0.0306  0.2239  0.1528
   70MOL   C29422512   7.088   6.891   4.147 -0.0548  0.2895 -0.0295
   70MOL   F29522513   7.150   6.774   4.165  0.0344 -0.2842  0.2685
   70MOL   C29622514   6.947   6.894   4.139 -0.4997 -0.4287 -0.7897
   70MOL   C29722515   6.881   7.018   4.112  0.1391  0.4375 -1.1579
   70MOL   C29822516   6.802   7.261   3.920  0.1870  0.3884 -0.2325
   70MOL   H29922517   6.948   7.348   4.043  0.9857 -0.3607  0.6655
   70MOL   H30022518   7.145   7.223   4.070 -1.2079  1.1067 -0.8419
   70MOL   H30122519   7.266   6.986   4.108  0.4163  2.0772  1.0614
   70MOL   H30222520   6.893   6.805   4.165 -0.2611  0.3520  2.6767
   70MOL   H30322521   6.774   7.020   4.100 -0.1151 -0.3106  0.8032
   70MOL   H30422522   6.719   7.192   3.933  0.8123 -0.0474  1.6612
   70MOL   H30522523   6.766   7.362   3.896 -1.0095 -0.3145 -1.4430
   70MOL   C30622524   6.877   7.223   3.792  0.6168 -0.2207  0.1187
   70MOL   C30722525   6.781   7.182   3.676  0.4947  0.1391 -0.0105
   70MOL   C30822526   6.664   7.253   3.643 -0.4119  0.0614  0.7973
   70MOL   C30922527   6.585   7.221   3.533 -0.4274  0.1880  0.0398
   70MOL   C31022528   6.628   7.114   3.448  0.1658 -0.9299  0.3782
   70MOL   F31122529   6.569   7.094   3.336 -0.6133  0.2898 -0.5275
   70MOL   C31222530   6.740   7.047   3.481  0.1359  0.5630 -0.1186
   70MOL   C31322531   6.819   7.073   3.593 -0.0804 -0.1633  0.0788
   70MOL   C31422532   6.984   7.318   3.737  0.4328  0.1280  0.5126
   70MOL   H31522533   6.920   7.126   3.815  1.1403  0.0843  0.4448
   70MOL   H31622534   6.637   7.340   3.701 -1.2364 -0.7362  1.6105
   70MOL   H31722535   6.502   7.275   3.491 -2.0476 -1.0206  1.6149
   70MOL   H31822536   6.773   6.972   3.410  1.5857  0.7175  0.3649
   70MOL   H31922537   6.910   7.016   3.610  0.5571  1.5185  2.5414
   70MOL   H32022538   7.032   7.281   3.647  1.1820  1.1145  0.5008
   70MOL   H32122539   6.946   7.413   3.699  1.4349  0.0634 -0.6654
   70MOL   H32222540   7.059   7.354   3.808  0.0951  3.3583 -0.6675
   71MOL     C122541   8.150   2.376   0.359 -0.2287 -0.5870  0.2993
   71MOL     C222542   8.209   2.390   0.221  0.2454  0.0677  0.0545
   71MOL     C322543   0.094   2.315   0.197 -0.7927 -0.2735  0.9112
   71MOL     C422544   0.148   2.312   0.067  0.0575  0.2720  0.5739
   71MOL     C522545   0.072   2.375   8.196 -1.0451 -0.2405  0.5513
   71MOL     F622546   0.123   2.368   8.065  0.2198  0.5136 -0.2898
   71MOL     C722547   8.184   2.435   8.220  0.4073  0.0904  0.1490
   71MOL     C822548   8.131   2.445   0.116 -0.0385 -0.3145  0.0054
   71MOL     C922549   8.099   2.234   0.399  0.7144  0.0640  0.0283
   71MOL    H1022550   8.062   2.437   0.377  0.3225 -0.0785  1.3265
   71MOL    H1122551   0.148   2.264   0.276 -0.8123 -0.2061  0.9684
   71MOL    H1222552   0.240   2.259   0.046 -0.4363 -0.4538  0.2454
   71MOL    H1322553   8.135   2.478   8.134 -1.2082  0.2569  1.1483
   71MOL    H1422554   8.034   2.488   0.138  1.4024  2.1471  1.8758
   71MOL    H1522555   8.183   2.170   0.425  1.2474  1.0853  0.8913
   71MOL    H1622556   8.044   2.240   0.493 -1.5770 -0.1411 -1.2664
   71MOL    H1722557   8.216   2.420   0.434 -1.9822  2.4027  0.1480
   71MOL    C1822558   8.006   2.167   0.293  0.0401  0.1584 -0.1422
   71MOL    C1922559   8.030   2.019   0.290 -0.9851  0.3097  0.5310
   71MOL    C2022560   8.097   1.966   0.178 -0.2342  0.8686 -0.4782
   71MOL    C2122561   8.122   1.827   0.167  0.3534  0.3172  0.2351
   71MOL    C2222562   8.076   1.739   0.271 -0.4462  0.1997 -0.0024
   71MOL    F2322563   8.093   1.605   0.246 -0.2974  0.3922 -0.4936
   71MOL    C2422564   8.026   1.792   0.389  0.2295  1.2176  0.9298
   71MOL    C2522565   8.003   1.931   0.396 -0.2426  0.2479  0.3858
   71MOL    C2622566   7.858   2.210   0.305 -0.3116  0.4851  0.2199
   71MOL    H2722567   8.045   2.206   0.199  1.3764 -1.4179 -0.2616
   71MOL    H2822568   8.133   2.028   0.097  1.0880  0.3573 -0.2866
   71MOL    H2922569   8.157   1.782   0.075 -1.0443  0.7544 -0.5347
   71MOL    H3022570   8.006   1.730   0.475 -0.3841  0.0561 -0.0368
   71MOL    H3122571   7.954   1.975   0.482 -3.1138 -0.3898 -0.8474
   71MOL    H3222572   7.832   2.184   0.407  0.5874 -0.6892  0.1516
   71MOL    H3322573   7.839   2.317   0.290 -2.4007  0.0518 -0.3376
   71MOL    C3422574   7.765   2.138   0.200 -0.2426 -0.6569  0.1457
   71MOL    C3522575   7.719   2.000   0.254  0.3828  0.0113  0.0087
   71MOL    C3622576   7.643   1.986   0.371 -0.4881  0.7843 -0.1159
   71MOL    C3722577   7.615   1.853   0.419  0.0607 -0.0391  0.0756
   71MOL    C3822578   7.658   1.738   0.349  0.0332  0.7596 -0.1498
   71MOL    F3922579   7.630   1.618   0.393  0.0175  0.7389  0.0749
   71MOL    C4022580   7.728   1.758   0.227 -0.3497  1.3054  0.6100
   71MOL    C4122581   7.755   1.890   0.181 -0.6611 -0.7229  0.0108
   71MOL    C4222582   7.649   2.237   0.155  0.6877 -0.4284  0.4032
   71MOL    H4322583   7.821   2.119   0.108 -1.2090  2.4972 -1.1715
   71MOL    H4422584   7.600   2.067   0.428 -1.2687 -0.0942  0.5453
   71MOL    H4522585   7.565   1.849   0.515 -1.3657  2.0083 -0.5415
   71MOL    H4622586   7.767   1.680   0.164  0.8645  2.6600 -0.3463
   71MOL    H4722587   7.812   1.887   0.089  0.0866 -0.2963  0.4562
   71MOL    H4822588   7.611   2.280   0.248  2.3046  1.2589  0.3245
   71MOL    H4922589   7.697   2.325   0.112 -0.1870 -2.0042 -4.0053
   71MOL    C5022590   7.540   2.174   0.072  0.6393 -0.1706 -0.1664
   71MOL    C5122591   7.408   2.248   0.088  0.7257 -0.1659 -0.4957
   71MOL    C5222592   7.377   2.363   0.014  0.0055 -0.6015 -0.0589
   71MOL    C5322593   7.264   2.442   0.041 -1.0277  0.1382 -0.6967
   71MOL    C5422594   7.173   2.395   0.137  0.2496 -0.5353  0.3998
   71MOL    F5522595   7.053   2.454   0.155  0.5936  0.5222  0.1889
   71MOL    C5622596   7.202   2.281   0.219 -0.0297 -0.1730 -0.1779
   71MOL    C5722597   7.321   2.209   0.196 -0.2160  0.1063 -0.3569
   71MOL    C5822598   7.554   2.143   8.155 -0.4926  0.1769 -0.1633
   71MOL    H5922599   7.516   2.079   0.120 -0.0236  1.0978  2.1135
   71MOL    H6022600   7.446   2.392   8.171 -1.2547  0.9286 -0.6477
   71MOL    H6122601   7.239   2.528   8.215 -0.2047  1.1904  0.4392
   71MOL    H6222602   7.141   2.252   0.303  0.1111  1.2300  0.4206
   71MOL    H6322603   7.359   2.133   0.263 -1.8940  0.3384  0.8890
   71MOL    H6422604   7.593   2.224   8.093  1.0490 -2.3601 -2.6777
   71MOL    H6522605   7.641   2.077   8.154 -1.1775 -0.7662 -2.2433
   71MOL    C6622606   7.450   2.058   8.080  0.1711 -0.0146  0.3602
   71MOL    C6722607   7.437   2.117   7.934 -0.1199  0.1924  0.4791
   71MOL    C6822608   7.352   2.228   7.918 -0.1848  0.1112 -0.1421
   71MOL    C6922609   7.316   2.279   7.793 -0.6058  0.0888 -0.9830
   71MOL    C7022610   7.390   2.236   7.677  0.3990  0.1217 -0.0452
   71MOL    F7122611   7.377   2.296   7.555  0.5948  0.3074 -0.2074
   71MOL    C7222612   7.478   2.128   7.692  0.4069 -0.7282  0.3138
   71MOL    C7322613   7.498   2.063   7.816 -0.5308  0.4441 -0.1904
   71MOL    C7422614   7.483   1.910   8.080  0.1450 -0.7055  0.0141
   71MOL    H7522615   7.352   2.072   8.126 -1.5154 -0.0599 -3.1036
   71MOL    H7622616   7.297   2.264   8.003  2.4938 -1.1020  2.2000
   71MOL    H7722617   7.255   2.367   7.782  1.6200  1.4596 -2.9170
   71MOL    H7822618   7.526   2.094   7.601  2.2740  0.2554  0.8926
   71MOL    H7922619   7.544   1.966   7.822 -2.8478 -0.7514 -1.2021
   71MOL    H8022620   7.417   1.873   8.002  0.7024 -0.1551 -0.7350
   71MOL    H8122621   7.576   1.898   8.024  0.6361 -1.6476  1.0353
   71MOL    C8222622   7.476   1.830   8.208  0.0444  0.4872  0.2750
   71MOL    C8322623   7.341   1.842   0.039 -0.3964 -0.1130 -0.7082
   71MOL    C8422624   7.335   1.853   0.183 -0.4794 -0.0559 -1.0728
   71MOL    C8522625   7.215   1.867   0.254  0.2739  0.5329 -0.4330
   71MOL    C8622626   7.099   1.871   0.182  0.0896  0.4245  0.2590
   71MOL    F8722627   6.979   1.872   0.251 -0.3030  0.3859  0.0274
   71MOL    C8822628   7.095   1.854   0.040 -0.2261  0.4839  0.8239
   71MOL    C8922629   7.217   1.839   8.203  0.4556  0.5401  0.5833
   71MOL    C9022630   7.538   1.689   8.194 -0.9889  0.3836 -0.3958
   71MOL    H9122631   7.548   1.878   0.040  1.2786 -0.5763 -0.2635
   71MOL    H9222632   7.425   1.862   0.241 -0.4413 -1.1013 -0.9688
   71MOL    H9322633   7.210   1.871   0.362  2.7446 -1.6675 -0.1874
   71MOL    H9422634   7.003   1.861   8.218 -0.3882 -0.2939  0.9809
   71MOL    H9522635   7.216   1.827   8.096 -1.9275  1.4707  0.4658
   71MOL    H9622636   7.643   1.702   8.168 -0.9405  1.5574  0.3478
   71MOL    H9722637   7.551   1.648   0.059  1.3514  0.4921 -0.6328
   71MOL    C9822638   7.475   1.580   8.112 -0.2392 -0.1057 -0.2641
   71MOL    C9922639   7.437   1.621   7.969  0.8567 -0.3448  0.1976
   71MOL   C10022640   7.538   1.650   7.874 -0.1612  0.1746  0.6223
   71MOL   C10122641   7.504   1.687   7.743 -0.2741  0.0750 -0.2146
   71MOL   C10222642   7.368   1.699   7.705  0.4736  1.5427  0.2141
   71MOL   F10322643   7.340   1.728   7.582 -0.0161 -0.2540  0.0022
   71MOL   C10422644   7.266   1.672   7.799  0.4623 -1.0286  0.2435
   71MOL   C10522645   7.297   1.636   7.930 -0.2101  1.1426  0.2241
   71MOL   C10622646   7.580   1.467   8.106 -0.1406 -0.1466 -0.1954
   71MOL   H10722647   7.382   1.538   8.149  0.0642  0.0940  0.7186
   71MOL   H10822648   7.643   1.649   7.900 -0.6060  0.1427  2.4784
   71MOL   H10922649   7.576   1.716   7.669 -0.2549  0.8581  0.1030
   71MOL   H11022650   7.166   1.682   7.760  0.4963  1.9613  0.8273
   71MOL   H11122651   7.212   1.605   7.989 -0.6156 -1.0471 -1.4465
   71MOL   H11222652   7.653   1.476   8.026 -0.7244 -2.1196 -0.9695
   71MOL   H11322653   7.643   1.468   8.195  0.0099  0.3316 -0.3034
   71MOL   C11422654   7.514   1.324   8.093 -0.0869 -0.1209 -0.3710
   71MOL   C11522655   7.567   1.258   7.965  0.0523 -0.0726 -0.0083
   71MOL   C11622656   7.701   1.217   7.948 -0.1881 -0.3148  0.1576
   71MOL   C11722657   7.735   1.159   7.823 -0.4891 -0.3122  0.1275
   71MOL   C11822658   7.645   1.143   7.720 -0.2016  0.0853  0.3717
   71MOL   F11922659   7.686   1.079   7.611  0.6062 -0.0838  0.0795
   71MOL   C12022660   7.510   1.186   7.735  0.5145  0.2846 -0.5791
   71MOL   C12122661   7.475   1.243   7.861 -0.2120 -1.4007  0.1441
   71MOL   C12222662   7.543   1.233   8.218  0.6052 -0.1699 -0.6586
   71MOL   H12322663   7.406   1.328   8.076  0.0463  1.4635 -0.9234
   71MOL   H12422664   7.773   1.249   8.021 -0.5680  0.0968  0.3573
   71MOL   H12522665   7.838   1.131   7.808  1.1830  4.8327  0.9023
   71MOL   H12622666   7.436   1.159   7.661 -0.6200  1.9196 -0.0631
   71MOL   H12722667   7.372   1.266   7.880  0.7282  1.5413  2.0760
   71MOL   H12822668   7.496   1.136   8.199  0.5313 -0.1982 -0.3307
   71MOL   H12922669   7.649   1.221   0.004  0.8663 -1.9096 -2.8123
   71MOL   C13022670   7.486   1.278   0.121  0.4099 -0.4119 -0.9660
   71MOL   C13122671   7.338   1.329   0.110  0.1063  0.5334  1.1314
   71MOL   C13222672   7.304   1.455   0.147  0.4256  0.4943 -0.8352
   71MOL   C13322673   7.171   1.502   0.149  0.2489  0.5022  0.0687
   71MOL   C13422674   7.074   1.409   0.101 -0.5074 -1.0373  0.2695
   71MOL   F13522675   6.954   1.462   0.092 -0.2989  0.8727  0.2516
   71MOL   C13622676   7.105   1.278   0.059  0.4092  0.5619 -0.0287
   71MOL   C13722677   7.240   1.237   0.059 -0.3543  0.3264  0.1238
   71MOL   C13822678   7.504   1.165   0.229 -0.0235  0.5327 -0.4656
   71MOL   H13922679   7.546   1.366   0.144  2.1859 -1.3906 -1.7664
   71MOL   H14022680   7.380   1.522   0.185 -2.3638  2.9664  0.5760
   71MOL   H14122681   7.150   1.606   0.167  1.4287  0.5696  1.1592
   71MOL   H14222682   7.029   1.209   0.026  1.7787 -0.8091 -0.3853
   71MOL   H14322683   7.276   1.138   0.034 -0.6663 -0.1117  1.3664
   71MOL   H14422684   7.479   1.070   0.181  0.9651  1.1555 -2.2684
   71MOL   H14522685   7.612   1.155   0.235 -0.1903 -0.1146  1.7697
   71MOL   C14622686   7.423   1.176   0.357 -0.7660  0.3411  0.1737
   71MOL   C14722687   7.407   1.038   0.415  0.2783 -0.2698 -0.7109
   71MOL   C14822688   7.522   0.975   0.474 -0.4798 -0.4122 -0.0508
   71MOL   C14922689   7.509   0.840   0.527 -0.1791  0.4944 -0.4324
   71MOL   C15022690   7.388   0.773   0.513 -0.2057 -0.1864 -0.4085
   71MOL   F15122691   7.376   0.649   0.566 -0.4482  0.2296 -0.1452
   71MOL   C15222692   7.283   0.828   0.446  0.3955 -0.2881  0.1841
   71MOL   C15322693   7.291   0.961   0.390 -0.1531 -0.5211 -0.1265
   71MOL   C15422694   7.475   1.271   0.460  0.2254  0.1453  0.5965
   71MOL   H15522695   7.320   1.201   0.332 -1.4470 -4.0862 -1.8905
   71MOL   H15622696   7.620   1.019   0.486  1.2932 -3.9308 -0.7905
   71MOL   H15722697   7.590   0.794   0.582  0.4679  2.4020  0.2810
   71MOL   H15822698   7.199   0.763   0.425 -0.1793  0.5167 -0.0368
   71MOL   H15922699   7.201   0.998   0.343 -1.0437 -0.6881  1.3999
   71MOL   H16022700   7.556   1.222   0.513  0.7325 -0.1854 -0.4838
   71MOL   H16122701   7.530   1.351   0.411  2.9589 -1.9245  0.1527
   71MOL   C16222702   7.373   1.335   0.557  0.4415 -0.6212 -0.5425
   71MOL   C16322703   7.422   1.327   0.701 -0.1282 -0.3272  0.0755
   71MOL   C16422704   7.532   1.411   0.744  0.3068 -0.2773 -0.2994
   71MOL   C16522705   7.568   1.409   0.886 -0.2914  0.1023  0.1530
   71MOL   C16622706   7.502   1.327   0.979  0.1680 -0.0573 -0.1396
   71MOL   F16722707   7.532   1.322   1.114 -0.5915 -0.4860 -0.5572
   71MOL   C16822708   7.395   1.246   0.932 -0.1615  0.8527  0.0212
   71MOL   C16922709   7.360   1.245   0.795  0.5498 -0.6362  0.1987
   71MOL   C17022710   7.331   1.480   0.510 -0.0813  0.2151 -0.6399
   71MOL   H17122711   7.289   1.266   0.560  0.1615 -0.2946 -0.8706
   71MOL   H17222712   7.582   1.475   0.674 -0.9359  0.7733 -0.2433
   71MOL   H17322713   7.641   1.483   0.918  0.5868 -0.5154 -0.3863
   71MOL   H17422714   7.348   1.172   0.994  0.5618 -0.4299 -0.9459
   71MOL   H17522715   7.271   1.190   0.769 -0.9140  1.3333  0.9608
   71MOL   H17622716   7.424   1.536   0.514  0.5705 -0.8853  0.0668
   71MOL   H17722717   7.303   1.468   0.405 -1.2845 -2.5308 -0.0449
   71MOL   C17822718   7.223   1.535   0.603 -0.2328  0.1123  0.1882
   71MOL   C17922719   7.270   1.645   0.693  0.4619 -0.9149 -0.8941
   71MOL   C18022720   7.270   1.612   0.827 -1.2147 -0.1275 -0.3192
   71MOL   C18122721   7.341   1.698   0.915  0.0602  0.5966  0.1793
   71MOL   C18222722   7.401   1.816   0.879 -0.4692  0.1784  0.0386
   71MOL   F18322723   7.477   1.884   0.968  0.2649  0.2915  0.1589
   71MOL   C18422724   7.394   1.851   0.745 -0.3854  0.2473 -0.2365
   71MOL   C18522725   7.326   1.768   0.650 -0.3072 -0.0813 -0.1436
   71MOL   C18622726   7.096   1.573   0.526  0.3264  0.8507  0.0846
   71MOL   H18722727   7.181   1.453   0.660 -3.3462  0.7297 -1.1134
   71MOL   H18822728   7.231   1.518   0.862 -1.2591 -0.6711 -1.7988
   71MOL   H18922729   7.352   1.671   1.019  0.9303  1.1390  0.2278
   71MOL   H19022730   7.452   1.932   0.705  3.3660 -1.7369  0.9713
   71MOL   H19122731   7.322   1.800   0.547 -0.2448 -0.6451 -0.3232
   71MOL   H19222732   7.110   1.656   0.457 -0.8262  2.3941  1.6811
   71MOL   H19322733   7.065   1.490   0.462 -1.3482  0.8398  0.8904
   71MOL   C19422734   6.974   1.605   0.623 -0.5069 -0.0470 -0.5100
   71MOL   C19522735   6.863   1.677   0.550 -0.1118 -0.5662  0.5571
   71MOL   C19622736   6.787   1.618   0.449  0.2291 -0.1023  0.0508
   71MOL   C19722737   6.692   1.695   0.369 -0.1141 -0.5514  0.2836
   71MOL   C19822738   6.684   1.833   0.382 -0.2056  0.6464  0.5773
   71MOL   F19922739   6.605   1.910   0.297 -0.8480  0.2920 -0.5385
   71MOL   C20022740   6.768   1.890   0.477 -0.4646 -0.0274  1.0071
   71MOL   C20122741   6.857   1.816   0.554 -0.5782 -0.7999  0.0486
   71MOL   C20222742   6.927   1.477   0.708  0.2147 -0.5242  0.1627
   71MOL   H20322743   7.010   1.677   0.696  0.0007  0.8335 -1.6100
   71MOL   H20422744   6.796   1.512   0.430  0.7664  0.3233 -2.2529
   71MOL   H20522745   6.635   1.632   0.301 -1.5297 -0.2463  1.1678
   71MOL   H20622746   6.771   1.998   0.485 -1.0439 -0.0820  1.9807
   71MOL   H20722747   6.909   1.871   0.631 -1.8595  1.1668 -0.4376
   71MOL   H20822748   6.896   1.402   0.636 -0.5324 -0.8896  0.8570
   71MOL   H20922749   7.008   1.437   0.769  0.3455 -0.4621  0.0313
   71MOL   C21022750   6.801   1.509   0.795  0.0766  0.3665 -0.4457
   71MOL   C21122751   6.723   1.381   0.823 -0.1232  0.3689  0.1360
   71MOL   C21222752   6.755   1.286   0.927 -0.5224 -0.3841  0.2748
   71MOL   C21322753   6.693   1.157   0.942  0.0933  0.0853  0.2714
   71MOL   C21422754   6.597   1.124   0.852  0.0010  0.5332 -0.5696
   71MOL   F21522755   6.543   1.001   0.852  0.2581 -0.1787 -0.0722
   71MOL   C21622756   6.559   1.216   0.750  0.2170  0.1682 -0.4092
   71MOL   C21722757   6.620   1.337   0.735  0.1221 -0.2897  0.2189
   71MOL   C21822758   6.842   1.582   0.922  0.3531 -0.3115  0.4974
   71MOL   H21922759   6.738   1.575   0.735 -0.2224 -0.0531 -0.5930
   71MOL   H22022760   6.838   1.302   0.994  0.5223 -0.6434 -0.9222
   71MOL   H22122761   6.722   1.081   1.013 -2.5264  0.4500  1.7990
   71MOL   H22222762   6.480   1.182   0.684 -1.5179  0.1216  1.6674
   71MOL   H22322763   6.593   1.398   0.651 -1.8537  0.7258  1.5658
   71MOL   H22422764   6.922   1.522   0.964  0.7282  1.0313  1.7448
   71MOL   H22522765   6.899   1.673   0.903 -0.4367  0.3600  1.2942
   71MOL   C22622766   6.715   1.608   1.014  0.0550 -0.6839  0.1119
   71MOL   C22722767   6.746   1.563   1.159 -0.3509 -0.4242  0.2202
   71MOL   C22822768   6.652   1.480   1.228  0.3513  0.6841  0.3065
   71MOL   C22922769   6.685   1.433   1.359 -0.6417 -0.2805 -0.3737
   71MOL   C23022770   6.800   1.492   1.426  0.3795  0.2887 -1.0671
   71MOL   F23122771   6.824   1.463   1.554 -0.2571  0.2540 -0.2592
   71MOL   C23222772   6.877   1.579   1.354 -0.1531 -0.1290  0.5133
   71MOL   C23322773   6.865   1.599   1.216 -0.2984  0.0763 -0.7236
   71MOL   C23422774   6.673   1.755   1.012 -0.6014  0.6245  1.4267
   71MOL   H23522775   6.629   1.551   0.981  1.5662 -2.1812 -1.3706
   71MOL   H23622776   6.564   1.449   1.175  0.1331  2.1761 -0.2141
   71MOL   H23722777   6.625   1.367   1.420  1.0972 -0.0041  1.6984
   71MOL   H23822778   6.966   1.616   1.402 -0.3465 -0.9414  1.5298
   71MOL   H23922779   6.951   1.645   1.170  0.4266 -0.8842 -0.3618
   71MOL   H24022780   6.597   1.766   1.090 -0.7624  2.8899  0.9532
   71MOL   H24122781   6.758   1.815   1.044  1.3901 -0.8077 -1.0008
   71MOL   C24222782   6.605   1.804   0.885 -0.4533  0.9279 -1.1004
   71MOL   C24322783   6.495   1.714   0.824 -1.0100  0.7212 -0.2878
   71MOL   C24422784   6.475   1.695   0.686  0.1684  0.3716 -0.6629
   71MOL   C24522785   6.381   1.599   0.639 -0.0940 -0.2389  0.7242
   71MOL   C24622786   6.292   1.537   0.729 -0.5837 -0.1272 -0.3162
   71MOL   F24722787   6.202   1.447   0.683  0.0184  0.0107 -0.7865
   71MOL   C24822788   6.304   1.570   0.868 -0.3745 -0.6875 -0.5186
   71MOL   C24922789   6.410   1.645   0.912  0.2861 -0.3057  0.4080
   71MOL   C25022790   6.543   1.943   0.916 -0.2544 -0.1188 -0.2312
   71MOL   H25122791   6.689   1.812   0.817  0.3435 -0.6705 -0.3313
   71MOL   H25222792   6.548   1.742   0.622  0.6512  0.8896  0.2704
   71MOL   H25322793   6.383   1.578   0.534 -2.3682 -1.0151  0.8197
   71MOL   H25422794   6.239   1.526   0.942  0.8450 -0.3540  0.7831
   71MOL   H25522795   6.422   1.658   1.018 -1.1825  1.9772  0.3447
   71MOL   H25622796   6.500   1.977   0.821  0.6082 -0.9667 -0.9294
   71MOL   H25722797   6.463   1.914   0.984  1.2052 -0.4797  1.3465
   71MOL   C25822798   6.626   2.055   0.974 -0.6655 -0.7903 -0.0994
   71MOL   C25922799   6.711   2.106   0.857  0.2288  0.3505 -0.4177
   71MOL   C26022800   6.659   2.182   0.743 -0.1194 -0.0140  0.2733
   71MOL   C26122801   6.748   2.224   0.638  0.2007  0.0454 -0.2288
   71MOL   C26222802   6.883   2.200   0.652 -0.1496 -0.7310 -0.5352
   71MOL   F26322803   6.967   2.248   0.556  0.0594  0.2751 -0.0763
   71MOL   C26422804   6.936   2.129   0.762 -0.6952  0.9994 -0.2397
   71MOL   C26522805   6.852   2.088   0.869 -0.2046 -0.3746  0.6140
   71MOL   C26622806   6.538   2.167   1.036  0.3079 -0.5320  0.3873
   71MOL   H26722807   6.688   2.010   1.052  1.5965 -0.7803 -1.8336
   71MOL   H26822808   6.554   2.208   0.734  0.3242  1.4089 -0.8927
   71MOL   H26922809   6.708   2.278   0.554  0.2542 -0.4789 -0.5958
   71MOL   H27022810   7.043   2.117   0.768 -1.1270 -3.8563 -0.7233
   71MOL   H27122811   6.897   2.032   0.950 -1.9722 -0.8769  1.2820
   71MOL   H27222812   6.599   2.256   1.050  2.9220 -2.4865  1.7473
   71MOL   H27322813   6.460   2.198   0.966  0.2104  0.6938  1.0365
   71MOL   C27422814   6.471   2.144   1.172 -0.4595  0.2163 -0.4124
   71MOL   C27522815   6.535   2.040   1.264 -0.5020  0.1976  0.3088
   71MOL   C27622816   6.461   1.926   1.298  0.3909 -0.1419 -0.8808
   71MOL   C27722817   6.510   1.832   1.391 -0.3195 -0.0959 -0.4827
   71MOL   C27822818   6.637   1.847   1.445 -0.0339 -0.1855  0.4936
   71MOL   F27922819   6.684   1.754   1.538  0.2538 -0.4160  0.1961
   71MOL   C28022820   6.713   1.957   1.406  0.4134 -0.2731  0.5165
   71MOL   C28122821   6.666   2.054   1.316 -0.2833 -0.5924 -0.5359
   71MOL   C28222822   6.437   2.274   1.244 -0.0287 -0.8898 -0.5573
   71MOL   H28322823   6.377   2.093   1.150 -0.7811 -0.3280  2.1215
   71MOL   H28422824   6.360   1.911   1.260 -0.0824  1.7680 -0.4413
   71MOL   H28522825   6.460   1.742   1.422  0.3629 -0.0751  0.7155
   71MOL   H28622826   6.809   1.976   1.451 -0.2058 -1.9610  2.6328
   71MOL   H28722827   6.716   2.147   1.291 -1.4363  0.5974  1.4171
   71MOL   H28822828   6.529   2.329   1.264 -0.8974  0.2337  0.4125
   71MOL   H28922829   6.377   2.338   1.179 -2.0729 -0.1193  1.9889
   71MOL   C29022830   6.366   2.263   1.381  0.3797  0.3024 -0.1552
   71MOL   C29122831   6.407   2.375   1.466  1.3549  0.3991 -0.5665
   71MOL   C29222832   6.477   2.342   1.585 -0.1344  0.2456  0.3156
   71MOL   C29322833   6.510   2.455   1.669  0.5655 -0.6688  0.8968
   71MOL   C29422834   6.477   2.588   1.631 -0.3990  0.5586  0.4473
   71MOL   F29522835   6.526   2.688   1.715 -0.8515 -0.1400  0.1189
   71MOL   C29622836   6.408   2.614   1.510  0.1781 -0.9991 -0.4040
   71MOL   C29722837   6.383   2.506   1.423  0.1184  0.1533 -0.1594
   71MOL   C29822838   6.217   2.266   1.353  0.0562  0.2531 -0.3630
   71MOL   H29922839   6.390   2.168   1.428 -0.5513 -0.0026 -0.2852
   71MOL   H30022840   6.511   2.240   1.594  0.6997  0.5756  0.9705
   71MOL   H30122841   6.580   2.448   1.751 -0.4332  1.7123  2.0233
   71MOL   H30222842   6.389   2.715   1.478 -0.3706 -1.4189 -1.4396
   71MOL   H30322843   6.338   2.522   1.327  3.1117  0.6206 -1.5365
   71MOL   H30422844   6.195   2.341   1.277 -2.5176 -0.9532 -0.8248
   71MOL   H30522845   6.180   2.185   1.290 -4.2499  2.5728 -1.0271
   71MOL   C30622846   6.127   2.269   1.475 -0.6637  0.2666 -0.3304
   71MOL   C30722847   5.992   2.319   1.433 -0.0429  0.3258  0.8782
   71MOL   C30822848   5.910   2.254   1.338 -0.0528 -0.8287 -0.9395
   71MOL   C30922849   5.776   2.289   1.308 -0.7968 -0.0989  1.1883
   71MOL   C31022850   5.728   2.408   1.374 -0.2275 -0.5423  0.0817
   71MOL   F31122851   5.600   2.455   1.356 -0.0056 -0.2264  0.0768
   71MOL   C31222852   5.813   2.480   1.461  0.4749 -0.3045 -1.0977
   71MOL   C31322853   5.939   2.435   1.492 -0.6025 -0.2278 -0.0547
   71MOL   C31422854   6.120   2.136   1.559  0.2036 -1.0048 -0.0040
   71MOL   H31522855   6.158   2.345   1.548  1.0099  1.5936 -2.3571
   71MOL   H31622856   5.958   2.172   1.286  1.0785 -1.5381  1.1659
   71MOL   H31722857   5.710   2.230   1.247  1.2652 -0.7748 -0.4634
   71MOL   H31822858   5.778   2.569   1.512 -2.3816 -1.1109 -1.5781
   71MOL   H31922859   6.007   2.481   1.562  0.0074 -1.5077  0.2182
   71MOL   H32022860   6.220   2.091   1.559  0.3038 -0.7861 -0.0542
   71MOL   H32122861   6.097   2.150   1.664 -0.0043 -2.4669  0.1593
   71MOL   H32222862   6.064   2.058   1.506  1.5941 -2.5740  0.7890
   72MOL     C122863   7.009   5.528   7.908 -0.0795  0.1707 -0.2778
   72MOL     C222864   7.102   5.573   8.022 -0.3185 -0.1797  0.0077
   72MOL     C322865   7.199   5.497   8.082  0.1906 -0.7088  0.1103
   72MOL     C422866   7.284   5.562   8.177 -0.2704 -0.0986 -0.3610
   72MOL     C522867   7.253   5.683   0.008  0.4486  0.2629  0.4671
   72MOL     F622868   7.322   5.743   0.112  0.2180  0.7706  0.1361
   72MOL     C722869   7.137   5.747   8.190 -0.2070  0.4065 -0.0978
   72MOL     C822870   7.069   5.694   8.081  0.3976  0.0627 -0.8501
   72MOL     C922871   7.070   5.568   7.764  0.3548 -0.2015 -0.0590
   72MOL    H1022872   6.911   5.573   7.925 -0.0324  0.4186 -0.6401
   72MOL    H1122873   7.230   5.401   8.044  0.3494 -0.9697  0.8900
   72MOL    H1222874   7.371   5.505   8.207 -2.3344 -2.9192  0.5124
   72MOL    H1322875   7.107   5.845   8.223  1.7725  0.7007  0.9325
   72MOL    H1422876   6.991   5.757   8.040 -0.9035  0.1363  1.6621
   72MOL    H1522877   6.981   5.588   7.703 -0.1331  0.1090  0.7359
   72MOL    H1622878   7.121   5.661   7.791 -0.8052 -0.1129  1.9927
   72MOL    H1722879   6.995   5.421   7.925 -1.4549  0.4931  0.7068
   72MOL    C1822880   7.159   5.467   7.694  0.6524 -0.1631 -1.1452
   72MOL    C1922881   7.085   5.334   7.664  0.2139  0.3686 -0.7475
   72MOL    C2022882   6.965   5.329   7.584  0.3841 -0.0755  0.0301
   72MOL    C2122883   6.904   5.203   7.561  0.6663 -0.3508 -0.4831
   72MOL    C2222884   6.958   5.086   7.616  0.1668 -0.1163  0.0795
   72MOL    F2322885   6.902   4.968   7.586  0.0894  0.0569  0.2794
   72MOL    C2422886   7.074   5.096   7.694  0.6823  0.5990 -0.1608
   72MOL    C2522887   7.141   5.217   7.727  0.0128  0.1436  1.1335
   72MOL    C2622888   7.212   5.536   7.563 -0.1600 -0.2130 -0.4822
   72MOL    H2722889   7.248   5.442   7.751  0.2086  1.1143  0.1626
   72MOL    H2822890   6.921   5.416   7.538  0.2267  0.4181  1.0909
   72MOL    H2922891   6.819   5.198   7.493 -0.5121 -1.6137  1.0485
   72MOL    H3022892   7.118   5.006   7.735 -2.4077 -0.7801  0.2692
   72MOL    H3122893   7.230   5.215   7.788 -1.3205 -1.8349  3.0691
   72MOL    H3222894   7.250   5.460   7.494  1.5639  1.0152 -0.9256
   72MOL    H3322895   7.130   5.568   7.499  0.8674  0.5654 -1.4345
   72MOL    C3422896   7.320   5.639   7.577  0.1189  0.0918 -0.5213
   72MOL    C3522897   7.449   5.587   7.634 -0.3446  0.4066 -0.5354
   72MOL    C3622898   7.479   5.615   7.772 -0.2639  0.0095  1.0294
   72MOL    C3722899   7.606   5.580   7.821 -0.0907  0.3983 -0.4060
   72MOL    C3822900   7.697   5.497   7.744  0.5901 -0.3769 -0.3241
   72MOL    F3922901   7.808   5.459   7.804 -0.9443 -0.0096  0.5263
   72MOL    C4022902   7.657   5.465   7.609  0.3539 -0.4604 -0.4630
   72MOL    C4122903   7.540   5.511   7.553  0.0176 -0.0244  0.5209
   72MOL    C4222904   7.337   5.709   7.444 -0.1644 -0.2474 -0.3791
   72MOL    H4322905   7.286   5.709   7.654  2.6869  1.3903 -0.5074
   72MOL    H4422906   7.407   5.657   7.841  0.1077 -0.1924  1.5395
   72MOL    H4522907   7.631   5.611   7.921 -0.1549 -0.7237 -0.0320
   72MOL    H4622908   7.719   5.400   7.549 -1.3966 -1.6586 -1.0333
   72MOL    H4722909   7.518   5.494   7.449  0.5446  0.6601  0.2898
   72MOL    H4822910   7.437   5.752   7.441 -0.4419  0.4072 -0.4267
   72MOL    H4922911   7.338   5.635   7.364 -5.2864  0.4286 -1.2676
   72MOL    C5022912   7.230   5.817   7.409  0.1237  0.5950  0.5780
   72MOL    C5122913   7.209   5.905   7.530 -0.3342 -0.5635 -0.1176
   72MOL    C5222914   7.084   5.921   7.591  0.0696  0.3651  0.8256
   72MOL    C5322915   7.067   5.994   7.709 -0.6617 -0.5679 -0.0575
   72MOL    C5422916   7.183   6.051   7.769 -0.0961  0.1338 -0.0721
   72MOL    F5522917   7.168   6.122   7.883  0.7149 -0.3734 -0.0542
   72MOL    C5622918   7.309   6.042   7.708  0.1132 -0.1860 -0.1447
   72MOL    C5722919   7.321   5.978   7.582  0.1392  0.8475 -0.3002
   72MOL    C5822920   7.270   5.894   7.281 -0.8172 -0.4374 -0.0164
   72MOL    H5922921   7.133   5.777   7.383  1.4197 -2.0333 -0.3205
   72MOL    H6022922   6.997   5.871   7.552  1.6021 -0.1773 -2.0589
   72MOL    H6122923   6.971   6.002   7.758  0.0865 -2.7425  1.8506
   72MOL    H6222924   7.388   6.091   7.763 -0.9641  0.7899  0.5790
   72MOL    H6322925   7.421   5.970   7.543  0.5563 -1.7193  1.2180
   72MOL    H6422926   7.341   5.971   7.313 -0.8091 -0.2121 -0.5821
   72MOL    H6522927   7.326   5.821   7.223  2.2516  0.3466  1.8059
   72MOL    C6622928   7.164   5.961   7.197  0.3759 -0.4104 -0.4040
   72MOL    C6722929   7.072   6.049   7.279 -0.3338 -0.4593 -0.2332
   72MOL    C6822930   7.119   6.167   7.342  0.3847 -0.3602  0.7745
   72MOL    C6922931   7.035   6.250   7.423 -0.8663  0.4181 -0.1536
   72MOL    C7022932   6.904   6.210   7.431  0.4218 -0.2300  0.3250
   72MOL    F7122933   6.828   6.281   7.515  0.7316  0.6277  0.4959
   72MOL    C7222934   6.851   6.099   7.367 -0.4286 -0.2551  0.0311
   72MOL    C7322935   6.936   6.017   7.288 -0.2234 -0.0675 -0.3445
   72MOL    C7422936   7.215   6.044   7.072  0.1972  0.6745 -0.3628
   72MOL    H7522937   7.102   5.873   7.180  0.4840 -0.3251 -1.2420
   72MOL    H7622938   7.223   6.194   7.339 -0.0828  1.3742 -1.0280
   72MOL    H7722939   7.079   6.338   7.469  4.3705 -0.2109 -3.4315
   72MOL    H7822940   6.750   6.071   7.392  0.5455 -3.5811  0.4692
   72MOL    H7922941   6.892   5.931   7.240  0.1254 -1.1100  1.1596
   72MOL    H8022942   7.251   6.143   7.101  0.7913  0.0219  1.1892
   72MOL    H8122943   7.308   6.008   7.027  0.1454  1.2626 -0.9521
   72MOL    C8222944   7.105   6.072   6.963  0.4324  0.8945  0.4105
   72MOL    C8322945   7.152   6.162   6.855  0.3608  0.1845  0.1346
   72MOL    C8422946   7.114   6.296   6.854 -0.3627 -0.0920 -0.6175
   72MOL    C8522947   7.163   6.382   6.746  0.4210  0.5523 -0.2148
   72MOL    C8622948   7.247   6.329   6.647 -0.0779  0.1117  0.2657
   72MOL    F8722949   7.300   6.415   6.550 -0.0611 -0.1028  0.3597
   72MOL    C8822950   7.294   6.195   6.653  0.7321 -0.5268 -0.3151
   72MOL    C8922951   7.244   6.113   6.753 -0.2971  0.4895 -0.4332
   72MOL    C9022952   7.045   5.940   6.898  0.6345  1.3527 -0.1350
   72MOL    H9122953   7.024   6.121   7.018  0.5917  1.3873  0.2076
   72MOL    H9222954   7.056   6.340   6.933  1.0594  1.2006 -0.2600
   72MOL    H9322955   7.139   6.487   6.747 -0.3395  0.4185 -1.8325
   72MOL    H9422956   7.361   6.161   6.576  1.0072 -1.4328  0.3276
   72MOL    H9522957   7.273   6.009   6.748 -0.8521  0.3671 -1.1556
   72MOL    H9622958   7.125   5.894   6.840 -0.3231 -0.3293 -0.1367
   72MOL    H9722959   7.032   5.859   6.969  1.2681  0.1017 -1.4144
   72MOL    C9822960   6.914   5.955   6.812 -0.3589  0.6111  0.0178
   72MOL    C9922961   6.888   5.834   6.727  0.0711  0.4693  0.5520
   72MOL   C10022962   6.870   5.705   6.783 -0.0647 -0.4817 -0.9170
   72MOL   C10122963   6.831   5.594   6.704  0.2260 -0.6515 -0.1394
   72MOL   C10222964   6.799   5.619   6.573  0.2530 -0.2523  0.4922
   72MOL   F10322965   6.743   5.525   6.495  0.4677  0.1880  0.3219
   72MOL   C10422966   6.813   5.744   6.517  0.8589 -0.5130  0.0312
   72MOL   C10522967   6.869   5.851   6.594 -0.4224 -0.2736 -0.0258
   72MOL   C10622968   6.796   5.987   6.910 -0.5196 -0.4473  0.3304
   72MOL   H10722969   6.922   6.039   6.743  1.6027 -0.5731 -1.2421
   72MOL   H10822970   6.869   5.701   6.891 -1.0069  3.3013 -0.7136
   72MOL   H10922971   6.825   5.495   6.747 -1.0306 -0.1195  0.9448
   72MOL   H11022972   6.772   5.753   6.417 -2.2089  1.4446  1.3749
   72MOL   H11122973   6.876   5.951   6.554 -0.0795 -0.1762  0.2696
   72MOL   H11222974   6.741   5.895   6.927 -1.4373 -0.0529 -0.4226
   72MOL   H11322975   6.836   6.036   6.999 -1.2443 -1.6000  1.2937
   72MOL   C11422976   6.698   6.088   6.853 -0.0431 -0.4923  0.0267
   72MOL   C11522977   6.578   6.097   6.944  0.8294 -0.7257  0.1785
   72MOL   C11622978   6.467   6.011   6.925  0.4724 -0.1947  0.2597
   72MOL   C11722979   6.363   5.999   7.026  0.1558  0.3559  0.3077
   72MOL   C11822980   6.369   6.081   7.136 -0.9166 -0.1596  0.2933
   72MOL   F11922981   6.270   6.086   7.225  0.1160 -0.4645 -0.1788
   72MOL   C12022982   6.489   6.158   7.156  0.2819 -0.1075  0.2289
   72MOL   C12122983   6.589   6.173   7.060  0.2230 -0.0692  0.9134
   72MOL   C12222984   6.762   6.233   6.840  0.5834 -0.1307  0.2914
   72MOL   H12322985   6.646   6.054   6.764 -1.4584 -0.6278  0.8942
   72MOL   H12422986   6.465   5.953   6.835  1.4683 -0.7719  0.6008
   72MOL   H12522987   6.275   5.944   6.994  0.1066  1.1153 -0.8813
   72MOL   H12622988   6.486   6.214   7.248  1.9524  2.0535 -0.9835
   72MOL   H12722989   6.671   6.237   7.090  0.3431  0.2822 -0.1330
   72MOL   H12822990   6.815   6.264   6.930  4.2503 -1.5621 -1.2557
   72MOL   H12922991   6.846   6.238   6.770  1.6807 -0.3426  1.5677
   72MOL   C13022992   6.672   6.345   6.773 -0.1188 -0.0670 -0.7546
   72MOL   C13122993   6.736   6.485   6.788  0.0700  0.4136 -0.5017
   72MOL   C13222994   6.863   6.517   6.734 -0.5034 -0.0633 -0.2929
   72MOL   C13322995   6.929   6.639   6.757  0.7548 -0.0806 -0.3305
   72MOL   C13422996   6.863   6.738   6.832 -0.1222 -0.2559 -0.8807
   72MOL   F13522997   6.915   6.859   6.850 -0.6749  0.4334 -0.6904
   72MOL   C13622998   6.735   6.712   6.885 -0.3967  0.4286  0.4820
   72MOL   C13722999   6.675   6.586   6.863  0.3016 -0.1409 -0.2906
   72MOL   C13823000   6.640   6.310   6.622  0.0094  0.2238 -0.6926
   72MOL   H13923001   6.575   6.351   6.823 -1.0582  1.3697 -2.6904
   72MOL   H14023002   6.909   6.438   6.677 -1.9683 -2.0744  1.2558
   72MOL   H14123003   7.028   6.666   6.723  0.7112 -1.3866 -1.5392
   72MOL   H14223004   6.692   6.786   6.950 -0.2863  0.7838  0.1489
   72MOL   H14323005   6.584   6.578   6.921 -1.0504 -0.1170 -2.3718
   72MOL   H14423006   6.725   6.342   6.562  1.4320  0.0894  1.1995
   72MOL   H14523007   6.618   6.203   6.615 -1.5053  0.5371 -0.8381
   72MOL   C14623008   6.507   6.364   6.565 -0.1540 -0.0614  0.3805
   72MOL   C14723009   6.504   6.516   6.566  0.2246 -0.6260  0.3553
   72MOL   C14823010   6.607   6.579   6.499  0.4439 -1.0408  0.0923
   72MOL   C14923011   6.613   6.720   6.503 -0.0447 -0.1477 -0.0572
   72MOL   C15023012   6.527   6.787   6.593  0.3154  0.3477 -0.7489
   72MOL   F15123013   6.529   6.920   6.610 -0.2225 -0.0892 -0.7995
   72MOL   C15223014   6.418   6.720   6.652  0.5268  0.0331  0.6469
   72MOL   C15323015   6.412   6.583   6.639 -0.4262  0.1494  0.0390
   72MOL   C15423016   6.484   6.303   6.428  0.1158  1.2582  0.2785
   72MOL   H15523017   6.425   6.321   6.622  0.2371  0.7352  1.5685
   72MOL   H15623018   6.683   6.528   6.442  1.7586  3.3073 -2.3047
   72MOL   H15723019   6.702   6.769   6.466  0.5664 -0.4087  1.0259
   72MOL   H15823020   6.357   6.787   6.712  0.3374  1.8619 -1.5232
   72MOL   H15923021   6.330   6.531   6.686  1.2765 -1.0506  1.7934
   72MOL   H16023022   6.555   6.336   6.352  0.3683  1.5931  0.6553
   72MOL   H16123023   6.505   6.196   6.425  2.2490  1.6275  1.1778
   72MOL   C16223024   6.340   6.310   6.367 -0.2777 -0.1654  0.3302
   72MOL   C16323025   6.339   6.238   6.230 -0.4899 -0.1289  0.1584
   72MOL   C16423026   6.362   6.100   6.228 -0.6698 -0.1788  0.5568
   72MOL   C16523027   6.367   6.025   6.102 -0.8001  0.2946  0.7186
   72MOL   C16623028   6.342   6.089   5.979 -0.1614 -0.2564  0.0594
   72MOL   F16723029   6.358   6.020   5.863  0.3468 -0.2936  0.1401
   72MOL   C16823030   6.293   6.223   5.984 -0.5635  0.4505 -0.3731
   72MOL   C16923031   6.302   6.300   6.107  0.3605  0.1265 -0.4202
   72MOL   C17023032   6.223   6.269   6.461  0.0588 -0.4883 -0.2823
   72MOL   H17123033   6.329   6.414   6.336  1.2651 -0.1628 -0.2866
   72MOL   H17223034   6.387   6.053   6.321 -1.6334 -2.0110 -0.0873
   72MOL   H17323035   6.396   5.921   6.110  1.4321  0.7694 -0.5833
   72MOL   H17423036   6.271   6.266   5.888  0.5797  0.0993 -0.8023
   72MOL   H17523037   6.276   6.405   6.102  2.9933  0.7291 -2.8713
   72MOL   H17623038   6.245   6.163   6.478  0.2258 -0.3198  0.5369
   72MOL   H17723039   6.232   6.323   6.555 -0.0244  0.2368 -0.6883
   72MOL   C17823040   6.079   6.298   6.416 -0.1935 -0.7276  0.4827
   72MOL   C17923041   6.023   6.180   6.333 -0.9793  0.2532 -0.7843
   72MOL   C18023042   6.007   6.054   6.402  0.1034 -0.6289  0.3861
   72MOL   C18123043   5.950   5.951   6.331 -0.4030 -0.2449  0.3686
   72MOL   C18223044   5.918   5.967   6.189 -0.8431 -0.1781 -0.1593
   72MOL   F18323045   5.854   5.868   6.130 -0.0396 -0.1001 -0.0994
   72MOL   C18423046   5.943   6.090   6.124  0.0678 -0.0838 -0.6624
   72MOL   C18523047   5.992   6.200   6.201 -0.1992 -0.7027  0.8111
   72MOL   C18623048   5.977   6.342   6.528 -0.2212  0.2200  0.6946
   72MOL   H18723049   6.081   6.376   6.339 -2.1796  0.8339  1.9660
   72MOL   H18823050   6.039   6.032   6.502  1.7219  0.2272  0.0698
   72MOL   H18923051   5.933   5.851   6.369 -3.7783 -0.3868 -1.4255
   72MOL   H19023052   5.922   6.103   6.019  1.3265  0.4447 -0.8610
   72MOL   H19123053   6.007   6.293   6.148 -0.8268 -1.3015 -0.4375
   72MOL   H19223054   5.873   6.335   6.496  0.4249  1.1877 -1.7460
   72MOL   H19323055   5.996   6.276   6.613  2.2977 -0.8978 -0.6614
   72MOL   C19423056   6.000   6.488   6.575 -0.3210  0.0324 -0.4688
   72MOL   C19523057   6.005   6.592   6.464 -0.5710  0.2292 -0.1712
   72MOL   C19623058   5.891   6.620   6.382 -0.2544  0.4361 -0.2207
   72MOL   C19723059   5.897   6.715   6.280 -0.3397 -0.0495 -0.0206
   72MOL   C19823060   6.015   6.785   6.248 -0.0949  0.5439  0.3044
   72MOL   F19923061   6.015   6.886   6.161  0.0766  0.3299  0.1437
   72MOL   C20023062   6.128   6.751   6.319 -0.2214  0.5905 -0.0550
   72MOL   C20123063   6.127   6.651   6.423 -0.0849  0.1514 -0.0335
   72MOL   C20223064   5.897   6.540   6.679 -0.3505 -0.0802 -0.5819
   72MOL   H20323065   6.099   6.478   6.620  0.2616 -0.2154 -1.7912
   72MOL   H20423066   5.799   6.571   6.408  0.2772  0.5936  2.0539
   72MOL   H20523067   5.809   6.747   6.226 -0.1081 -1.4403 -1.2466
   72MOL   H20623068   6.214   6.810   6.292 -0.2324  1.1979  1.1880
   72MOL   H20723069   6.216   6.649   6.485 -0.1852  3.8261  0.3272
   72MOL   H20823070   5.911   6.646   6.703  0.7468 -0.2140 -0.6318
   72MOL   H20923071   5.795   6.537   6.639 -0.8973 -0.4589  0.8155
   72MOL   C21023072   5.909   6.452   6.810  0.6665  0.0452 -0.1184
   72MOL   C21123073   6.055   6.449   6.859  0.1316 -0.6405  0.5765
   72MOL   C21223074   6.124   6.566   6.886  0.6412  0.1626  0.6599
   72MOL   C21323075   6.254   6.569   6.939 -0.1483  0.4503  0.0423
   72MOL   C21423076   6.319   6.447   6.964  0.5515  0.0358  0.4490
   72MOL   F21523077   6.446   6.441   7.007  0.4035 -0.4440  0.0555
   72MOL   C21623078   6.257   6.324   6.927 -0.0945 -0.0977 -0.4532
   72MOL   C21723079   6.128   6.327   6.874  1.0916 -0.2191  0.5249
   72MOL   C21823080   5.808   6.510   6.919  0.3589  0.1968 -0.2688
   72MOL   H21923081   5.873   6.355   6.776 -1.7999  0.2575  1.7205
   72MOL   H22023082   6.074   6.660   6.872  0.9747  0.2135 -0.1775
   72MOL   H22123083   6.311   6.658   6.956 -0.6823  0.5130  1.6000
   72MOL   H22223084   6.291   6.223   6.946  0.2668 -0.1203 -1.1917
   72MOL   H22323085   6.085   6.232   6.847  1.3532 -0.2405  0.1764
   72MOL   H22423086   5.849   6.611   6.933 -1.8166  1.2915 -1.5382
   72MOL   H22523087   5.712   6.516   6.869  0.1922  1.1851  0.1587
   72MOL   C22623088   5.802   6.444   7.061 -0.3028  0.3337 -0.2545
   72MOL   C22723089   5.697   6.508   7.147 -0.0320 -0.1173  0.0823
   72MOL   C22823090   5.741   6.570   7.270  0.6909  0.6702 -0.4798
   72MOL   C22923091   5.643   6.630   7.353  0.2893  0.0740  0.2603
   72MOL   C23023092   5.508   6.633   7.316  0.5023  0.2654  0.1638
   72MOL   F23123093   5.414   6.667   7.407  0.3750  0.3537 -0.2982
   72MOL   C23223094   5.467   6.577   7.192 -0.0648 -0.0264  0.3071
   72MOL   C23323095   5.565   6.513   7.109 -0.0858  0.0361  0.2644
   72MOL   C23423096   5.791   6.288   7.055  0.3549  0.7140  0.1541
   72MOL   H23523097   5.903   6.470   7.093  0.0641 -0.6405 -0.6181
   72MOL   H23623098   5.841   6.574   7.311  0.0377 -0.0545  1.2332
   72MOL   H23723099   5.681   6.666   7.448  1.3548 -1.1342  0.2989
   72MOL   H23823100   5.363   6.574   7.165 -0.5217 -1.1497  2.1115
   72MOL   H23923101   5.536   6.481   7.010  0.1715  0.8452 -0.0792
   72MOL   H24023102   5.691   6.262   7.021 -0.1133  0.7649  1.4611
   72MOL   H24123103   5.840   6.228   6.979 -1.2748  0.3893 -0.6615
   72MOL   C24223104   5.825   6.213   7.188 -0.2499 -0.0146  0.1779
   72MOL   C24323105   5.780   6.066   7.178  0.4080  0.5092  0.4093
   72MOL   C24423106   5.855   5.968   7.107 -0.2274  0.1821  0.2515
   72MOL   C24523107   5.804   5.839   7.088  0.6510  0.3668 -0.3559
   72MOL   C24623108   5.674   5.809   7.140  0.4363 -0.9418  0.3456
   72MOL   F24723109   5.616   5.692   7.102  0.1819  0.0833  0.1424
   72MOL   C24823110   5.604   5.906   7.214 -0.2943  0.8236  0.4075
   72MOL   C24923111   5.660   6.034   7.232 -0.1879 -0.3653 -0.3161
   72MOL   C25023112   5.967   6.232   7.235 -0.5560  1.1028  0.7395
   72MOL   H25123113   5.755   6.262   7.256  0.4292 -0.4965  1.2511
   72MOL   H25223114   5.949   5.993   7.061  0.0744  2.2481  1.9566
   72MOL   H25323115   5.870   5.773   7.033  1.7780  1.9681 -0.9364
   72MOL   H25423116   5.511   5.876   7.259 -0.5381  2.3025  0.9247
   72MOL   H25523117   5.612   6.106   7.296 -1.4174 -0.5333 -1.0299
   72MOL   H25623118   6.023   6.139   7.223 -0.3167  1.4512 -0.9951
   72MOL   H25723119   6.024   6.288   7.160 -0.3032  1.3985  1.1529
   72MOL   C25823120   5.968   6.282   7.381  0.4548 -0.1971  0.0178
   72MOL   C25923121   5.870   6.203   7.478  0.5231  0.3742 -0.0347
   72MOL   C26023122   5.896   6.066   7.499  0.6259  0.3492 -0.2280
   72MOL   C26123123   5.814   5.988   7.579 -0.0340  0.2191  0.6034
   72MOL   C26223124   5.704   6.051   7.643  0.3580  0.1656 -0.1506
   72MOL   F26323125   5.629   5.978   7.728  0.2251  0.4555 -0.1101
   72MOL   C26423126   5.683   6.187   7.627  0.0511 -0.2905  0.0251
   72MOL   C26523127   5.763   6.269   7.542  0.1743  0.1703 -0.2526
   72MOL   C26623128   6.110   6.315   7.442  0.1830 -0.6831 -0.2724
   72MOL   H26723129   5.924   6.381   7.367 -0.0995 -0.0567  2.5937
   72MOL   H26823130   5.983   6.022   7.454 -0.3751 -0.4166 -1.4504
   72MOL   H26923131   5.843   5.886   7.601 -0.7198 -0.5670 -1.9354
   72MOL   H27023132   5.612   6.230   7.696  2.2719  0.7638  1.7366
   72MOL   H27123133   5.745   6.374   7.527  0.0477 -0.0864 -1.9670
   72MOL   H27223134   6.095   6.327   7.550  1.4521 -0.4242 -0.1172
   72MOL   H27323135   6.166   6.222   7.443 -0.6619 -1.1968  0.2972
   72MOL   C27423136   6.191   6.432   7.378  0.3422 -0.0508  0.4510
   72MOL   C27523137   6.103   6.557   7.381 -0.1386 -0.8538  0.6383
   72MOL   C27623138   6.053   6.605   7.499  0.5924 -0.6510  0.2364
   72MOL   C27723139   5.979   6.726   7.506 -0.1049 -0.3463 -0.0309
   72MOL   C27823140   5.958   6.799   7.387 -0.6700 -0.1083  0.1445
   72MOL   F27923141   5.885   6.912   7.395 -0.1632  0.6856 -0.1910
   72MOL   C28023142   6.013   6.755   7.266 -0.6748 -0.7000 -0.3726
   72MOL   C28123143   6.085   6.631   7.263 -0.0742 -0.2855  0.5652
   72MOL   C28223144   6.314   6.452   7.470  0.2297  0.0722  0.1215
   72MOL   H28323145   6.213   6.405   7.275 -0.2119  2.0655 -0.2515
   72MOL   H28423146   6.081   6.559   7.593  0.3028  0.8845  1.0931
   72MOL   H28523147   5.950   6.762   7.604  0.1584  0.0435 -0.0979
   72MOL   H28623148   6.006   6.827   7.186  0.6844 -0.1555 -0.0212
   72MOL   H28723149   6.116   6.598   7.165  0.1504  0.0621  0.5207
   72MOL   H28823150   6.281   6.455   7.574  0.2107 -0.5782  0.1352
   72MOL   H28923151   6.385   6.371   7.481  1.1521  0.9952  1.1098
   72MOL   C29023152   6.396   6.576   7.435  1.1379  0.1629 -0.5435
   72MOL   C29123153   6.405   6.674   7.550 -0.4375 -0.7818  0.0145
   72MOL   C29223154   6.317   6.773   7.553  0.8767 -0.1949  0.3250
   72MOL   C29323155   6.323   6.855   7.664 -0.7903 -1.1525 -0.3790
   72MOL   C29423156   6.397   6.820   7.784 -0.4881 -0.0130  0.5323
   72MOL   F29523157   6.380   6.899   7.894 -0.6213 -0.0012  0.2172
   72MOL   C29623158   6.485   6.717   7.778 -0.5161  0.3678 -0.0778
   72MOL   C29723159   6.488   6.641   7.657 -0.2835 -0.0344 -0.4995
   72MOL   C29823160   6.526   6.544   7.362 -0.8506  0.3676 -0.4697
   72MOL   H29923161   6.345   6.630   7.355 -0.6811  0.5717  0.8624
   72MOL   H30023162   6.257   6.796   7.466  0.9576  1.7837  0.7559
   72MOL   H30123163   6.248   6.933   7.669  1.5688  1.3236 -2.3423
   72MOL   H30223164   6.554   6.699   7.859 -0.4623 -1.0097 -0.4088
   72MOL   H30323165   6.557   6.559   7.650 -0.6858 -0.2914 -1.5789
   72MOL   H30423166   6.589   6.484   7.428 -2.1591 -2.1446 -1.4124
   72MOL   H30523167   6.498   6.481   7.277 -1.9862  0.5065 -0.1983
   72MOL   C30623168   6.598   6.667   7.296 -0.1388  0.0783 -0.1675
   72MOL   C30723169   6.733   6.629   7.238  0.0479  0.2092  0.1692
   72MOL   C30823170   6.769   6.497   7.217 -0.8079  0.3748  0.0228
   72MOL   C30923171   6.896   6.465   7.157 -0.3887  0.4849  1.2958
   72MOL   C31023172   6.983   6.570   7.118 -0.2383 -0.3173 -0.6033
   72MOL   F31123173   7.098   6.548   7.055 -0.5518  0.7851 -0.0734
   72MOL   C31223174   6.944   6.705   7.130  0.1555 -0.1621  0.0519
   72MOL   C31323175   6.817   6.733   7.194 -0.1956  0.1026  0.7489
   72MOL   C31423176   6.522   6.744   7.184  0.3839 -0.0505 -0.0082
   72MOL   H31523177   6.629   6.740   7.372  0.4281  1.3996 -1.6441
   72MOL   H31623178   6.706   6.415   7.247 -1.4198  1.3699  1.4858
   72MOL   H31723179   6.937   6.365   7.148  3.1695  1.8369  1.6191
   72MOL   H31823180   7.000   6.779   7.074  2.8483 -1.5884  0.7598
   72MOL   H31923181   6.787   6.836   7.199  0.2636  0.4333 -2.2854
   72MOL   H32023182   6.483   6.676   7.108  1.7730 -1.2451  0.3214
   72MOL   H32123183   6.439   6.804   7.220  1.1352 -0.2605  2.1444
   72MOL   H32223184   6.581   6.816   7.128  0.6414  1.0734  1.6767
   73MOL     C123185   7.727   5.660   3.588  0.3237  0.5521 -0.5850
   73MOL     C223186   7.720   5.661   3.438  0.1164 -0.5147 -0.0584
   73MOL     C323187   7.839   5.686   3.362 -0.6338  0.7871 -0.0834
   73MOL     C423188   7.833   5.696   3.226 -0.5512 -0.6538 -0.5845
   73MOL     C523189   7.711   5.692   3.159 -0.9355  0.0386  0.4706
   73MOL     F623190   7.706   5.701   3.025  0.7363 -0.4084 -0.2735
   73MOL     C723191   7.593   5.671   3.231  0.4877 -0.5669 -0.3435
   73MOL     C823192   7.595   5.661   3.373  0.2969 -0.1035 -0.3767
   73MOL     C923193   7.621   5.563   3.651  0.4621 -0.2951  0.7707
   73MOL    H1023194   7.707   5.759   3.628  0.1288  0.1766  0.2515
   73MOL    H1123195   7.934   5.706   3.410  0.0804  0.9226 -1.5119
   73MOL    H1223196   7.920   5.722   3.166 -0.8026 -0.3423 -0.8173
   73MOL    H1323197   7.506   5.657   3.168 -0.1407 -0.3796  0.4820
   73MOL    H1423198   7.497   5.648   3.416 -0.5710  1.9247 -1.6264
   73MOL    H1523199   7.521   5.604   3.645  0.9719  0.8125 -0.4282
   73MOL    H1623200   7.612   5.478   3.583  1.9055  0.7726 -0.8010
   73MOL    H1723201   7.832   5.634   3.605  0.0826 -0.7248 -0.9551
   73MOL    C1823202   7.661   5.523   3.787  0.4751 -0.0129  0.0032
   73MOL    C1923203   7.680   5.634   3.892  0.0618 -0.3872  0.0933
   73MOL    C2023204   7.563   5.707   3.935 -0.5307 -0.4611 -0.0803
   73MOL    C2123205   7.577   5.791   4.044 -0.7420 -0.0043 -0.0032
   73MOL    C2223206   7.703   5.826   4.100  0.6950  0.2684 -0.1401
   73MOL    F2323207   7.717   5.913   4.208  0.2665  0.5425  0.5934
   73MOL    C2423208   7.819   5.757   4.057  0.0549 -0.2091  0.0394
   73MOL    C2523209   7.804   5.663   3.952 -0.0469  1.1862 -0.1747
   73MOL    C2623210   7.572   5.410   3.843 -0.4070 -0.5565  0.4324
   73MOL    H2723211   7.754   5.468   3.772 -1.2099 -2.4847 -1.9665
   73MOL    H2823212   7.465   5.690   3.892 -0.8730  0.1703  0.4515
   73MOL    H2923213   7.487   5.838   4.081  0.1640  1.0486  0.9036
   73MOL    H3023214   7.918   5.772   4.096  0.6438 -1.0419 -1.1293
   73MOL    H3123215   7.892   5.605   3.928 -0.0406  1.6844 -1.4377
   73MOL    H3223216   7.476   5.463   3.844  0.3380  0.8190  1.2790
   73MOL    H3323217   7.581   5.335   3.764  2.0109  1.2224 -1.0590
   73MOL    C3423218   7.582   5.349   3.981  0.7567  0.1266 -0.3207
   73MOL    C3523219   7.461   5.275   4.026 -0.3350 -1.0246  0.3454
   73MOL    C3623220   7.437   5.140   4.004  0.1755  0.1229  0.4327
   73MOL    C3723221   7.306   5.077   4.020 -0.0289 -0.1530  0.0050
   73MOL    C3823222   7.207   5.158   4.080  0.7977 -0.9314 -0.5221
   73MOL    F3923223   7.087   5.101   4.089 -0.3847 -0.2032 -0.0632
   73MOL    C4023224   7.230   5.295   4.113  0.3366  0.3807  0.2071
   73MOL    C4123225   7.355   5.354   4.081  0.3959  0.0459  0.3076
   73MOL    C4223226   7.708   5.282   4.020 -0.2548 -0.4115  0.4649
   73MOL    H4323227   7.581   5.435   4.047 -0.0600 -0.8049  0.9031
   73MOL    H4423228   7.509   5.087   3.944  0.1204  1.6581 -1.0188
   73MOL    H4523229   7.290   4.972   3.999  0.3933 -0.1026 -0.5783
   73MOL    H4623230   7.142   5.346   4.148 -0.0918  0.3972 -0.8861
   73MOL    H4723231   7.365   5.461   4.090 -0.6799  0.0667  1.3669
   73MOL    H4823232   7.704   5.186   3.967  0.6562  1.0288 -2.3204
   73MOL    H4923233   7.793   5.335   3.979 -0.3123 -1.2857 -0.8266
   73MOL    C5023234   7.734   5.260   4.171  0.9804  0.1088  0.2946
   73MOL    C5123235   7.834   5.145   4.193 -0.3997  0.1766 -0.3521
   73MOL    C5223236   7.978   5.162   4.166  0.1315 -0.1297  0.2337
   73MOL    C5323237   8.065   5.055   4.203 -0.1306  0.4463 -0.4346
   73MOL    C5423238   8.004   4.939   4.256 -0.5519  0.1432 -0.3974
   73MOL    F5523239   8.077   4.835   4.294 -0.1489 -0.1917  0.1216
   73MOL    C5623240   7.865   4.923   4.285  0.6106  0.8318  0.6035
   73MOL    C5723241   7.783   5.031   4.250  0.5224  0.3917  0.4442
   73MOL    C5823242   7.769   5.387   4.248  0.5710 -0.0036  0.0798
   73MOL    H5923243   7.638   5.224   4.206  0.2602  0.9345 -0.7931
   73MOL    H6023244   8.029   5.247   4.124  0.3173 -1.1217 -1.5702
   73MOL    H6123245   8.172   5.060   4.195 -0.1223 -0.6517 -1.2006
   73MOL    H6223246   7.828   4.832   4.330  1.4650  0.8892  1.4414
   73MOL    H6323247   7.678   5.021   4.270  0.4867  1.8508  1.0060
   73MOL    H6423248   7.875   5.414   4.241  0.7312 -0.7743 -0.6232
   73MOL    H6523249   7.717   5.473   4.206 -0.1443  0.3188  1.6197
   73MOL    C6623250   7.711   5.386   4.394 -0.4490  0.2583  0.1349
   73MOL    C6723251   7.777   5.495   4.485  0.3631 -0.2004 -0.6822
   73MOL    C6823252   7.750   5.632   4.461  0.1957 -0.0787  0.0047
   73MOL    C6923253   7.801   5.736   4.544  0.2133  0.2531  0.1906
   73MOL    C7023254   7.880   5.699   4.650  0.5066  0.0160 -0.0293
   73MOL    F7123255   7.923   5.803   4.725 -0.0016 -0.1901  0.4209
   73MOL    C7223256   7.904   5.565   4.678  0.2657 -0.1650 -0.0338
   73MOL    C7323257   7.855   5.464   4.595 -0.0004  0.0625 -0.0427
   73MOL    C7423258   7.561   5.389   4.400 -0.1630  0.2630  0.1630
   73MOL    H7523259   7.761   5.296   4.427  0.5512  1.7062  2.7039
   73MOL    H7623260   7.688   5.662   4.378 -1.6653 -1.4309  0.8732
   73MOL    H7723261   7.770   5.839   4.534 -0.4088  0.1427  0.9562
   73MOL    H7823262   7.965   5.538   4.763 -0.4364 -1.3919  0.0887
   73MOL    H7923263   7.884   5.360   4.607 -1.0706 -0.4738 -1.8504
   73MOL    H8023264   7.511   5.485   4.413 -0.5881  0.1369 -0.5031
   73MOL    H8123265   7.510   5.364   4.307 -1.9036  0.0712  1.1461
   73MOL    C8223266   7.510   5.286   4.506  0.4424 -0.1294  0.0042
   73MOL    C8323267   7.526   5.340   4.648 -0.1516  0.4657 -0.2712
   73MOL    C8423268   7.618   5.273   4.737  0.2874  0.1559  0.1552
   73MOL    C8523269   7.632   5.327   4.871  0.6450 -0.0800  0.1729
   73MOL    C8623270   7.569   5.440   4.911  0.0611  0.1586  0.4580
   73MOL    F8723271   7.605   5.499   5.031 -0.4704  0.4947 -0.0008
   73MOL    C8823272   7.494   5.508   4.819 -0.3152 -0.4012 -0.4736
   73MOL    C8923273   7.468   5.464   4.686  0.0226  0.5930  0.4851
   73MOL    C9023274   7.356   5.265   4.474  0.4443  0.2701 -0.3620
   73MOL    H9123275   7.568   5.195   4.489 -1.7133 -2.1369  2.9765
   73MOL    H9223276   7.681   5.188   4.714  1.6670  0.8139  1.3963
   73MOL    H9323277   7.701   5.284   4.942  1.5783 -1.1702 -1.3466
   73MOL    H9423278   7.460   5.608   4.842  0.5755 -0.7539  2.7135
   73MOL    H9523279   7.412   5.527   4.618 -0.9123 -0.9438 -0.2084
   73MOL    H9623280   7.330   5.367   4.444 -1.2580  0.0946  0.4812
   73MOL    H9723281   7.356   5.207   4.382  1.2484  2.4971 -1.8159
   73MOL    C9823282   7.249   5.231   4.583  0.4436  0.3806  0.1276
   73MOL    C9923283   7.110   5.252   4.517 -0.6035  0.0256  0.4562
   73MOL   C10023284   7.018   5.350   4.574 -1.5523  0.4961  0.7243
   73MOL   C10123285   6.892   5.363   4.515 -0.4781  0.4139 -0.1488
   73MOL   C10223286   6.858   5.295   4.394  1.0929  0.2353 -0.1789
   73MOL   F10323287   6.728   5.295   4.336  0.1209  0.2247 -0.2948
   73MOL   C10423288   6.948   5.203   4.343  0.0347  0.0569  0.1042
   73MOL   C10523289   7.074   5.187   4.402  0.6222 -0.5444  0.1258
   73MOL   C10623290   7.269   5.088   4.637  0.4797  0.3965 -0.1208
   73MOL   H10723291   7.269   5.302   4.663 -1.3022  1.1935 -0.1366
   73MOL   H10823292   7.046   5.409   4.660 -0.9289  0.1553  0.7563
   73MOL   H10923293   6.820   5.432   4.558  0.0414  1.1433 -0.4343
   73MOL   H11023294   6.915   5.145   4.258 -0.5679  2.0568 -1.0453
   73MOL   H11123295   7.142   5.116   4.356 -1.2182 -1.0007 -2.0119
   73MOL   H11223296   7.284   5.012   4.560  3.2689 -0.8927  1.6227
   73MOL   H11323297   7.368   5.091   4.682  0.8926  1.9265 -1.1029
   73MOL   C11423298   7.158   5.052   4.747  0.7125 -0.4132  0.3176
   73MOL   C11523299   7.026   5.008   4.684 -0.0062 -0.9532 -0.6845
   73MOL   C11623300   7.030   4.903   4.588  0.4121  0.2534 -0.0539
   73MOL   C11723301   6.901   4.859   4.543  0.2700  0.3135 -0.2617
   73MOL   C11823302   6.778   4.921   4.579 -0.3313  0.7578 -0.2120
   73MOL   F11923303   6.661   4.882   4.528 -0.2169 -0.1116  0.0221
   73MOL   C12023304   6.782   5.008   4.686 -0.3458  0.0199  0.5857
   73MOL   C12123305   6.904   5.058   4.743 -0.6417 -0.9680  0.3882
   73MOL   C12223306   7.199   4.933   4.837 -0.0170  0.1385  0.1708
   73MOL   H12323307   7.142   5.142   4.806 -1.5488  0.9928 -2.3246
   73MOL   H12423308   7.113   4.843   4.554  0.4914 -0.2800  1.0337
   73MOL   H12523309   6.896   4.783   4.466  0.4718  0.9342 -0.8890
   73MOL   H12623310   6.688   5.056   4.706 -1.5721 -2.5311  1.1687
   73MOL   H12723311   6.910   5.127   4.826 -2.4585 -2.5947  1.9021
   73MOL   H12823312   7.105   4.903   4.882 -0.0951  1.1805  0.7034
   73MOL   H12923313   7.237   4.846   4.783 -0.1954  1.0094 -1.4023
   73MOL   C13023314   7.302   4.964   4.952  0.3612 -0.1681  0.6887
   73MOL   C13123315   7.260   5.082   5.037  1.0368 -0.4946 -0.0251
   73MOL   C13223316   7.138   5.087   5.100  0.5427  0.4199  0.4415
   73MOL   C13323317   7.093   5.203   5.169 -0.2186  0.0957 -0.9930
   73MOL   C13423318   7.180   5.311   5.190 -0.4272 -0.8314 -0.3449
   73MOL   F13523319   7.145   5.420   5.266 -0.4826 -0.1977 -0.0054
   73MOL   C13623320   7.313   5.302   5.139 -0.5286 -0.5917 -0.2532
   73MOL   C13723321   7.353   5.188   5.071 -0.1392  0.2025  0.0770
   73MOL   C13823322   7.325   4.834   5.027  0.6175 -0.1833  0.0567
   73MOL   H13923323   7.387   4.979   4.885  0.3555  0.9191  0.9196
   73MOL   H14023324   7.079   4.996   5.096  2.7896 -1.1097  1.1169
   73MOL   H14123325   6.995   5.194   5.212 -0.7646 -1.2935 -2.4489
   73MOL   H14223326   7.384   5.382   5.158 -0.4833 -0.9964  1.3102
   73MOL   H14323327   7.452   5.181   5.027 -0.3898 -3.2923 -0.0656
   73MOL   H14423328   7.243   4.812   5.095  0.6977  0.3567  0.3394
   73MOL   H14523329   7.321   4.758   4.950  1.3059 -1.1810  0.9880
   73MOL   C14623330   7.462   4.817   5.102  0.1270 -0.4264  0.2482
   73MOL   C14723331   7.447   4.854   5.252 -0.1849  0.0731 -0.1269
   73MOL   C14823332   7.514   4.968   5.306 -0.1285 -0.3800  0.4747
   73MOL   C14923333   7.504   4.985   5.445 -0.9548  0.1106  0.6894
   73MOL   C15023334   7.430   4.905   5.530 -0.3202 -0.0862 -0.0138
   73MOL   F15123335   7.437   4.926   5.663  0.6823  0.6905  0.1432
   73MOL   C15223336   7.354   4.797   5.478  0.2700 -0.4177 -0.3628
   73MOL   C15323337   7.369   4.771   5.335 -0.1673 -0.0838 -0.1886
   73MOL   C15423338   7.532   4.681   5.077  0.7178 -0.1378 -0.3704
   73MOL   H15523339   7.531   4.886   5.053 -0.8293  0.6048  0.3300
   73MOL   H15623340   7.569   5.033   5.240 -0.6647 -2.2965 -1.9204
   73MOL   H15723341   7.560   5.060   5.499  0.3416 -0.6774  0.4722
   73MOL   H15823342   7.307   4.730   5.548  2.1758 -3.3428 -1.7555
   73MOL   H15923343   7.323   4.686   5.287  1.7069 -1.9083  1.1531
   73MOL   H16023344   7.625   4.706   5.127  0.1320 -0.6476  1.0018
   73MOL   H16123345   7.469   4.612   5.134  0.5297  0.7012  0.4410
   73MOL   C16223346   7.556   4.623   4.932  0.3225  0.2221  0.6929
   73MOL   C16323347   7.615   4.725   4.830 -0.2569 -0.1906 -0.6091
   73MOL   C16423348   7.553   4.746   4.707  0.2575  0.2765  0.1792
   73MOL   C16523349   7.604   4.844   4.620  0.0365  0.2493  0.0411
   73MOL   C16623350   7.715   4.924   4.657 -0.1982  0.0743 -0.0808
   73MOL   F16723351   7.751   5.029   4.577 -0.2612 -0.4180  0.0451
   73MOL   C16823352   7.778   4.896   4.781 -0.3743 -0.4778  0.0392
   73MOL   C16923353   7.728   4.800   4.871 -0.3818 -0.8964  0.5298
   73MOL   C17023354   7.625   4.482   4.925  0.1739 -0.5689 -0.5517
   73MOL   H17123355   7.455   4.597   4.902 -0.3916  3.0973  0.4402
   73MOL   H17223356   7.467   4.691   4.671  1.0005  0.1638 -1.5023
   73MOL   H17323357   7.550   4.869   4.530  1.8955  2.5590 -0.4805
   73MOL   H17423358   7.874   4.944   4.796  0.3532 -1.5933 -0.9978
   73MOL   H17523359   7.767   4.789   4.972  1.3672  0.0808 -0.0229
   73MOL   H17623360   7.666   4.479   4.824  1.4598  2.0179 -0.1374
   73MOL   H17723361   7.716   4.492   4.984 -0.0704 -0.7436 -0.1440
   73MOL   C17823362   7.533   4.358   4.969 -0.3108  0.0538  0.1513
   73MOL   C17923363   7.407   4.352   4.882 -0.2265  1.1133 -0.2896
   73MOL   C18023364   7.416   4.348   4.742 -0.5683 -0.1270 -0.0561
   73MOL   C18123365   7.300   4.332   4.659  0.4797  1.3411 -0.2066
   73MOL   C18223366   7.179   4.323   4.725 -0.2095  0.1978 -0.6309
   73MOL   F18323367   7.072   4.316   4.651  0.1902 -0.0976 -0.0167
   73MOL   C18423368   7.169   4.335   4.864 -0.3753 -0.8730  0.5364
   73MOL   C18523369   7.284   4.354   4.949 -0.3797  0.4995  0.1209
   73MOL   C18623370   7.611   4.226   4.956 -0.1884 -0.2264 -0.7696
   73MOL   H18723371   7.492   4.369   5.069 -0.4937 -1.9727  0.3044
   73MOL   H18823372   7.512   4.365   4.694 -0.3914  3.7372  1.4698
   73MOL   H18923373   7.304   4.333   4.551 -1.8291 -0.4736 -0.3443
   73MOL   H19023374   7.067   4.337   4.898 -0.7754  1.0781 -0.7202
   73MOL   H19123375   7.285   4.351   5.056  0.5420  4.1121  0.2660
   73MOL   H19223376   7.653   4.209   4.857 -0.4343  2.5640 -1.3922
   73MOL   H19323377   7.697   4.232   5.023 -0.1990 -1.2051 -0.6632
   73MOL   C19423378   7.526   4.113   5.025 -0.1455 -0.0845  0.5507
   73MOL   C19523379   7.504   4.006   4.923  0.2475  0.7156  0.0123
   73MOL   C19623380   7.612   3.932   4.874 -0.0019 -0.6175 -0.4930
   73MOL   C19723381   7.588   3.834   4.773  0.0117 -0.3683  0.4120
   73MOL   C19823382   7.462   3.813   4.724 -0.3979  0.5443  0.1061
   73MOL   F19923383   7.449   3.717   4.633 -0.5213  0.1907  0.6366
   73MOL   C20023384   7.358   3.885   4.775 -0.2030 -0.1328 -0.3175
   73MOL   C20123385   7.378   3.978   4.872 -0.1841 -0.5399  0.0203
   73MOL   C20223386   7.599   4.055   5.156  0.4792  0.2240 -0.0152
   73MOL   H20323387   7.430   4.153   5.059 -0.0466 -0.3491  1.1483
   73MOL   H20423388   7.715   3.958   4.897 -0.8880  1.4557  1.3447
   73MOL   H20523389   7.672   3.774   4.741  1.4455  1.2140  1.1066
   73MOL   H20623390   7.263   3.868   4.728 -0.1108  0.9255 -0.8868
   73MOL   H20723391   7.293   4.039   4.902  1.9314  2.9483 -0.8012
   73MOL   H20823392   7.563   3.959   5.193  1.3893  0.1936  0.8199
   73MOL   H20923393   7.702   4.041   5.123  0.8748 -0.1405  1.3433
   73MOL   C21023394   7.594   4.143   5.283 -0.5571  0.0144  0.1015
   73MOL   C21123395   7.455   4.198   5.320  0.0069  0.9406  0.1775
   73MOL   C21223396   7.423   4.337   5.318 -0.4548  0.2318  0.3688
   73MOL   C21323397   7.295   4.383   5.349  0.2857  0.5326  0.3433
   73MOL   C21423398   7.195   4.290   5.379 -0.3033 -0.1244  0.5063
   73MOL   F21523399   7.079   4.339   5.423  0.0293 -0.1536 -0.2396
   73MOL   C21623400   7.226   4.148   5.391 -0.4150  0.2556 -0.1822
   73MOL   C21723401   7.356   4.107   5.354  0.1279  0.2073  0.2046
   73MOL   C21823402   7.658   4.067   5.405 -0.3135 -0.3752  0.4369
   73MOL   H21923403   7.651   4.233   5.262  0.7503 -0.7840  0.1802
   73MOL   H22023404   7.501   4.407   5.293 -2.0481  1.7824 -0.2893
   73MOL   H22123405   7.276   4.489   5.349 -0.4219  0.4079  1.1996
   73MOL   H22223406   7.156   4.071   5.421  0.4418 -0.1255  0.8652
   73MOL   H22323407   7.378   4.001   5.355 -0.1578  0.1470  0.0406
   73MOL   H22423408   7.652   4.139   5.486  2.0983  1.3417 -0.8559
   73MOL   H22523409   7.603   3.975   5.428  0.1339 -1.2628 -1.9458
   73MOL   C22623410   7.809   4.042   5.391  0.0992  0.1989 -0.0181
   73MOL   C22723411   7.892   4.150   5.313 -0.4093 -0.4072  0.6837
   73MOL   C22823412   7.957   4.115   5.191 -0.0410 -0.2136 -0.1962
   73MOL   C22923413   8.033   4.216   5.127  0.5566 -0.0111  0.9467
   73MOL   C23023414   8.050   4.343   5.181 -0.2025 -0.3118 -0.1032
   73MOL   F23123415   8.117   4.441   5.114 -0.0173  0.3237  0.5047
   73MOL   C23223416   7.984   4.376   5.300 -0.1749 -0.1815 -0.5876
   73MOL   C23323417   7.907   4.283   5.367  0.2532  0.5248  0.7298
   73MOL   C23423418   7.870   4.012   5.527 -0.4173  0.2956 -0.2965
   73MOL   H23523419   7.808   3.952   5.330 -1.0711 -0.1449  0.5011
   73MOL   H23623420   7.950   4.021   5.138 -0.0517 -0.9087  1.0269
   73MOL   H23723421   8.076   4.191   5.031 -2.8152 -1.3204 -0.2950
   73MOL   H23823422   8.007   4.473   5.340 -1.1944  0.8381 -2.4151
   73MOL   H23923423   7.851   4.310   5.455 -2.2159  0.8681 -0.8866
   73MOL   H24023424   7.883   4.102   5.587  0.6720 -1.7899  2.7303
   73MOL   H24123425   7.797   3.962   5.591 -1.1811  0.0947 -1.3220
   73MOL   C24223426   8.013   3.948   5.539 -0.4914  0.0893  0.8899
   73MOL   C24323427   8.081   3.966   5.677  0.4017  0.7150 -1.3872
   73MOL   C24423428   8.186   4.055   5.705 -1.0052  0.4820  0.0441
   73MOL   C24523429   0.002   4.081   5.835 -0.4953 -0.4914  0.2018
   73MOL   C24623430   8.183   4.001   5.941 -1.1606 -0.6739 -0.5454
   73MOL   F24723431   8.230   4.019   6.067 -0.1713  0.2023  0.0082
   73MOL   C24823432   8.090   3.900   5.917  0.5128  0.2801  0.3481
   73MOL   C24923433   8.037   3.886   5.787  0.6580  0.0838 -0.2001
   73MOL   C25023434   8.026   3.803   5.484 -0.7278 -0.3888  0.0406
   73MOL   H25123435   8.078   4.006   5.474 -1.9384  1.2266  0.4106
   73MOL   H25223436   0.003   4.111   5.628 -1.9614  2.5472  0.8458
   73MOL   H25323437   0.083   4.152   5.841  0.1861 -1.3796  1.6158
   73MOL   H25423438   8.053   3.844   6.002  0.7431 -1.7196 -0.8415
   73MOL   H25523439   7.955   3.821   5.763  0.9703 -0.5435  0.4188
   73MOL   H25623440   7.955   3.743   5.541 -1.6079 -0.1835 -0.8316
   73MOL   H25723441   7.975   3.804   5.387  0.5029  3.6207 -0.6769
   73MOL   C25823442   8.159   3.716   5.483 -0.0579 -0.6740  0.0140
   73MOL   C25923443   8.113   3.576   5.471  1.1697 -0.8589 -0.6570
   73MOL   C26023444   8.123   3.478   5.578 -0.3721 -0.6602  0.0393
   73MOL   C26123445   8.060   3.351   5.571 -0.2931  0.0718  0.2449
   73MOL   C26223446   7.996   3.318   5.453  0.5367 -0.1568  0.4832
   73MOL   F26323447   7.960   3.191   5.432  0.3373  0.3125 -0.5276
   73MOL   C26423448   7.988   3.411   5.343 -0.3298 -0.5155 -0.1175
   73MOL   C26523449   8.040   3.539   5.354  0.3865 -0.1684  0.1216
   73MOL   C26623450   0.031   3.757   5.380  0.0267  0.0875  0.3110
   73MOL   H26723451   8.213   3.720   5.578  1.6328 -1.3496 -0.8988
   73MOL   H26823452   8.195   3.500   5.655 -0.9471 -1.3366  0.7853
   73MOL   H26923453   8.066   3.272   5.644 -0.8635  0.6956  0.9830
   73MOL   H27023454   7.942   3.376   5.251 -2.0041  2.1138 -0.3286
   73MOL   H27123455   8.030   3.602   5.267  1.2536  0.2817  0.3460
   73MOL   H27223456   0.067   3.659   5.346 -1.6178 -0.7064  0.8009
   73MOL   H27323457   8.219   3.800   5.292 -0.0431 -2.6852 -1.0791
   73MOL   C27423458   0.154   3.836   5.428  0.2839  0.3372  0.3115
   73MOL   C27523459   0.247   3.753   5.516 -0.2392  0.2370 -0.3936
   73MOL   C27623460   0.253   3.768   5.654 -0.2071  0.3535 -0.2654
   73MOL   C27723461   0.328   3.678   5.737 -0.0411  0.1684  0.2705
   73MOL   C27823462   0.407   3.581   5.676 -0.5192  0.3279  0.1700
   73MOL   F27923463   0.480   3.499   5.758 -0.2108  0.3231  0.2128
   73MOL   C28023464   0.409   3.571   5.534  0.3741 -0.2036 -0.5016
   73MOL   C28123465   0.321   3.648   5.456  0.2972  0.4620 -0.3665
   73MOL   C28223466   0.215   3.910   5.307  0.6693 -0.3935  0.2497
   73MOL   H28323467   0.118   3.916   5.492  2.4389  0.4512  1.4370
   73MOL   H28423468   0.202   3.847   5.708 -1.6818 -0.1110 -0.9712
   73MOL   H28523469   0.328   3.695   5.843 -0.2197  0.1831  0.2679
   73MOL   H28623470   0.477   3.497   5.493 -0.1586 -0.1919 -1.4042
   73MOL   H28723471   0.306   3.629   5.350 -0.4584  0.8624 -0.3317
   73MOL   H28823472   0.233   3.833   5.233  0.7856  2.6657 -3.0408
   73MOL   H28923473   0.149   3.983   5.260  1.9950  0.3634 -0.4672
   73MOL   C29023474   0.348   3.989   5.315  0.2566  0.0103  0.0671
   73MOL   C29123475   0.404   4.024   5.176 -0.4714 -0.6907 -0.1557
   73MOL   C29223476   0.521   3.959   5.142  0.0411 -0.8449 -0.4203
   73MOL   C29323477   0.577   3.984   5.010  0.4816  0.2185 -0.7140
   73MOL   C29423478   0.505   4.056   4.920  0.1523  0.0478 -0.0196
   73MOL   F29523479   0.558   4.072   4.802 -0.3161  0.2489  0.0562
   73MOL   C29623480   0.385   4.115   4.956 -0.0314  0.1130 -0.2000
   73MOL   C29723481   0.332   4.097   5.082  0.3281 -0.0608  0.5789
   73MOL   C29823482   0.337   4.118   5.404 -0.4550  1.1197 -0.0864
   73MOL   H29923483   0.424   3.929   5.365  0.3041  2.3742  3.0026
   73MOL   H30023484   0.574   3.900   5.215 -0.4194  2.1806  2.4702
   73MOL   H30123485   0.678   3.952   4.989  0.1197 -0.9916 -0.6316
   73MOL   H30223486   0.320   4.177   4.896 -1.9178 -0.8246  0.8054
   73MOL   H30323487   0.236   4.142   5.104  0.0533  0.0682 -0.8703
   73MOL   H30423488   0.381   4.203   5.351  0.5025  0.9127  0.3628
   73MOL   H30523489   0.236   4.159   5.415  0.3144  3.2452 -0.6219
   73MOL   C30623490   0.384   4.107   5.551 -0.6584 -0.7656  0.1279
   73MOL   C30723491   0.532   4.065   5.563  0.6050 -0.4245 -0.3213
   73MOL   C30823492   0.574   3.960   5.645 -0.4190  0.8869 -0.8406
   73MOL   C30923493   0.711   3.932   5.663  0.3619  0.1426  0.6503
   73MOL   C31023494   0.805   4.011   5.601  0.1590 -0.0310  0.1731
   73MOL   F31123495   0.933   3.984   5.614 -0.2233 -0.2493  0.0462
   73MOL   C31223496   0.763   4.113   5.516 -0.0251 -0.1005  0.3058
   73MOL   C31323497   0.625   4.142   5.496 -0.5783 -0.3787 -1.1308
   73MOL   C31423498   0.349   4.231   5.642 -0.0636  0.8998  0.9519
   73MOL   H31523499   0.322   4.030   5.596 -0.8848 -0.3515  0.5343
   73MOL   H31623500   0.501   3.898   5.694  0.7755 -0.8093 -1.1390
   73MOL   H31723501   0.735   3.841   5.716  0.2043 -0.8377 -0.9440
   73MOL   H31823502   0.835   4.186   5.482 -0.6661  0.1952 -0.4513
   73MOL   H31923503   0.596   4.231   5.442 -2.2786  0.4397  1.0253
   73MOL   H32023504   0.245   4.259   5.625 -0.0357 -1.1617 -3.3020
   73MOL   H32123505   0.372   4.217   5.748 -0.6338 -0.5207  0.9027
   73MOL   H32223506   0.416   4.312   5.614 -0.7143  1.2814  0.4831
   74MOL     C123507   7.767   7.264   0.656 -0.0841 -0.4163 -0.1694
   74MOL     C223508   7.732   7.115   0.673  0.1802 -0.0981  0.3701
   74MOL     C323509   7.618   7.052   0.615 -0.4048  0.1195  0.5243
   74MOL     C423510   7.598   6.914   0.632 -0.8556  0.0219 -0.4873
   74MOL     C523511   7.683   6.845   0.721  0.3673  0.6619 -0.3500
   74MOL     F623512   7.661   6.713   0.753  0.0574 -0.3719 -0.8153
   74MOL     C723513   7.800   6.906   0.768  0.5434  0.7067  0.6171
   74MOL     C823514   7.827   7.041   0.740  0.3639  0.4259  0.2701
   74MOL     C923515   7.644   7.356   0.700 -0.7478 -0.9251  0.1108
   74MOL    H1023516   7.790   7.292   0.553  0.6296  0.8182  0.3209
   74MOL    H1123517   7.547   7.112   0.560  0.2098 -0.1409 -0.5768
   74MOL    H1223518   7.510   6.871   0.586 -0.0016 -0.5658 -1.5758
   74MOL    H1323519   7.872   6.850   0.826  0.5410  0.9375  0.8413
   74MOL    H1423520   7.922   7.081   0.772  1.3482  1.1012 -3.2573
   74MOL    H1523521   7.560   7.328   0.636 -2.5233 -0.4025  2.1283
   74MOL    H1623522   7.616   7.332   0.803  0.7765  2.4398  1.4056
   74MOL    H1723523   7.856   7.289   0.714  1.0671 -0.9202 -1.6559
   74MOL    C1823524   7.666   7.500   0.699 -0.1558  0.1959 -0.1009
   74MOL    C1923525   7.753   7.539   0.576 -0.2414 -0.3560 -0.1819
   74MOL    C2023526   7.893   7.581   0.582 -0.7190  0.2963 -0.6198
   74MOL    C2123527   7.956   7.623   0.465  0.4370 -0.8340  0.2957
   74MOL    C2223528   7.883   7.614   0.338 -0.0176 -0.7946 -0.4363
   74MOL    F2323529   7.957   7.634   0.228 -0.0429 -0.3600  0.2540
   74MOL    C2423530   7.749   7.591   0.327 -0.5400 -0.1184  0.3369
   74MOL    C2523531   7.685   7.552   0.447  0.5175  0.4089  0.3660
   74MOL    C2623532   7.537   7.576   0.729  0.1067 -0.2666 -0.0052
   74MOL    H2723533   7.733   7.518   0.783 -1.2936  2.3375  0.3709
   74MOL    H2823534   7.944   7.593   0.677 -1.7712 -0.7623  0.1005
   74MOL    H2923535   8.063   7.626   0.461  0.3853  1.4632  0.2176
   74MOL    H3023536   7.700   7.600   0.232 -0.2568 -1.0670  0.1007
   74MOL    H3123537   7.583   7.518   0.447  1.1008 -1.5498  3.2198
   74MOL    H3223538   7.537   7.669   0.671  1.9966  0.7222  1.5550
   74MOL    H3323539   7.444   7.532   0.693 -0.3336  1.0797 -0.5658
   74MOL    C3423540   7.519   7.633   0.878  0.0840  0.4923 -0.2009
   74MOL    C3523541   7.406   7.730   0.877 -0.2499 -0.0033  0.0898
   74MOL    C3623542   7.274   7.686   0.879  0.2979  0.0255 -0.3018
   74MOL    C3723543   7.174   7.783   0.848 -0.3092  0.7755  0.7392
   74MOL    C3823544   7.206   7.914   0.812 -0.1758 -0.1624  0.0392
   74MOL    F3923545   7.112   8.001   0.761 -0.0612  0.1963  0.2685
   74MOL    C4023546   7.338   7.955   0.815  0.5725 -0.6803  0.1717
   74MOL    C4123547   7.440   7.862   0.856  0.6056  0.0007 -0.6452
   74MOL    C4223548   7.505   7.527   0.997  0.3170  0.6416  0.3285
   74MOL    H4323549   7.605   7.691   0.910 -1.0702  0.2662  3.5280
   74MOL    H4423550   7.241   7.585   0.896  0.9118 -0.2175 -0.5419
   74MOL    H4523551   7.069   7.757   0.844  0.0751 -0.7818  0.3813
   74MOL    H4623552   7.375   8.054   0.795  0.0690 -0.4897  0.1866
   74MOL    H4723553   7.541   7.901   0.851  0.1914  1.0240 -1.2828
   74MOL    H4823554   7.413   7.470   0.985 -0.0114  0.7743  2.0817
   74MOL    H4923555   7.582   7.451   0.988  0.3311  0.7295 -0.3537
   74MOL    C5023556   7.501   7.590   1.139  0.1321 -0.1287  0.3811
   74MOL    C5123557   7.461   7.480   1.241  0.1688  0.0186 -0.6287
   74MOL    C5223558   7.337   7.472   1.299  0.1086 -0.1523  0.0404
   74MOL    C5323559   7.306   7.368   1.397 -0.4094 -0.0499  0.0228
   74MOL    C5423560   7.403   7.269   1.431  0.5248 -0.4959  0.0325
   74MOL    F5523561   7.374   7.155   1.498 -0.0974 -0.7846 -0.5367
   74MOL    C5623562   7.533   7.289   1.381  0.2590  0.3054 -0.2255
   74MOL    C5723563   7.561   7.385   1.283 -0.5135 -0.8085 -0.2237
   74MOL    C5823564   7.630   7.663   1.173 -0.5245  0.1048  1.1433
   74MOL    H5923565   7.416   7.657   1.134  0.0772 -0.0202  2.3179
   74MOL    H6023566   7.262   7.545   1.271 -1.0348 -1.8411 -1.4731
   74MOL    H6123567   7.206   7.353   1.435  0.0541  0.1490  1.3716
   74MOL    H6223568   7.603   7.213   1.412  1.4382  1.2959 -0.3661
   74MOL    H6323569   7.658   7.393   1.236  0.5520 -0.0450  2.0490
   74MOL    H6423570   7.717   7.599   1.160 -0.7309 -0.8345  3.8415
   74MOL    H6523571   7.646   7.752   1.113  1.6038  0.8971  2.8248
   74MOL    C6623572   7.645   7.699   1.321 -1.2394  0.4304  0.0264
   74MOL    C6723573   7.797   7.692   1.355  1.1792  0.0549 -0.5077
   74MOL    C6823574   7.842   7.597   1.452  1.0041  0.1591 -0.1253
   74MOL    C6923575   7.979   7.575   1.464 -0.3112 -0.3466 -0.1847
   74MOL    C7023576   8.076   7.652   1.389  0.1854  0.3236 -0.2243
   74MOL    F7123577   8.208   7.637   1.406  0.2280 -0.2312  1.0432
   74MOL    C7223578   8.029   7.758   1.314 -0.4162  0.1222  0.4643
   74MOL    C7323579   7.890   7.771   1.285  0.4199 -0.3888 -0.1607
   74MOL    C7423580   7.582   7.836   1.348 -0.8245 -0.0402 -0.4533
   74MOL    H7523581   7.594   7.629   1.387  1.8714 -1.4647  0.5034
   74MOL    H7623582   7.771   7.534   1.504  1.3324  0.4062  0.6233
   74MOL    H7723583   8.014   7.497   1.529  0.0435 -0.6359 -0.7175
   74MOL    H7823584   8.096   7.823   1.260  0.4004 -0.7600  0.4040
   74MOL    H7923585   7.850   7.838   1.210 -1.4656  0.2689  1.3661
   74MOL    H8023586   7.611   7.907   1.270 -2.5043 -0.1931 -1.2402
   74MOL    H8123587   7.477   7.812   1.329 -0.8698  0.1165 -0.4015
   74MOL    C8223588   7.586   7.892   1.493  0.0898 -0.1656  0.0965
   74MOL    C8323589   7.701   7.995   1.514  0.2071 -0.0804  0.2280
   74MOL    C8423590   7.727   8.095   1.416  0.0238 -0.0794  0.2174
   74MOL    C8523591   7.843   8.176   1.432 -0.8896  0.4452 -0.1208
   74MOL    C8623592   7.927   8.157   1.543  0.1910 -0.0874  0.1502
   74MOL    F8723593   8.038   8.225   1.548 -0.1356 -0.0437 -0.2299
   74MOL    C8823594   7.889   8.070   1.645 -0.2679 -0.2879  0.1468
   74MOL    C8923595   7.778   7.985   1.629 -0.5074 -0.8151  0.2874
   74MOL    C9023596   7.459   7.971   1.534  0.3355 -0.2209 -0.3123
   74MOL    H9123597   7.605   7.809   1.561  1.6596 -1.4443 -1.8446
   74MOL    H9223598   7.660   8.105   1.332  1.5500 -0.5496 -1.0815
   74MOL    H9323599   7.860   0.027   1.368 -1.9012  0.7755  0.0430
   74MOL    H9423600   7.960   8.057   1.726  2.4231 -1.2045 -2.2539
   74MOL    H9523601   7.746   7.923   1.712 -0.8461 -1.3397 -0.2331
   74MOL    H9623602   7.486   8.042   1.612  0.2396 -1.2209  0.6417
   74MOL    H9723603   7.425   8.044   1.461  1.2789 -0.4599 -1.0107
   74MOL    C9823604   7.334   7.876   1.569  0.5006 -0.3848 -0.0915
   74MOL    C9923605   7.389   7.777   1.675  0.2325  0.3985  0.4404
   74MOL   C10023606   7.404   7.636   1.641  0.0121  0.1680  0.8343
   74MOL   C10123607   7.451   7.551   1.741 -0.1534 -0.0456  0.2993
   74MOL   C10223608   7.489   7.601   1.866 -0.4446 -0.2940 -0.3959
   74MOL   F10323609   7.536   7.515   1.962  0.2327 -0.0134  0.4438
   74MOL   C10423610   7.472   7.734   1.898 -0.3334 -0.4344  0.6126
   74MOL   C10523611   7.424   7.825   1.800  0.3480  0.3855 -0.1631
   74MOL   C10623612   7.206   7.957   1.619  0.1854 -0.5411  0.6522
   74MOL   H10723613   7.311   7.815   1.482 -3.0925  0.4435  0.2229
   74MOL   H10823614   7.395   7.603   1.538  3.4205 -0.8616  0.7887
   74MOL   H10923615   7.478   7.449   1.717  1.4875 -0.2287  2.7518
   74MOL   H11023616   7.486   7.770   1.999  1.6410 -1.4974  0.7614
   74MOL   H11123617   7.406   7.928   1.827 -0.0751 -0.2093  1.9487
   74MOL   H11223618   7.160   7.880   1.681  0.7793  0.1831  1.9986
   74MOL   H11323619   7.227   8.043   1.681  0.2266 -0.8217  1.0268
   74MOL   C11423620   7.121   7.997   1.498 -0.4330 -0.0709  0.4140
   74MOL   C11523621   7.074   7.877   1.419  0.5021 -0.3801 -0.2384
   74MOL   C11623622   7.125   7.850   1.288  1.4106 -0.1233  0.8431
   74MOL   C11723623   7.075   7.743   1.214 -0.0295  0.5511 -0.1792
   74MOL   C11823624   6.981   7.652   1.271 -0.1301  0.2514 -1.0669
   74MOL   F11923625   6.941   7.534   1.218  0.1783 -0.0389 -0.1139
   74MOL   C12023626   6.927   7.683   1.401 -1.0318 -0.1360  0.7002
   74MOL   C12123627   6.970   7.795   1.471  0.0588  0.2917  0.3199
   74MOL   C12223628   7.012   8.102   1.531 -0.2714 -0.7673  0.7042
   74MOL   H12323629   7.190   8.053   1.435 -0.3021  2.0284  2.3651
   74MOL   H12423630   7.185   7.918   1.229 -0.0765  0.9984  0.5908
   74MOL   H12523631   7.094   7.735   1.108  1.8905  0.2106  0.1864
   74MOL   H12623632   6.856   7.612   1.439 -1.2100 -1.1681 -1.4802
   74MOL   H12723633   6.928   7.820   1.568  0.4511 -1.0397  0.8384
   74MOL   H12823634   6.956   8.065   1.617 -2.1216  0.4009  0.0418
   74MOL   H12923635   7.062   8.197   1.550  0.9994 -1.3396  0.2345
   74MOL   C13023636   6.902   8.128   1.421  0.0160  0.0948 -0.0586
   74MOL   C13123637   6.789   8.214   1.467 -0.4480 -0.6937  0.7939
   74MOL   C13223638   6.818   0.112   1.511 -0.0141  0.1682  0.3130
   74MOL   C13323639   6.713   0.196   1.554  0.6665  0.5695  0.0530
   74MOL   C13423640   6.583   0.141   1.562 -0.2015  0.0010 -0.1699
   74MOL   F13523641   6.480   0.220   1.607  0.0149  0.5173 -0.0928
   74MOL   C13623642   6.554   0.012   1.514 -0.2022  0.0364  0.1727
   74MOL   C13723643   6.657   8.167   1.467  0.3872  0.4642  0.3655
   74MOL   C13823644   6.958   8.177   1.284 -0.0971 -0.2148  0.9487
   74MOL   H13923645   6.846   8.035   1.411  1.0011 -0.4725 -0.4248
   74MOL   H14023646   6.916   0.158   1.515  2.0958 -4.0387  0.1546
   74MOL   H14123647   6.741   0.293   1.592  1.1956  0.5857 -0.3694
   74MOL   H14223648   6.450   8.217   1.523 -0.7569  2.2678  1.5552
   74MOL   H14323649   6.632   8.069   1.429 -0.3003  1.0343 -0.6668
   74MOL   H14423650   6.981   0.046   1.311  2.8854 -0.3600 -0.7628
   74MOL   H14523651   7.054   8.133   1.255 -0.2560  0.9073 -1.3315
   74MOL   C14623652   6.857   8.159   1.167 -0.0235 -0.7637  0.3780
   74MOL   C14723653   6.890   0.024   1.059  0.4101  0.2579 -0.4329
   74MOL   C14823654   6.828   0.148   1.063 -0.2787  0.2240 -0.0764
   74MOL   C14923655   6.874   0.241   0.971 -0.9648  0.1545  0.0149
   74MOL   C15023656   6.977   0.212   0.880  0.9537 -0.3103  0.1259
   74MOL   F15123657   7.020   0.309   0.801 -0.0144 -0.4465 -0.1609
   74MOL   C15223658   7.039   0.086   0.872  0.8895  0.8212 -0.4830
   74MOL   C15323659   6.995   8.226   0.969 -0.0442  0.0721  0.0227
   74MOL   C15423660   6.852   8.013   1.121  0.0602 -0.2792  0.0346
   74MOL   H15523661   6.759   8.188   1.207  0.0595  0.0341  0.0166
   74MOL   H15623662   6.750   0.165   1.134 -0.7131 -1.5502 -0.1022
   74MOL   H15723663   6.827   0.338   0.971  1.1661  1.2164 -1.3082
   74MOL   H15823664   7.113   0.067   0.797  1.6880  0.3376  0.4240
   74MOL   H15923665   7.038   8.127   0.983 -1.0473 -0.3098  0.4449
   74MOL   H16023666   6.955   7.982   1.102  0.6899  0.2827  2.3103
   74MOL   H16123667   6.815   7.949   1.201  0.5560 -1.7002 -0.8602
   74MOL   C16223668   6.762   7.994   0.997 -0.5933 -0.1454 -0.4926
   74MOL   C16323669   6.782   7.859   0.923 -0.6339 -0.4379 -0.5069
   74MOL   C16423670   6.835   7.857   0.792  0.1470 -0.3008 -0.0022
   74MOL   C16523671   6.845   7.731   0.726  0.5338 -0.0924  0.4702
   74MOL   C16623672   6.810   7.610   0.788  0.5788 -0.2995  0.3011
   74MOL   F16723673   6.835   7.494   0.725  0.5704  0.1976 -0.0649
   74MOL   C16823674   6.765   7.614   0.921 -0.8759  0.2104 -0.4740
   74MOL   C16923675   6.749   7.741   0.991 -0.3306  0.3652 -0.2767
   74MOL   C17023676   6.613   8.030   1.021 -0.9795  0.1184  0.0960
   74MOL   H17123677   6.804   8.057   0.918 -0.0009  1.0037  0.7277
   74MOL   H17223678   6.852   7.953   0.745  0.2272  0.0654  0.7558
   74MOL   H17323679   6.881   7.726   0.624  0.5526  2.0474  0.3390
   74MOL   H17423680   6.750   7.518   0.968  0.5308 -0.5377 -1.5216
   74MOL   H17523681   6.712   7.752   1.092  1.3855  1.4919  0.2619
   74MOL   H17623682   6.555   7.940   1.043  1.3905 -1.5996 -0.5461
   74MOL   H17723683   6.596   8.104   1.099  0.0157 -0.6200  1.0262
   74MOL   C17823684   6.534   8.074   0.895  0.1934  0.2394  0.0827
   74MOL   C17923685   6.380   8.060   0.908 -0.2632 -0.4205  0.0560
   74MOL   C18023686   6.308   7.956   0.840  0.8951 -0.2386  0.5082
   74MOL   C18123687   6.175   7.953   0.850  0.0564 -0.0571  0.4108
   74MOL   C18223688   6.103   8.040   0.931 -0.6014 -0.5774  0.5883
   74MOL   F18323689   5.969   8.013   0.949 -0.3141  0.0934 -0.0672
   74MOL   C18423690   6.169   8.142   1.006 -0.0508  0.3388  1.0291
   74MOL   C18523691   6.310   8.145   1.003  0.0201 -0.8746 -0.0584
   74MOL   C18623692   6.583   8.213   0.832  0.0185  0.2866  0.0210
   74MOL   H18723693   6.570   8.002   0.822 -0.5636 -0.3198  0.2707
   74MOL   H18823694   6.358   7.878   0.785 -0.2515 -1.7575  1.5991
   74MOL   H18923695   6.128   7.869   0.801  1.3975 -1.3347  1.2555
   74MOL   H19023696   6.113   8.200   1.078 -0.2516  0.5171  0.7327
   74MOL   H19123697   6.361   8.223   1.058  0.8092 -2.1759  1.0727
   74MOL   H19223698   6.560   0.059   0.901 -1.6394 -1.5239  1.6059
   74MOL   H19323699   6.692   8.217   0.835 -0.0021  1.4381 -0.1758
   74MOL   C19423700   6.537   0.011   0.689 -0.1142  0.4783  0.1149
   74MOL   C19523701   6.558   0.154   0.643  0.2767 -0.0949 -0.3337
   74MOL   C19623702   6.692   0.200   0.628 -0.2353  0.5109  0.0483
   74MOL   C19723703   6.717   0.332   0.590 -0.2041  0.3651  0.2120
   74MOL   C19823704   6.611   0.418   0.560 -0.1028 -0.0284 -0.7177
   74MOL   F19923705   6.640   0.547   0.522  0.5229  0.1127 -0.4800
   74MOL   C20023706   6.481   0.371   0.560 -0.2251 -0.0953  0.7725
   74MOL   C20123707   6.453   0.243   0.610  0.2945  0.8847  0.2088
   74MOL   C20223708   6.574   8.139   0.584  0.0135  0.3970 -0.3659
   74MOL   H20323709   6.428   0.007   0.700 -0.1610  0.2511 -0.4434
   74MOL   H20423710   6.773   0.131   0.647 -0.0742  0.9028  0.7796
   74MOL   H20523711   6.818   0.369   0.600 -0.2356  0.2714  0.9191
   74MOL   H20623712   6.400   0.443   0.556 -0.5409 -0.4190  1.3530
   74MOL   H20723713   6.348   0.221   0.623  0.7872 -1.4660  0.3669
   74MOL   H20823714   6.631   8.185   0.503  4.3592  1.2820  2.9760
   74MOL   H20923715   6.639   8.064   0.629  1.8894  1.7076 -0.8244
   74MOL   C21023716   6.455   8.074   0.514  0.1586  0.3142  0.1184
   74MOL   C21123717   6.351   8.180   0.460 -0.4268 -0.7921 -0.1198
   74MOL   C21223718   6.225   8.188   0.507 -0.6501 -0.2033  0.3102
   74MOL   C21323719   6.134   0.056   0.466  0.3411  0.1608  0.8788
   74MOL   C21423720   6.170   0.145   0.364 -0.4738 -0.3941  0.3123
   74MOL   F21523721   6.089   0.238   0.310  0.4699 -0.2056  0.2014
   74MOL   C21623722   6.303   0.144   0.311  0.2372  0.1122  0.1960
   74MOL   C21723723   6.395   0.041   0.359  0.4163  0.0065  0.5614
   74MOL   C21823724   6.512   7.985   0.391 -0.3173  0.3430  0.0688
   74MOL   H21923725   6.401   8.004   0.578  2.0124 -1.3108 -0.0405
   74MOL   H22023726   6.186   8.112   0.572 -0.5271  0.3118  0.9893
   74MOL   H22123727   6.030   0.050   0.494 -0.2067  1.4724 -0.8242
   74MOL   H22223728   6.322   0.200   0.221 -0.8069 -2.9939 -2.0485
   74MOL   H22323729   6.485   0.034   0.300  1.5075 -2.2937  2.4411
   74MOL   H22423730   6.429   7.981   0.321 -0.0711  0.8362 -0.2601
   74MOL   H22523731   6.591   8.032   0.331 -0.2116 -1.3744 -1.1613
   74MOL   C22623732   6.563   7.837   0.410 -0.4319 -0.3466 -0.1070
   74MOL   C22723733   6.467   7.756   0.488  0.1625  0.0248  0.8927
   74MOL   C22823734   6.334   7.740   0.438 -0.2759 -0.1314 -0.0750
   74MOL   C22923735   6.245   7.640   0.499  0.1812 -0.4740 -0.2807
   74MOL   C23023736   6.283   7.572   0.614 -0.9679 -0.2457  0.7422
   74MOL   F23123737   6.206   7.483   0.680 -0.1241  0.3017 -0.2645
   74MOL   C23223738   6.409   7.604   0.676 -0.0090 -0.2676 -0.1022
   74MOL   C23323739   6.500   7.690   0.607 -0.4567  0.6441  0.5721
   74MOL   C23423740   6.595   7.761   0.273  0.3242 -0.8510  0.5362
   74MOL   H23523741   6.655   7.833   0.468 -2.0201 -0.0612  2.4709
   74MOL   H23623742   6.309   7.791   0.347  1.5319  1.3149  0.2019
   74MOL   H23723743   6.143   7.623   0.470  0.5774 -6.0829  0.9154
   74MOL   H23823744   6.444   7.553   0.764 -0.1988  0.8400  0.6227
   74MOL   H23923745   6.603   7.698   0.639  0.1698  2.6516 -1.8735
   74MOL   H24023746   6.585   7.653   0.283 -2.4581 -0.9263 -2.3305
   74MOL   H24123747   6.509   7.780   0.209 -1.2430 -0.2402  2.7251
   74MOL   C24223748   6.723   7.808   0.196 -0.7750  0.1098 -0.4368
   74MOL   C24323749   6.845   7.775   0.277  0.1175  0.1649  0.4329
   74MOL   C24423750   6.934   7.876   0.336  0.7190 -0.1919 -0.3900
   74MOL   C24523751   7.030   7.835   0.429  0.1734 -0.2107  0.1588
   74MOL   C24623752   7.069   7.701   0.443  0.4578  0.3266  0.3535
   74MOL   F24723753   7.174   7.680   0.521  0.2847  0.0727  0.1853
   74MOL   C24823754   6.992   7.603   0.377  0.7349  0.7528 -0.2161
   74MOL   C24923755   6.888   7.640   0.292  0.5917 -0.1627  0.0607
   74MOL   C25023756   6.730   7.758   0.048  0.2020 -0.4971  0.0336
   74MOL   H25123757   6.721   7.916   0.183  1.3291  0.0494 -1.4887
   74MOL   H25223758   6.912   7.981   0.323  0.1506 -0.4720 -1.7733
   74MOL   H25323759   7.075   7.917   0.483 -1.0700  1.0008 -0.6002
   74MOL   H25423760   7.022   7.500   0.377  2.2375  1.1259  2.8204
   74MOL   H25523761   6.833   7.559   0.247  1.7048 -2.4124  2.6146
   74MOL   H25623762   6.829   7.782   0.008  0.3201 -1.2364 -0.1371
   74MOL   H25723763   6.716   7.650   0.040  1.3711 -0.4520 -3.9129
   74MOL   C25823764   6.614   7.820   8.194  0.0582  0.2818 -0.2527
   74MOL   C25923765   6.642   7.973   8.184  0.0699  0.8346 -0.6694
   74MOL   C26023766   6.762   8.026   8.136  0.2090  0.1974 -0.4018
   74MOL   C26123767   6.791   8.164   8.147  0.0971  0.4333  0.2820
   74MOL   C26223768   6.692   0.018   8.192 -0.0697  0.6308 -0.4655
   74MOL   F26323769   6.725   0.148   8.199  0.2859 -0.1416 -0.3902
   74MOL   C26423770   6.564   8.203   0.001  0.4082  0.3979  0.4496
   74MOL   C26523771   6.550   8.058   0.001 -0.7751  0.0073 -0.0144
   74MOL   C26623772   6.584   7.751   8.059 -0.3362 -0.2667  0.2011
   74MOL   H26723773   6.519   7.816   0.014 -1.0423  0.3150 -2.1339
   74MOL   H26823774   6.838   7.954   8.110  1.3234  1.1930  0.0593
   74MOL   H26923775   6.889   8.202   8.122  1.0102 -1.8977  0.1591
   74MOL   H27023776   6.494   0.040   0.042 -0.6938 -0.6165  0.3637
   74MOL   H27123777   6.458   8.018   0.042  0.0514 -1.4981  0.3881
   74MOL   H27223778   6.523   7.816   7.997  0.4762 -0.8450 -1.2063
   74MOL   H27323779   6.682   7.747   8.013 -0.2286 -1.1259  0.4949
   74MOL   C27423780   6.503   7.624   8.064  0.0204 -0.5551 -0.1855
   74MOL   C27523781   6.382   7.634   8.170  0.4746 -0.1493 -0.6742
   74MOL   C27623782   6.379   7.542   0.043 -0.3048  0.4782  0.9260
   74MOL   C27723783   6.267   7.534   0.125  0.0186 -0.7481 -0.2325
   74MOL   C27823784   6.153   7.615   0.101  0.2667  0.0146 -0.2778
   74MOL   F27923785   6.038   7.611   0.177 -0.3631  0.5699  0.2994
   74MOL   C28023786   6.162   7.707   8.234  0.5732 -0.6717 -0.0981
   74MOL   C28123787   6.274   7.728   8.151 -0.2248  0.0827  0.4803
   74MOL   C28223788   6.458   7.572   7.920 -0.5902 -0.1534 -0.5285
   74MOL   H28323789   6.580   7.559   8.105  1.3034  0.8656 -0.2989
   74MOL   H28423790   6.459   7.472   0.059 -2.4111 -1.2697  4.2109
   74MOL   H28523791   6.264   7.463   0.206 -2.1378 -0.3208  0.0954
   74MOL   H28623792   6.080   7.772   8.207  0.7374 -0.1272  0.7029
   74MOL   H28723793   6.269   7.795   8.067  0.1792  0.2308  0.5715
   74MOL   H28823794   6.367   7.625   7.895  0.1065  0.4595 -1.7939
   74MOL   H28923795   6.541   7.594   7.853 -0.1980  0.7813  0.2556
   74MOL   C29023796   6.440   7.416   7.911 -0.4697  1.0034 -0.6673
   74MOL   C29123797   6.320   7.361   7.984  0.7443  0.0652  0.1872
   74MOL   C29223798   6.334   7.262   8.087  0.3413 -0.4777 -0.2450
   74MOL   C29323799   6.221   7.224   8.162 -0.5096  0.8644  0.1352
   74MOL   C29423800   6.091   7.280   8.139  0.2308  0.5714  0.2668
   74MOL   F29523801   5.985   7.253   8.221 -0.1129 -0.3247  0.0913
   74MOL   C29623802   6.077   7.367   8.030 -0.2601  0.0838 -0.2186
   74MOL   C29723803   6.187   7.395   7.940 -0.1940 -0.0837  0.0046
   74MOL   C29823804   6.438   7.365   7.757  0.4202  0.1427 -0.3462
   74MOL   H29923805   6.520   7.363   7.962 -1.7120 -0.6281 -0.3781
   74MOL   H30023806   6.431   7.225   8.115  1.1129  1.0216 -0.8323
   74MOL   H30123807   6.237   7.164   0.016 -1.1230  0.3233 -0.1141
   74MOL   H30223808   5.978   7.393   7.997  0.4107  2.0278 -0.7297
   74MOL   H30323809   6.166   7.463   7.858  0.9163 -0.2705 -0.4475
   74MOL   H30423810   6.360   7.417   7.701  1.8341  1.6553 -0.9734
   74MOL   H30523811   6.530   7.390   7.705 -0.4475  2.1571 -0.9636
   74MOL   C30623812   6.424   7.213   7.741  0.6153  0.0169 -0.3909
   74MOL   C30723813   6.368   7.176   7.605  0.5791  0.1269  0.8639
   74MOL   C30823814   6.433   7.121   7.496  0.5407 -0.3888  0.0585
   74MOL   C30923815   6.373   7.113   7.366  0.3722 -0.0069 -0.3251
   74MOL   C31023816   6.238   7.142   7.348 -0.3818 -0.1163 -0.3301
   74MOL   F31123817   6.183   7.121   7.227  0.1765  0.1357 -0.1245
   74MOL   C31223818   6.163   7.190   7.458  0.0908 -0.1754 -0.2115
   74MOL   C31323819   6.231   7.203   7.582  0.3139  0.2492 -0.0313
   74MOL   C31423820   6.558   7.145   7.762 -0.6352 -0.2697  0.1603
   74MOL   H31523821   6.361   7.162   7.814  1.1864  2.7880  2.1238
   74MOL   H31623822   6.537   7.092   7.501  0.8063  0.5323 -0.0216
   74MOL   H31723823   6.426   7.078   7.278 -3.5329 -0.8539 -2.4423
   74MOL   H31823824   6.058   7.215   7.456  0.7948  3.0296 -1.7995
   74MOL   H31923825   6.171   7.238   7.664 -2.7973 -0.4582 -1.8856
   74MOL   H32023826   6.565   7.039   7.740 -0.6098 -0.4745  1.1400
   74MOL   H32123827   6.636   7.200   7.709 -0.3407 -1.9179 -1.1321
   74MOL   H32223828   6.593   7.139   7.865  0.7543 -0.3654 -0.3032
   75MOL     C123829   0.383   1.313   2.870  0.0378  0.2678  0.3058
   75MOL     C223830   0.351   1.169   2.911  0.0819 -0.4919  0.1103
   75MOL     C323831   0.452   1.087   2.949 -0.1189 -0.6694 -1.3422
   75MOL     C423832   0.425   0.952   2.984  1.3884  0.1351  0.4526
   75MOL     C523833   0.291   0.904   2.961  0.2792  0.7843 -0.2919
   75MOL     F623834   0.261   0.777   2.978 -0.0354 -0.0727  0.3746
   75MOL     C723835   0.189   0.988   2.912  0.3990  0.5451 -0.0332
   75MOL     C823836   0.223   1.120   2.878  0.4178 -0.1382 -0.1899
   75MOL     C923837   0.293   1.415   2.934  0.0794 -0.1009 -0.3347
   75MOL    H1023838   0.389   1.325   2.762  1.8575  1.7767  0.5299
   75MOL    H1123839   0.550   1.132   2.961 -0.6446  0.1688 -0.0409
   75MOL    H1223840   0.501   0.891   3.030 -0.6020 -2.2657  0.7138
   75MOL    H1323841   0.093   0.938   2.905  0.8486 -0.3033 -0.1997
   75MOL    H1423842   0.137   1.174   2.842  0.4672  2.7794  3.6632
   75MOL    H1523843   0.199   1.414   2.879  0.7997 -1.3539 -1.5538
   75MOL    H1623844   0.269   1.383   3.036  1.1996 -0.6976 -0.2544
   75MOL    H1723845   0.485   1.337   2.902 -0.9430  2.1574  2.1975
   75MOL    C1823846   0.355   1.554   2.944 -0.3514  0.6090  0.1937
   75MOL    C1923847   0.377   1.611   2.801  0.1613 -0.0549  0.1631
   75MOL    C2023848   0.487   1.697   2.777  0.9796  0.8132 -0.2435
   75MOL    C2123849   0.513   1.758   2.656 -0.0885  0.1188 -0.0758
   75MOL    C2223850   0.418   1.737   2.550 -0.8110  0.2098  0.7056
   75MOL    F2323851   0.434   1.803   2.437  0.2795  0.2789 -0.2962
   75MOL    C2423852   0.308   1.652   2.570 -0.6399 -0.4171  0.7529
   75MOL    C2523853   0.285   1.588   2.694 -0.9089 -0.2570  0.1826
   75MOL    C2623854   0.293   1.657   3.047  0.0788  0.6913  0.7108
   75MOL    H2723855   0.453   1.542   2.989 -0.1736 -1.2041 -0.6445
   75MOL    H2823856   0.555   1.715   2.860  2.3881 -0.8932 -0.9775
   75MOL    H2923857   0.600   1.819   2.637 -0.7735  1.5401  1.2186
   75MOL    H3023858   0.241   1.644   2.486  1.0940  0.1163 -0.7095
   75MOL    H3123859   0.195   1.531   2.709 -0.7571 -0.2933  1.0199
   75MOL    H3223860   0.281   1.607   3.143 -0.1766  0.8991  0.7868
   75MOL    H3323861   0.376   1.725   3.067 -1.7181  2.9401  0.8280
   75MOL    C3423862   0.169   1.742   3.002  0.3537  0.1156 -0.0700
   75MOL    C3523863   0.052   1.644   2.984  0.8187  0.1541  0.5341
   75MOL    C3623864   8.222   1.634   2.855 -0.5003 -0.5110  0.4350
   75MOL    C3723865   8.112   1.547   2.835  0.3169  0.1006 -0.1051
   75MOL    C3823866   8.071   1.466   2.940 -0.6177  0.6062 -0.3630
   75MOL    F3923867   7.960   1.390   2.922  0.4809  0.3130 -0.0496
   75MOL    C4023868   8.138   1.467   3.066 -0.1584 -0.0523 -0.5429
   75MOL    C4123869   0.005   1.560   3.091  0.7984 -0.3080  0.0789
   75MOL    C4223870   0.129   1.864   3.092 -0.2562  0.5538 -0.5299
   75MOL    H4323871   0.202   1.780   2.905  1.0097  0.0144  0.1111
   75MOL    H4423872   0.029   1.694   2.776 -1.6020 -0.3514 -0.0287
   75MOL    H4523873   8.061   1.538   2.740 -2.1319 -2.7379  1.3861
   75MOL    H4623874   8.104   1.412   3.152  2.7824  0.2161  0.8673
   75MOL    H4723875   0.042   1.564   3.192  1.4267 -1.0699 -0.1196
   75MOL    H4823876   0.093   1.822   3.186 -0.8109  0.5073 -0.7629
   75MOL    H4923877   0.217   1.927   3.101  0.8124 -0.9943  0.0845
   75MOL    C5023878   0.021   1.946   3.030 -0.4782  0.6313 -0.2063
   75MOL    C5123879   8.113   1.929   3.088  0.0852 -0.0329  0.5060
   75MOL    C5223880   8.014   1.859   3.014  0.3751 -0.4473  0.6836
   75MOL    C5323881   7.885   1.850   3.059 -0.1774 -0.1877 -0.0997
   75MOL    C5423882   7.852   1.906   3.182  0.8342 -0.7115  0.3161
   75MOL    F5523883   7.722   1.900   3.223 -0.3716 -0.4996 -0.3201
   75MOL    C5623884   7.950   1.967   3.262 -0.2787  0.5251  0.7507
   75MOL    C5723885   8.082   1.981   3.214  0.0975 -0.0894 -0.3964
   75MOL    C5823886   0.054   2.094   3.003  0.3412  0.2557 -0.8748
   75MOL    H5923887   0.002   1.904   2.931  1.2352  0.5485 -0.5252
   75MOL    H6023888   8.031   1.812   2.917  0.4677  0.9319  0.0246
   75MOL    H6123889   7.803   1.806   3.005 -0.2678  1.4073 -1.2939
   75MOL    H6223890   7.927   1.996   3.363 -1.5199  0.5949  0.4519
   75MOL    H6323891   8.163   2.033   3.264  1.2193  0.9967 -3.2643
   75MOL    H6423892   8.198   2.151   2.984 -1.1883 -2.5964 -2.4424
   75MOL    H6523893   0.081   2.145   3.095 -1.3305 -1.2457  0.4676
   75MOL    C6623894   0.146   2.107   2.884 -0.6056 -0.4888  0.2803
   75MOL    C6723895   0.073   2.067   2.758 -0.1299  0.1071  0.8376
   75MOL    C6823896   0.124   1.962   2.676 -0.4361  0.6971 -1.7442
   75MOL    C6923897   0.062   1.923   2.557  0.4377  0.3127 -0.1763
   75MOL    C7023898   8.182   1.993   2.512 -1.0561  0.0636 -0.1919
   75MOL    F7123899   8.123   1.955   2.401  0.1629 -0.1809  0.0358
   75MOL    C7223900   8.131   2.106   2.586  0.3322 -0.5629  0.1339
   75MOL    C7323901   8.196   2.139   2.711 -0.4328  0.4829  0.5791
   75MOL    C7423902   0.213   2.247   2.860  0.0555  0.7863  0.2013
   75MOL    H7523903   0.223   2.033   2.906 -1.1518 -0.8714  0.9314
   75MOL    H7623904   0.214   1.917   2.715 -0.7752  1.0984 -0.4780
   75MOL    H7723905   0.095   1.839   2.498  0.9456  1.1353 -1.0856
   75MOL    H7823906   8.054   2.173   2.551  0.1158 -1.7637 -1.7885
   75MOL    H7923907   8.169   2.225   2.770  0.5594  2.7326 -2.1171
   75MOL    H8023908   0.268   2.244   2.766 -1.5022 -2.9212 -0.6802
   75MOL    H8123909   0.139   2.325   2.846  1.4626  1.6542 -2.7960
   75MOL    C8223910   0.310   2.289   2.970  0.1188 -0.2740 -0.1197
   75MOL    C8323911   0.415   2.175   3.002  0.9236 -0.9640  0.4259
   75MOL    C8423912   0.491   2.129   2.891 -0.2183 -0.1911 -0.2761
   75MOL    C8523913   0.584   2.026   2.916  0.7570 -0.0866  0.5750
   75MOL    C8623914   0.603   1.984   3.046 -0.0658 -0.8974 -0.1269
   75MOL    F8723915   0.692   1.881   3.069 -0.0871  0.0039  0.3074
   75MOL    C8823916   0.540   2.040   3.160 -0.1398 -0.3064  0.1725
   75MOL    C8923917   0.435   2.130   3.140  0.5515  0.0425  0.2552
   75MOL    C9023918   0.393   2.423   2.934 -0.1139 -0.0532 -0.5320
   75MOL    H9123919   0.266   2.306   3.068 -0.9180 -2.3976 -0.2107
   75MOL    H9223920   0.479   2.163   2.789 -1.7827 -2.1597 -0.7700
   75MOL    H9323921   0.648   1.996   2.835  1.5380 -1.0573  1.5354
   75MOL    H9423922   0.557   2.005   3.261  0.8872 -0.6712 -0.1187
   75MOL    H9523923   0.388   2.166   3.230 -1.0848 -1.1140 -0.1016
   75MOL    H9623924   0.485   2.408   2.991  0.0175  0.8003 -0.4996
   75MOL    H9723925   0.416   2.411   2.829  1.3858  0.5114 -0.2881
   75MOL    C9823926   0.321   2.561   2.973 -0.3652 -0.2042  0.6435
   75MOL    C9923927   0.290   2.557   3.128 -0.3632 -0.4139 -0.0201
   75MOL   C10023928   0.159   2.585   3.170 -0.2125 -0.1124  0.1060
   75MOL   C10123929   0.124   2.584   3.310  0.5290  0.0602 -0.4791
   75MOL   C10223930   0.225   2.564   3.407 -0.1837 -0.5993 -0.3753
   75MOL   F10323931   0.201   2.592   3.540 -0.0622 -0.0291  0.0551
   75MOL   C10423932   0.358   2.542   3.369 -0.5771  0.0987  0.9394
   75MOL   C10523933   0.386   2.534   3.229  0.5039 -0.8272 -0.3602
   75MOL   C10623934   0.416   2.684   2.944 -0.3397  0.4748 -0.5685
   75MOL   H10723935   0.235   2.574   2.908  1.2874  2.0969 -1.1393
   75MOL   H10823936   0.079   2.616   3.104 -1.2548 -0.9364  0.9576
   75MOL   H10923937   0.026   2.603   3.349  0.4345 -1.6520  0.1469
   75MOL   H11023938   0.436   2.529   3.442  0.3958 -0.0244 -0.1069
   75MOL   H11123939   0.490   2.517   3.208  1.4392  1.1209  2.3857
   75MOL   H11223940   0.387   2.767   3.009  3.3370  1.7248 -0.4345
   75MOL   H11323941   0.516   2.660   2.979 -0.6595 -0.5810 -0.3686
   75MOL   C11423942   0.418   2.746   2.803 -0.0393 -0.5124 -0.8552
   75MOL   C11523943   0.282   2.790   2.759 -0.9295 -0.3105  0.5363
   75MOL   C11623944   0.203   2.870   2.842 -0.7030  0.7374  0.3386
   75MOL   C11723945   0.081   2.923   2.793 -0.2400 -0.1883  1.1550
   75MOL   C11823946   0.033   2.893   2.662 -0.3376  0.1205 -0.3446
   75MOL   F11923947   8.142   2.932   2.622 -0.1142  0.7526 -0.6474
   75MOL   C12023948   0.113   2.808   2.579  1.0917 -0.0748  0.0876
   75MOL   C12123949   0.236   2.759   2.630 -0.2408  0.2170 -0.1697
   75MOL   C12223950   0.515   2.869   2.800  0.2190  0.6948  0.2392
   75MOL   H12323951   0.438   2.665   2.732  0.3594 -1.6108  0.4821
   75MOL   H12423952   0.233   2.895   2.942 -1.0550  1.3020  0.3068
   75MOL   H12523953   0.013   2.975   2.859 -1.2194  0.3450 -0.2521
   75MOL   H12623954   0.069   2.784   2.484  2.7104  1.5952 -1.1232
   75MOL   H12723955   0.291   2.694   2.564  0.8667 -0.9411  1.8410
   75MOL   H12823956   0.483   2.925   2.712  2.1015  2.1865  0.4787
   75MOL   H12923957   0.475   2.943   2.869  0.6700  2.3363 -1.2374
   75MOL   C13023958   0.664   2.837   2.806  0.4142  0.8939 -0.4680
   75MOL   C13123959   0.703   2.718   2.719 -1.1340  0.1712 -0.0204
   75MOL   C13223960   0.668   2.712   2.585  0.7614  0.3126  0.2030
   75MOL   C13323961   0.690   2.593   2.506 -0.7837  0.2998  0.0233
   75MOL   C13423962   0.761   2.488   2.560 -0.2461  0.2215 -0.0567
   75MOL   F13523963   0.778   2.374   2.488  0.2624 -0.5919  0.3290
   75MOL   C13623964   0.812   2.496   2.690 -0.0538  0.0121 -0.2429
   75MOL   C13723965   0.783   2.611   2.767 -0.4606  0.0528 -0.5255
   75MOL   C13823966   0.755   2.956   2.764 -0.2386  0.1128  0.4284
   75MOL   H13923967   0.697   2.826   2.909 -0.0725  1.5694 -0.2326
   75MOL   H14023968   0.616   2.787   2.527  0.6822 -0.2992 -0.5243
   75MOL   H14123969   0.665   2.594   2.401 -0.4307  0.7497 -0.0611
   75MOL   H14223970   0.874   2.416   2.726 -0.0618  0.7732  1.5201
   75MOL   H14323971   0.809   2.618   2.871 -1.8111  0.4273 -0.1988
   75MOL   H14423972   0.859   2.924   2.773 -0.6381 -1.4099 -0.2455
   75MOL   H14523973   0.745   2.973   2.657 -2.0167  1.7670  0.8205
   75MOL   C14623974   0.738   3.093   2.834  0.2628  0.1437 -0.4059
   75MOL   C14723975   0.730   3.081   2.984  0.3673 -0.7209  0.0331
   75MOL   C14823976   0.846   3.046   3.057  0.0224  0.1658 -0.5605
   75MOL   C14923977   0.844   3.065   3.197 -0.4437 -0.5233 -0.0370
   75MOL   C15023978   0.732   3.118   3.258  0.0529 -0.4878 -0.2424
   75MOL   F15123979   0.736   3.147   3.391  0.0916  0.1526 -0.1437
   75MOL   C15223980   0.617   3.137   3.187  0.1255 -0.4833  0.1046
   75MOL   C15323981   0.609   3.125   3.050 -0.2807 -0.3833 -0.0467
   75MOL   C15423982   0.846   3.193   2.787  0.5145 -0.7834  0.3003
   75MOL   H15523983   0.642   3.139   2.809 -1.1348 -2.0000  0.8932
   75MOL   H15623984   0.939   3.013   3.012  1.0273 -0.2671  1.7476
   75MOL   H15723985   0.933   3.045   3.253 -0.3056  2.5821  0.9317
   75MOL   H15823986   0.527   3.166   3.240  1.1058  3.0858 -0.0929
   75MOL   H15923987   0.514   3.149   3.004 -0.2283 -0.1199 -0.0121
   75MOL   H16023988   0.822   3.282   2.846 -0.5425 -0.4472 -0.6283
   75MOL   H16123989   0.949   3.164   2.811  0.0124 -2.9055 -0.0194
   75MOL   C16223990   0.840   3.246   2.644 -0.2622 -0.1853 -0.0192
   75MOL   C16323991   0.712   3.309   2.593  0.0952  0.1946  0.0088
   75MOL   C16423992   0.629   3.235   2.507 -0.8129 -0.6314  0.6906
   75MOL   C16523993   0.512   3.284   2.450 -0.0014 -0.3426  0.2280
   75MOL   C16623994   0.468   3.413   2.484  0.2559  0.2141 -0.0030
   75MOL   F16723995   0.355   3.462   2.429 -0.5345  0.3299  0.2391
   75MOL   C16823996   0.552   3.487   2.575  0.2747 -1.0407  0.0284
   75MOL   C16923997   0.674   3.438   2.626  0.0500 -0.4019 -0.1160
   75MOL   C17023998   0.966   3.333   2.611 -0.0451  0.1135 -0.5066
   75MOL   H17123999   0.848   3.152   2.588 -0.6675 -0.9222  1.1369
   75MOL   H17224000   0.667   3.145   2.461 -0.5792  0.2009 -0.7692
   75MOL   H17324001   0.466   3.218   2.378 -1.2058 -1.5617  2.0834
   75MOL   H17424002   0.523   3.588   2.596  2.2075 -0.5538  0.4081
   75MOL   H17524003   0.740   3.491   2.693 -1.0297 -0.2710  0.8683
   75MOL   H17624004   0.933   3.425   2.564 -1.1150  0.0231  0.0305
   75MOL   H17724005   1.007   3.360   2.709 -1.6559 -0.0922  0.2412
   75MOL   C17824006   1.078   3.267   2.531 -0.0816  0.2616  0.4849
   75MOL   C17924007   1.044   3.273   2.375 -0.2865 -0.0494 -0.7698
   75MOL   C18024008   1.052   3.388   2.295  0.0854  0.5050  0.5627
   75MOL   C18124009   1.006   3.384   2.159  0.0610 -0.3649 -0.2868
   75MOL   C18224010   0.961   3.265   2.103  0.3273 -0.0917 -0.2506
   75MOL   F18324011   0.899   3.264   1.981  0.4321 -0.6768  0.1344
   75MOL   C18424012   0.973   3.146   2.179 -0.0236 -0.3261 -0.0202
   75MOL   C18524013   1.014   3.155   2.316 -0.0085 -0.2523  0.2069
   75MOL   C18624014   1.221   3.332   2.557 -0.0322  0.1822  0.4614
   75MOL   H18724015   1.088   3.162   2.559  0.3969 -0.2870 -1.6355
   75MOL   H18824016   1.087   3.481   2.338 -1.5044 -0.1014  3.2543
   75MOL   H18924017   1.015   3.474   2.101  1.8521 -0.2535  0.1294
   75MOL   H19024018   0.938   3.052   2.141 -0.3003  0.5057 -1.8764
   75MOL   H19124019   1.012   3.066   2.376  0.3425  0.5266  1.4033
   75MOL   H19224020   1.277   3.275   2.483 -0.2307  0.1337  0.3478
   75MOL   H19324021   1.222   3.438   2.531 -1.0477  0.0477 -0.1406
   75MOL   C19424022   1.288   3.311   2.693 -1.2155  0.2186 -0.0040
   75MOL   C19524023   1.285   3.169   2.745  0.1979 -0.2165  0.1389
   75MOL   C19624024   1.343   3.068   2.671 -0.2842 -0.0514  0.0622
   75MOL   C19724025   1.346   2.936   2.728 -0.0330  0.1056  0.4894
   75MOL   C19824026   1.296   2.907   2.856  0.4112 -0.8287 -0.2202
   75MOL   F19924027   1.290   2.783   2.907  0.0623  0.0850  0.8356
   75MOL   C20024028   1.234   3.014   2.924 -0.1722  0.2296  0.2655
   75MOL   C20124029   1.220   3.141   2.867 -0.0661 -0.1981  0.2362
   75MOL   C20224030   1.439   3.359   2.700 -0.4547  0.1714 -0.5740
   75MOL   H20324031   1.239   3.372   2.768 -0.1547 -1.3367  2.0132
   75MOL   H20424032   1.386   3.076   2.573 -0.0404 -0.1196  0.1645
   75MOL   H20524033   1.387   2.857   2.667 -0.7921 -2.2043  2.8876
   75MOL   H20624034   1.189   2.990   3.019 -1.1716  2.3264  0.3410
   75MOL   H20724035   1.170   3.211   2.932 -3.0694 -2.7834  0.7965
   75MOL   H20824036   1.476   3.352   2.803  2.1950  0.9635 -1.4476
   75MOL   H20924037   1.496   3.291   2.638 -0.4161 -1.9233  1.6995
   75MOL   C21024038   1.467   3.510   2.670  0.0230  0.4945  0.1528
   75MOL   C21124039   1.400   3.600   2.767  0.0570  0.1497  0.1897
   75MOL   C21224040   1.274   3.644   2.737  0.4902  0.1783  0.1510
   75MOL   C21324041   1.200   3.710   2.839 -0.0241  0.8351  0.0561
   75MOL   C21424042   1.256   3.744   2.958 -0.0027 -0.3463 -0.3983
   75MOL   F21524043   1.184   3.807   3.048 -0.3647 -0.5754 -0.2328
   75MOL   C21624044   1.392   3.721   2.981 -0.2716  0.1366 -0.5369
   75MOL   C21724045   1.462   3.639   2.893  0.0899  0.2735 -0.1908
   75MOL   C21824046   1.624   3.534   2.657  0.5717 -0.3277  0.1602
   75MOL   H21924047   1.425   3.538   2.573  1.9077  1.6073 -0.3741
   75MOL   H22024048   1.227   3.609   2.647  2.6348  2.1792 -1.8046
   75MOL   H22124049   1.096   3.730   2.820 -0.4195 -1.0010  0.1168
   75MOL   H22224050   1.441   3.756   3.070  0.7471 -1.9091 -0.2733
   75MOL   H22324051   1.556   3.598   2.926  0.9400 -0.2759 -3.1713
   75MOL   H22424052   1.674   3.519   2.753 -0.4611  0.5493  0.8496
   75MOL   H22524053   1.683   3.465   2.598  0.2597 -1.4024  1.0958
   75MOL   C22624054   1.661   3.678   2.610 -0.1387  0.6122 -0.4311
   75MOL   C22724055   1.794   3.722   2.674  0.0302 -0.1134  0.0026
   75MOL   C22824056   1.905   3.640   2.650  0.4646  0.3790  0.1306
   75MOL   C22924057   2.028   3.664   2.713  0.2972  0.2503 -0.1129
   75MOL   C23024058   2.033   3.770   2.806 -0.9528  0.5572 -0.1232
   75MOL   F23124059   2.146   3.784   2.879 -0.5403  0.2091  0.0654
   75MOL   C23224060   1.922   3.859   2.829 -0.0195  0.4992  0.2064
   75MOL   C23324061   1.798   3.835   2.764  0.4589 -0.1231 -0.3508
   75MOL   C23424062   1.668   3.672   2.458 -0.6352  0.6085  0.2596
   75MOL   H23524063   1.587   3.752   2.641  0.6353  0.3147  2.1713
   75MOL   H23624064   1.900   3.555   2.583  2.3358 -0.0697  0.5214
   75MOL   H23724065   2.109   3.593   2.712 -0.9140 -1.2054  1.3089
   75MOL   H23824066   1.929   3.940   2.900  2.8877 -1.5396  2.4001
   75MOL   H23924067   1.710   3.893   2.784  1.1605  0.8518 -0.0630
   75MOL   H24024068   1.772   3.664   2.427 -0.5746 -0.3104  0.6921
   75MOL   H24124069   1.623   3.581   2.418 -0.8092  2.0575 -2.9974
   75MOL   C24224070   1.603   3.786   2.367 -0.3091  0.3009  0.3772
   75MOL   C24324071   1.452   3.799   2.364  0.3564 -0.2802  0.0722
   75MOL   C24424072   1.387   3.795   2.235  0.1982 -0.2123  0.1544
   75MOL   C24524073   1.246   3.816   2.220  0.0751  0.5287  0.0531
   75MOL   C24624074   1.171   3.836   2.334 -0.4783 -0.1729 -0.0511
   75MOL   F24724075   1.035   3.846   2.322  0.4293  0.3686  0.6158
   75MOL   C24824076   1.231   3.842   2.460  0.1561  0.2199 -0.1526
   75MOL   C24924077   1.372   3.828   2.474 -0.3342  0.1676 -0.8419
   75MOL   C25024078   1.661   3.929   2.387  0.3919 -0.0161 -0.4023
   75MOL   H25124079   1.627   3.753   2.266 -3.9428 -2.7922  0.4211
   75MOL   H25224080   1.435   3.782   2.139 -2.4439  0.2632 -1.2809
   75MOL   H25324081   1.194   3.806   2.126  0.5063 -0.0698 -0.1203
   75MOL   H25424082   1.165   3.866   2.542 -1.1132 -2.1962 -0.4345
   75MOL   H25524083   1.415   3.840   2.572 -0.8999  2.9892 -0.8971
   75MOL   H25624084   1.607   3.989   2.459  2.3786 -0.2545  1.3190
   75MOL   H25724085   1.760   3.910   2.429  0.2200 -0.6365 -0.2646
   75MOL   C25824086   1.671   4.013   2.253 -0.3695 -0.8364  0.4776
   75MOL   C25924087   1.696   4.161   2.278  0.3310 -0.9648 -0.1230
   75MOL   C26024088   1.792   4.203   2.367  1.3060  0.2352 -0.6397
   75MOL   C26124089   1.837   4.338   2.367  0.6914 -0.1730 -0.3271
   75MOL   C26224090   1.781   4.431   2.278  0.3881 -0.1709 -0.2730
   75MOL   F26324091   1.820   4.558   2.278  0.1049 -0.1304 -0.0874
   75MOL   C26424092   1.682   4.390   2.182 -0.4655 -0.2614 -0.0380
   75MOL   C26524093   1.640   4.257   2.182  0.0381  0.0382  0.3675
   75MOL   C26624094   1.776   3.955   2.158 -0.3719  0.1856 -0.4517
   75MOL   H26724095   1.571   4.000   2.210 -1.4116 -2.3165  3.1951
   75MOL   H26824096   1.834   4.134   2.438 -0.6568 -0.1192  0.2257
   75MOL   H26924097   1.915   4.358   2.439  0.2720  3.7098 -0.8354
   75MOL   H27024098   1.651   4.466   2.112  1.5774  3.5161  2.9917
   75MOL   H27124099   1.587   4.215   2.098 -2.5974 -0.0379  2.0075
   75MOL   H27224100   1.862   4.021   2.146  1.1905 -1.5003  1.0887
   75MOL   H27324101   1.824   3.870   2.208  0.3529  0.2959 -0.9444
   75MOL   C27424102   1.715   3.896   2.029 -0.1029 -0.7890  0.7031
   75MOL   C27524103   1.666   4.004   1.930 -0.3777  0.5880 -0.4352
   75MOL   C27624104   1.746   4.107   1.894  0.0246  0.4601 -0.0946
   75MOL   C27724105   1.711   4.189   1.787 -0.2567 -0.2246  0.0479
   75MOL   C27824106   1.587   4.177   1.721 -0.0236  0.4313  0.2837
   75MOL   F27924107   1.553   4.256   1.617 -0.1580 -0.0675  0.1598
   75MOL   C28024108   1.497   4.078   1.766 -0.0605  0.6266 -0.2779
   75MOL   C28124109   1.537   3.996   1.870 -0.4857 -0.1886 -0.1816
   75MOL   C28224110   1.808   3.789   1.955 -0.3033 -0.5951 -0.0652
   75MOL   H28324111   1.622   3.854   2.069  0.8036 -2.5399  1.0354
   75MOL   H28424112   1.847   4.111   1.933 -0.2060  1.3413  0.4230
   75MOL   H28524113   1.774   4.261   1.736 -2.7045  2.3542  0.5326
   75MOL   H28624114   1.402   4.059   1.718 -0.3353  2.6249 -0.5443
   75MOL   H28724115   1.467   3.926   1.915 -0.9538  0.6816  0.4506
   75MOL   H28824116   1.797   3.818   1.850  1.5819 -2.9953 -0.9636
   75MOL   H28924117   1.916   3.790   1.964 -0.3743  0.0333  0.7773
   75MOL   C29024118   1.777   3.639   1.976  0.1707 -1.0330 -0.8532
   75MOL   C29124119   1.627   3.611   1.967  0.2813 -0.0421  0.3002
   75MOL   C29224120   1.556   3.534   2.060 -0.4398  0.0160 -0.0899
   75MOL   C29324121   1.424   3.492   2.028 -0.3098  0.4143  0.5982
   75MOL   C29424122   1.352   3.552   1.928 -0.1006 -0.3304  0.2164
   75MOL   F29524123   1.220   3.518   1.913  0.3606  0.1439 -0.4417
   75MOL   C29624124   1.417   3.634   1.844 -0.0673  0.3634 -0.3513
   75MOL   C29724125   1.553   3.664   1.863 -0.0089 -0.1004 -0.1638
   75MOL   C29824126   1.864   3.545   1.886  0.1062  0.1031 -0.3412
   75MOL   H29924127   1.810   3.620   2.078  0.1754  0.5279 -0.5586
   75MOL   H30024128   1.607   3.487   2.142  0.6574 -1.4191 -1.5431
   75MOL   H30124129   1.365   3.427   2.090 -0.7899 -0.5990 -0.9018
   75MOL   H30224130   1.367   3.656   1.750 -0.6572 -1.5782 -0.5023
   75MOL   H30324131   1.594   3.730   1.788 -1.6609  0.8314 -0.2641
   75MOL   H30424132   1.811   3.450   1.894  1.3329 -0.5598 -0.0018
   75MOL   H30524133   1.850   3.571   1.781 -0.7554 -0.3368 -0.3358
   75MOL   C30624134   2.013   3.514   1.922  0.1672 -0.4707  0.0279
   75MOL   C30724135   2.049   3.500   2.066 -0.0838  0.7014 -0.8904
   75MOL   C30824136   2.118   3.603   2.134  0.1271  0.3090 -0.1744
   75MOL   C30924137   2.140   3.595   2.275 -0.6920  0.0980 -0.3266
   75MOL   C31024138   2.088   3.479   2.343  0.4096 -0.4208 -0.3294
   75MOL   F31124139   2.110   3.458   2.472  0.3911 -0.2331 -0.1326
   75MOL   C31224140   2.017   3.380   2.277  0.0499 -0.5020 -0.0468
   75MOL   C31324141   1.994   3.389   2.137 -0.9781 -0.0954 -0.0839
   75MOL   C31424142   2.063   3.394   1.837  0.5354  0.1421  0.4347
   75MOL   H31524143   2.058   3.607   1.887 -1.8931  0.8165  0.6412
   75MOL   H31624144   2.157   3.692   2.088 -0.5428  1.8045  2.0513
   75MOL   H31724145   2.198   3.667   2.331 -1.3131 -1.4207  2.3918
   75MOL   H31824146   1.980   3.295   2.333 -0.4236  0.7247  1.5383
   75MOL   H31924147   1.941   3.317   2.076 -1.0882  0.0708 -0.1878
   75MOL   H32024148   2.018   3.301   1.872 -0.6334  0.8470  0.8495
   75MOL   H32124149   2.032   3.401   1.733  1.8015  1.1090  0.1120
   75MOL   H32224150   2.172   3.389   1.835  0.5927 -0.0221  2.4655
   76MOL     C124151   3.561   7.325   1.831 -0.5181 -0.0004  0.5777
   76MOL     C224152   3.521   7.468   1.804  0.3467 -0.5099 -0.5452
   76MOL     C324153   3.408   7.518   1.868  0.4953  0.1388 -0.1569
   76MOL     C424154   3.351   7.643   1.831  0.3213 -0.0881 -0.7135
   76MOL     C524155   3.408   7.709   1.723  0.1107 -0.3698  0.1642
   76MOL     F624156   3.345   7.820   1.684  0.6078  0.0496  0.2181
   76MOL     C724157   3.516   7.664   1.653  0.7079 -0.3275  0.1099
   76MOL     C824158   3.579   7.545   1.700 -0.2544  0.3695 -0.4631
   76MOL     C924159   3.518   7.226   1.724 -0.3595 -0.4044  0.1829
   76MOL    H1024160   3.520   7.288   1.925 -2.0811  0.2890  0.0172
   76MOL    H1124161   3.355   7.456   1.938  1.3473 -1.6420 -1.0457
   76MOL    H1224162   3.273   7.685   1.892  0.9180  1.8970 -1.2887
   76MOL    H1324163   3.567   7.727   1.582  0.4314 -1.1101 -0.7901
   76MOL    H1424164   3.667   7.513   1.647 -0.6941  0.0627 -1.0032
   76MOL    H1524165   3.415   7.235   1.689 -0.6422 -1.4604  0.7321
   76MOL    H1624166   3.567   7.259   1.632 -2.4011  1.3581 -0.3169
   76MOL    H1724167   3.669   7.319   1.840 -0.5561  0.3090  1.2269
   76MOL    C1824168   3.562   7.084   1.751 -0.5390  0.5478 -0.4987
   76MOL    C1924169   3.526   7.047   1.893  0.1396  0.1284 -0.7049
   76MOL    C2024170   3.628   7.001   1.988  0.0643 -0.3053 -0.7799
   76MOL    C2124171   3.593   6.964   2.123  0.6086 -0.2364 -0.6645
   76MOL    C2224172   3.456   6.967   2.161  0.1134 -0.3866 -0.4037
   76MOL    F2324173   3.428   6.930   2.290 -0.5328  0.3363  0.1143
   76MOL    C2424174   3.358   7.003   2.067 -0.0571  0.2065  0.2636
   76MOL    C2524175   3.393   7.045   1.931  0.4634 -0.2054  0.5321
   76MOL    C2624176   3.516   6.978   1.644  0.4813  0.0426  0.0353
   76MOL    H2724177   3.671   7.075   1.761 -0.6964  0.1236  0.9390
   76MOL    H2824178   3.729   6.988   1.954 -0.1296  0.6631 -1.7442
   76MOL    H2924179   3.668   6.927   2.192  1.0487 -1.2255 -1.6579
   76MOL    H3024180   3.253   6.995   2.090  0.3104 -0.2322  1.8777
   76MOL    H3124181   3.319   7.063   1.854  0.4901  0.8332  0.7424
   76MOL    H3224182   3.504   6.883   1.697 -1.0267  1.0601  1.5784
   76MOL    H3324183   3.414   7.002   1.614  1.1169  3.5245  0.4829
   76MOL    C3424184   3.608   6.962   1.521  0.5612  0.1602 -0.7517
   76MOL    C3524185   3.754   6.941   1.554 -0.0802 -0.0510  0.2344
   76MOL    C3624186   3.793   6.868   1.667  0.1889  1.0812 -0.0566
   76MOL    C3724187   3.929   6.845   1.693  0.3200 -0.1543 -0.1849
   76MOL    C3824188   4.032   6.900   1.613  0.1073 -0.7528  0.0976
   76MOL    F3924189   4.157   6.887   1.663  0.1487 -0.0390  0.0494
   76MOL    C4024190   3.999   6.975   1.503  0.9053  0.1656  0.0678
   76MOL    C4124191   3.861   6.992   1.473 -0.1666 -0.1787 -0.3711
   76MOL    C4224192   3.551   6.855   1.426 -0.1900 -0.1153  0.2310
   76MOL    H4324193   3.608   7.057   1.469 -1.7617  1.0739  0.8116
   76MOL    H4424194   3.732   6.832   1.749 -0.0396  0.9000 -0.3023
   76MOL    H4524195   3.951   6.777   1.775  3.0326 -0.9002 -1.4769
   76MOL    H4624196   4.073   7.031   1.447  1.2281  0.1508  0.4773
   76MOL    H4724197   3.842   7.053   1.385 -0.1284 -0.9470 -0.9175
   76MOL    H4824198   3.614   6.854   1.336  2.6424  1.9259  2.1141
   76MOL    H4924199   3.566   6.760   1.477 -0.6047  0.1490  0.8420
   76MOL    C5024200   3.401   6.851   1.381 -0.2201 -0.0480  0.1995
   76MOL    C5124201   3.360   6.978   1.300  0.3056 -0.7806 -0.0458
   76MOL    C5224202   3.439   7.020   1.189  0.7166  0.1391 -0.7595
   76MOL    C5324203   3.398   7.132   1.111  0.3578  0.2657  0.1259
   76MOL    C5424204   3.271   7.189   1.128 -0.3170  1.3407  0.1479
   76MOL    F5524205   3.227   7.283   1.042 -0.2139  0.0729 -0.0895
   76MOL    C5624206   3.190   7.148   1.239 -0.3009 -0.4880  0.5156
   76MOL    C5724207   3.235   7.045   1.325  0.0339 -0.3436 -0.0393
   76MOL    C5824208   3.370   6.725   1.299  0.0303 -0.3220  0.2520
   76MOL    H5924209   3.348   6.856   1.477  0.6529 -1.2723  0.7528
   76MOL    H6024210   3.537   6.979   1.173 -0.3435 -2.2310 -1.4399
   76MOL    H6124211   3.460   7.162   1.027 -0.4602 -2.1377 -1.3835
   76MOL    H6224212   3.093   7.193   1.254 -0.5948 -0.4624 -1.2826
   76MOL    H6324213   3.183   7.021   1.416  0.4862  0.2523  0.3825
   76MOL    H6424214   3.271   6.734   1.256 -1.4734  0.9020  3.7732
   76MOL    H6524215   3.443   6.726   1.218 -0.0098 -1.4388  0.1951
   76MOL    C6624216   3.403   6.587   1.360 -0.4596  0.9874 -0.0983
   76MOL    C6724217   3.331   6.571   1.487  0.0679  0.4057  0.1489
   76MOL    C6824218   3.194   6.539   1.489 -0.8871  0.3986 -0.6233
   76MOL    C6924219   3.119   6.530   1.606  0.2918  0.4196 -0.1159
   76MOL    C7024220   3.182   6.552   1.731  0.0796 -0.1468  0.4851
   76MOL    F7124221   3.117   6.561   1.848  0.2587  0.0841 -0.4733
   76MOL    C7224222   3.318   6.580   1.730  0.3761  0.6753  0.6117
   76MOL    C7324223   3.395   6.586   1.611  0.2664  0.3723  0.3920
   76MOL    C7424224   3.381   6.468   1.261 -0.3250  0.0291  0.5897
   76MOL    H7524225   3.508   6.574   1.386 -1.1446 -0.9908  1.8965
   76MOL    H7624226   3.130   6.535   1.402 -1.6497 -0.4769 -0.0432
   76MOL    H7724227   3.013   6.514   1.596 -0.0706  1.6131  1.4705
   76MOL    H7824228   3.357   6.593   1.830  1.1872  0.2277  0.3519
   76MOL    H7924229   3.502   6.603   1.610  0.6112 -1.8051 -0.3487
   76MOL    H8024230   3.407   6.388   1.329  0.9695 -0.6263 -0.6590
   76MOL    H8124231   3.281   6.449   1.220  0.2152  1.4979 -1.5054
   76MOL    C8224232   3.478   6.455   1.143  0.0669 -0.1711 -0.1392
   76MOL    C8324233   3.612   6.533   1.149  0.7667  0.3987  0.1689
   76MOL    C8424234   3.632   6.639   1.056 -0.3608  0.0543  1.2078
   76MOL    C8524235   3.756   6.701   1.046  0.3406  0.3283 -0.2162
   76MOL    C8624236   3.855   6.664   1.131 -0.2087 -0.0658  0.2804
   76MOL    F8724237   3.972   6.734   1.132  0.4454 -0.4987  0.2133
   76MOL    C8824238   3.837   6.567   1.232  0.0054  0.2718 -0.4209
   76MOL    C8924239   3.714   6.497   1.239  0.4227 -0.5499 -0.1918
   76MOL    C9024240   3.503   6.310   1.119  0.3434  0.3031 -0.6984
   76MOL    H9124241   3.431   6.504   1.058  0.6380 -0.6571 -0.7508
   76MOL    H9224242   3.552   6.680   0.996 -0.0990 -0.1002  0.7564
   76MOL    H9324243   3.777   6.773   0.968 -0.3937  0.1656 -0.5611
   76MOL    H9424244   3.921   6.546   1.296 -0.3661 -0.0861 -0.0566
   76MOL    H9524245   3.708   6.412   1.306  2.3273  0.6094  1.5283
   76MOL    H9624246   3.583   6.291   1.048  0.3260 -0.9795 -0.3821
   76MOL    H9724247   3.542   6.257   1.206 -1.2591  1.3956  0.7182
   76MOL    C9824248   3.397   6.214   1.067 -0.1141  0.2297 -0.7521
   76MOL    C9924249   3.336   6.276   0.940  0.7029  0.6060 -0.0357
   76MOL   C10024250   3.398   6.247   0.819 -0.1014 -0.2342 -0.5619
   76MOL   C10124251   3.355   6.299   0.693  0.7046  0.6828  0.2784
   76MOL   C10224252   3.238   6.381   0.695 -1.0269  0.4179 -0.1824
   76MOL   F10324253   3.205   6.451   0.582 -0.0006  0.2816 -0.1884
   76MOL   C10424254   3.161   6.394   0.815  0.0729  0.5156 -0.8009
   76MOL   C10524255   3.212   6.351   0.940 -0.0357 -0.6021  0.1654
   76MOL   C10624256   3.428   6.065   1.049 -0.8313 -0.1257  0.3747
   76MOL   H10724257   3.323   6.217   1.147  0.7992 -1.4853  0.1639
   76MOL   H10824258   3.492   6.193   0.823  0.2487  0.3510 -0.8674
   76MOL   H10924259   3.417   6.296   0.605 -0.4694 -1.2632 -0.5163
   76MOL   H11024260   3.083   6.468   0.818 -0.0611  0.4546 -2.2409
   76MOL   H11124261   3.170   6.391   1.031 -0.8166 -0.0875 -0.4167
   76MOL   H11224262   3.363   6.011   0.979 -0.0105  1.1999 -1.4489
   76MOL   H11324263   3.522   6.058   0.996 -1.9574 -1.8130 -1.4811
   76MOL   C11424264   3.428   5.977   1.184  0.1135  0.3819  0.1521
   76MOL   C11524265   3.284   5.925   1.228 -0.0977  0.1837  0.7043
   76MOL   C11624266   3.226   5.809   1.171  0.2986 -0.7380  0.4946
   76MOL   C11724267   3.097   5.763   1.211  0.5692 -0.5574 -0.6032
   76MOL   C11824268   3.028   5.824   1.314 -0.0361  0.4291 -0.0705
   76MOL   F11924269   2.908   5.778   1.351  0.1543 -0.0938 -0.0730
   76MOL   C12024270   3.078   5.942   1.371 -0.4607  0.1003 -0.1387
   76MOL   C12124271   3.202   5.993   1.319 -0.7627  0.2150 -0.8520
   76MOL   C12224272   3.541   5.869   1.186 -0.2788 -0.1896  0.8747
   76MOL   H12324273   3.453   6.047   1.264  0.3470  1.4247 -0.8145
   76MOL   H12424274   3.273   5.756   1.089  1.0389 -0.7872  0.9459
   76MOL   H12524275   3.054   5.676   1.164 -2.5252  1.1322 -1.0462
   76MOL   H12624276   3.027   6.000   1.447 -0.8562  0.1962 -0.4788
   76MOL   H12724277   3.236   6.087   1.359 -3.2507  0.9599 -0.4336
   76MOL   H12824278   3.513   5.786   1.122 -2.5371  0.3862  1.0682
   76MOL   H12924279   3.631   5.915   1.144 -0.6393  1.2334  1.6057
   76MOL   C13024280   3.560   5.813   1.329  0.1582 -0.2854 -0.4254
   76MOL   C13124281   3.553   5.662   1.324 -0.0130  0.0008  0.5264
   76MOL   C13224282   3.660   5.592   1.264 -0.7139  0.1806  0.2186
   76MOL   C13324283   3.644   5.451   1.246  0.0635 -0.3690  0.2857
   76MOL   C13424284   3.533   5.387   1.290  0.3567 -0.3858 -0.6116
   76MOL   F13524285   3.532   5.253   1.275  0.0285  0.2203 -0.2846
   76MOL   C13624286   3.431   5.456   1.362 -0.4052 -0.3219  1.3006
   76MOL   C13724287   3.436   5.598   1.374  0.5569  0.2009 -0.3578
   76MOL   C13824288   3.685   5.869   1.405 -0.6227 -0.3385  0.3075
   76MOL   H13924289   3.475   5.842   1.391  2.7089  1.5171  2.3545
   76MOL   H14024290   3.752   5.637   1.230 -2.0998  1.3945 -2.0737
   76MOL   H14124291   3.726   5.395   1.203  1.2668  0.7136  1.1289
   76MOL   H14224292   3.345   5.403   1.401  0.1052  0.0318  2.9394
   76MOL   H14324293   3.357   5.650   1.426  1.5428  1.4979 -0.1494
   76MOL   H14424294   3.703   5.795   1.483 -0.8751 -1.9647 -1.1234
   76MOL   H14524295   3.778   5.844   1.353 -1.0701  1.3943 -1.3455
   76MOL   C14624296   3.678   6.014   1.439 -0.2463 -0.4179 -0.5178
   76MOL   C14724297   3.556   6.045   1.531  0.3976 -0.1666 -0.4435
   76MOL   C14824298   3.489   6.166   1.524  0.0930 -1.0141  0.3059
   76MOL   C14924299   3.386   6.197   1.612  0.2039 -0.2990 -0.0962
   76MOL   C15024300   3.361   6.108   1.717 -0.8542 -0.4734 -0.0194
   76MOL   F15124301   3.278   6.145   1.813 -0.7355 -0.1958 -0.4725
   76MOL   C15224302   3.422   5.985   1.724  0.0450  0.0846  0.5424
   76MOL   C15324303   3.522   5.953   1.635  0.0061 -0.7618 -0.4218
   76MOL   C15424304   3.807   6.062   1.502 -0.0502  0.4422 -0.1480
   76MOL   H15524305   3.665   6.073   1.349  1.2263  3.5318  1.7304
   76MOL   H15624306   3.508   6.246   1.453  2.6002 -0.5006  1.4984
   76MOL   H15724307   3.346   6.296   1.625 -1.3840 -0.7275 -1.4425
   76MOL   H15824308   3.395   5.923   1.808 -0.9326 -0.3970 -0.1244
   76MOL   H15924309   3.569   5.856   1.638 -1.1019 -1.2836  0.2093
   76MOL   H16024310   3.788   6.163   1.537 -0.1399  0.0659  0.9214
   76MOL   H16124311   3.822   6.004   1.593  0.5693  0.3596 -0.3013
   76MOL   C16224312   3.937   6.065   1.418 -0.3179  0.2420  0.0084
   76MOL   C16324313   3.918   6.057   1.265 -0.1776 -0.3855  0.2405
   76MOL   C16424314   3.953   5.941   1.190  0.4418 -0.5771  0.2437
   76MOL   C16524315   3.940   5.932   1.051  0.9286 -0.1127 -0.5864
   76MOL   C16624316   3.877   6.042   0.990  1.1656  0.2929 -0.0459
   76MOL   F16724317   3.853   6.037   0.857  0.6994  0.4949 -0.0505
   76MOL   C16824318   3.839   6.158   1.065 -0.6687  0.3517  0.1200
   76MOL   C16924319   3.863   6.171   1.198  0.7527  0.7189  0.3756
   76MOL   C17024320   4.023   6.193   1.454 -1.2679  0.3827 -0.0176
   76MOL   H17124321   3.995   5.979   1.451 -0.2845  0.7910  1.3950
   76MOL   H17224322   4.001   5.862   1.245  0.3119 -1.1569 -0.4578
   76MOL   H17324323   3.960   5.840   0.998 -0.4847 -0.7562 -0.0224
   76MOL   H17424324   3.794   6.239   1.009  0.1143  0.1811 -0.7734
   76MOL   H17524325   3.845   6.263   1.250  0.2756  0.4781  0.6325
   76MOL   H17624326   3.958   6.272   1.416  0.4253  1.2641 -1.1547
   76MOL   H17724327   4.023   6.213   1.561 -1.1038 -1.9235  0.4295
   76MOL   C17824328   4.161   6.215   1.386  0.2354  0.1355  0.3191
   76MOL   C17924329   4.195   6.371   1.376 -0.2745  0.7373  0.6368
   76MOL   C18024330   4.260   6.420   1.262  0.2048  0.9363  0.1029
   76MOL   C18124331   4.281   6.556   1.247  0.6215  0.4575 -0.2847
   76MOL   C18224332   4.260   6.647   1.354  0.1520 -0.6821 -0.8720
   76MOL   F18324333   4.285   6.775   1.332 -0.2102 -0.5795 -0.0190
   76MOL   C18424334   4.201   6.602   1.471 -0.4355  0.2595 -0.2033
   76MOL   C18524335   4.167   6.467   1.478 -0.6867  0.3966 -0.2151
   76MOL   C18624336   4.272   6.141   1.469  0.9915  0.6535 -0.1047
   76MOL   H18724337   4.164   6.172   1.286 -1.3927  0.9964 -0.1218
   76MOL   H18824338   4.279   6.368   1.169  0.6797 -0.7750  1.1426
   76MOL   H18924339   4.313   6.594   1.152 -0.5486  1.1331 -0.4228
   76MOL   H19024340   4.179   6.673   1.549  0.6335 -1.2055  1.4694
   76MOL   H19124341   4.121   6.435   1.571 -0.0388 -0.5842 -0.2190
   76MOL   H19224342   4.300   6.207   1.551 -2.4186  0.2829  1.4640
   76MOL   H19324343   4.230   6.057   1.524  0.4656  0.3169 -0.9984
   76MOL   C19424344   4.398   6.098   1.390 -0.9213  1.2020 -0.7169
   76MOL   C19524345   4.504   6.204   1.382  0.8970  0.6624 -0.2582
   76MOL   C19624346   4.547   6.246   1.251  0.5365 -0.3738 -0.6633
   76MOL   C19724347   4.662   6.324   1.243  0.1921 -0.0205 -0.5050
   76MOL   C19824348   4.723   6.374   1.359 -0.0615 -0.1054  0.0895
   76MOL   F19924349   4.833   6.458   1.346  0.3750  0.2703 -0.0456
   76MOL   C20024350   4.668   6.347   1.490 -0.3514 -0.1262  0.0700
   76MOL   C20124351   4.559   6.262   1.497 -0.0067 -0.5017  0.1884
   76MOL   C20224352   4.468   5.973   1.458 -0.5443 -0.0483  0.7341
   76MOL   H20324353   4.369   6.083   1.286  0.4606 -0.3330 -0.8988
   76MOL   H20424354   4.520   6.197   1.158  0.5734 -1.1925 -0.2407
   76MOL   H20524355   4.708   6.352   1.149 -0.1608  0.6953 -0.4723
   76MOL   H20624356   4.729   6.378   1.573 -0.4436 -0.4852  0.2762
   76MOL   H20724357   4.532   6.228   1.596 -1.0780  0.8960  0.3978
   76MOL   H20824358   4.569   5.987   1.497  0.1416 -0.7313 -0.7934
   76MOL   H20924359   4.414   5.949   1.549  0.7277 -2.2653  0.9488
   76MOL   C21024360   4.475   5.846   1.361  0.9721  0.0194 -0.5235
   76MOL   C21124361   4.539   5.879   1.220  0.2720 -0.5161 -0.2288
   76MOL   C21224362   4.470   5.856   1.098  0.3544 -1.1148  0.0490
   76MOL   C21324363   4.536   5.899   0.982 -0.2263 -0.8359 -0.4216
   76MOL   C21424364   4.657   5.969   0.987 -0.0401 -0.0969 -0.1105
   76MOL   F21524365   4.724   5.996   0.874  0.2782 -0.0652 -0.1242
   76MOL   C21624366   4.726   5.988   1.109  0.3552  0.0571  0.1265
   76MOL   C21724367   4.671   5.934   1.228 -0.0450  0.3647 -0.4493
   76MOL   C21824368   4.547   5.731   1.439  0.1525  0.0465  0.4083
   76MOL   H21924369   4.371   5.820   1.339 -0.1474  3.7596 -0.0595
   76MOL   H22024370   4.374   5.806   1.092  0.2843 -1.0595  0.7419
   76MOL   H22124371   4.495   5.879   0.884 -3.3739  0.9405  0.4420
   76MOL   H22224372   4.824   6.033   1.113  0.0379  0.7498  0.1759
   76MOL   H22324373   4.728   5.945   1.319 -2.7690  1.0226  1.2638
   76MOL   H22424374   4.651   5.753   1.462 -0.0412  0.6193  0.7367
   76MOL   H22524375   4.501   5.739   1.537  1.0156 -0.5706  0.8682
   76MOL   C22624376   4.507   5.591   1.391  0.3623 -0.2651 -0.0709
   76MOL   C22724377   4.579   5.563   1.260  0.2370 -0.5805 -1.2493
   76MOL   C22824378   4.508   5.500   1.157 -0.0663  0.0933 -0.3948
   76MOL   C22924379   4.569   5.468   1.034 -0.0763  0.2165 -0.0573
   76MOL   C23024380   4.710   5.488   1.017 -0.7965  0.1237  0.3862
   76MOL   F23124381   4.765   5.451   0.893  0.8122 -0.1053  0.0083
   76MOL   C23224382   4.784   5.546   1.122 -0.4136  0.0997  0.0745
   76MOL   C23324383   4.721   5.583   1.243 -0.3109  0.0494  0.2844
   76MOL   C23424384   4.537   5.485   1.495 -0.0082  0.5264 -0.3742
   76MOL   H23524385   4.399   5.579   1.389  0.2651  0.2149  1.8686
   76MOL   H23624386   4.402   5.478   1.166  0.1888 -1.1252 -0.3669
   76MOL   H23724387   4.501   5.419   0.966 -0.8923 -1.4315  1.8828
   76MOL   H23824388   4.888   5.562   1.102  0.0299 -1.1303  1.2821
   76MOL   H23924389   4.786   5.633   1.313 -2.1542  0.6829  1.5775
   76MOL   H24024390   4.643   5.498   1.511 -0.1842  0.1365  1.2274
   76MOL   H24124391   4.489   5.515   1.588 -0.3286 -2.3441  0.4594
   76MOL   C24224392   4.503   5.336   1.466  0.0985 -0.2574  0.4016
   76MOL   C24324393   4.595   5.246   1.542  0.1282  0.6819 -0.2692
   76MOL   C24424394   4.566   5.177   1.665  0.0088  0.1581  0.3511
   76MOL   C24524395   4.675   5.108   1.719  0.7736  0.3560 -0.1480
   76MOL   C24624396   4.800   5.089   1.657 -0.1303  0.0409  0.2198
   76MOL   F24724397   4.895   5.013   1.720 -0.0751  0.1327  0.0465
   76MOL   C24824398   4.824   5.153   1.538 -0.6464  0.2370  0.3113
   76MOL   C24924399   4.722   5.233   1.479  0.0107  0.6125 -0.3736
   76MOL   C25024400   4.351   5.307   1.482  0.1714 -0.1899  0.2913
   76MOL   H25124401   4.532   5.309   1.365 -2.2231  0.4932 -0.4974
   76MOL   H25224402   4.478   5.182   1.727  0.6583 -0.5743  1.3490
   76MOL   H25324403   4.649   5.064   1.815 -0.3042  0.3594 -0.4269
   76MOL   H25424404   4.924   5.155   1.498 -1.4471  3.8071 -1.7225
   76MOL   H25524405   4.749   5.285   1.389  1.3202 -2.0189 -1.5556
   76MOL   H25624406   4.314   5.311   1.584 -1.3317  1.5774 -0.2709
   76MOL   H25724407   4.292   5.391   1.443  0.9074  0.6091  0.8694
   76MOL   C25824408   4.309   5.165   1.438 -0.7652 -0.1220 -0.1440
   76MOL   C25924409   4.165   5.131   1.470  0.1098  0.1421  0.6227
   76MOL   C26024410   4.129   5.012   1.542  0.1648  0.7972  0.8229
   76MOL   C26124411   3.992   4.996   1.580 -0.0947  0.3144  0.3190
   76MOL   C26224412   3.895   5.090   1.533 -0.3204 -0.2366 -0.1649
   76MOL   F26324413   3.767   5.080   1.586  0.3332 -0.0197 -0.2385
   76MOL   C26424414   3.930   5.196   1.453  0.3485 -0.1745  0.5073
   76MOL   C26524415   4.068   5.221   1.425 -0.3316  0.5745  0.1169
   76MOL   C26624416   4.329   5.142   1.293  0.3463 -0.3905  0.3522
   76MOL   H26724417   4.367   5.098   1.501 -0.0035  1.4232  0.8107
   76MOL   H26824418   4.204   4.940   1.575 -0.6249 -0.8217 -0.8272
   76MOL   H26924419   3.962   4.909   1.636 -1.1500 -0.4184 -1.3407
   76MOL   H27024420   3.848   5.257   1.419 -1.2147 -1.7575  1.3704
   76MOL   H27124421   4.100   5.305   1.365  1.5600  2.0754  3.0530
   76MOL   H27224422   4.240   5.092   1.254  0.6241 -1.3418  0.9287
   76MOL   H27324423   4.335   5.233   1.234 -0.2152 -0.6465 -0.1052
   76MOL   C27424424   4.461   5.059   1.251 -0.4155  0.8477 -0.3963
   76MOL   C27524425   4.457   4.915   1.326  0.1135  0.4534  0.9036
   76MOL   C27624426   4.543   4.890   1.438  0.2842  0.2625 -0.1765
   76MOL   C27724427   4.526   4.773   1.512  0.6091  0.0819 -0.6865
   76MOL   C27824428   4.420   4.677   1.486  0.4104  0.7961  0.3921
   76MOL   F27924429   4.405   4.567   1.557 -0.3381 -0.3767  0.2623
   76MOL   C28024430   4.335   4.704   1.375 -0.5038 -0.6009 -0.4760
   76MOL   C28124431   4.363   4.817   1.290 -0.1281  0.8112 -0.2846
   76MOL   C28224432   4.499   5.057   1.100 -0.5415 -0.2412  0.3049
   76MOL   H28324433   4.543   5.113   1.297 -1.0760  0.1556  1.7066
   76MOL   H28424434   4.617   4.960   1.472  2.5559 -1.4879 -1.3747
   76MOL   H28524435   4.594   4.758   1.595  1.8137  0.3369 -1.6042
   76MOL   H28624436   4.254   4.635   1.356 -1.2205  0.1787 -0.2829
   76MOL   H28724437   4.284   4.846   1.223 -1.1682  1.1497  1.0602
   76MOL   H28824438   4.422   4.996   1.052 -1.0423  0.8320 -0.2871
   76MOL   H28924439   4.487   5.158   1.062  1.8191 -0.2849 -0.5764
   76MOL   C29024440   4.629   4.991   1.057 -0.7517 -0.5170 -0.3367
   76MOL   C29124441   4.642   4.969   0.906  0.3319  0.0819  0.0431
   76MOL   C29224442   4.641   5.081   0.821  0.3411  0.3660 -0.2925
   76MOL   C29324443   4.661   5.067   0.682 -0.6214 -0.3597 -0.4236
   76MOL   C29424444   4.655   4.940   0.624 -0.0714  0.6001  0.4992
   76MOL   F29524445   4.651   4.932   0.488  0.1009 -0.3022 -0.1686
   76MOL   C29624446   4.642   4.829   0.700  0.0719  0.3989 -0.6865
   76MOL   C29724447   4.642   4.843   0.842 -0.0491  0.1837  0.1297
   76MOL   C29824448   4.754   5.060   1.119 -0.4852 -0.5322 -0.2127
   76MOL   H29924449   4.629   4.894   1.107  1.6125  0.2797  1.2928
   76MOL   H30024450   4.644   5.181   0.861 -0.9627  0.0368  0.6488
   76MOL   H30124451   4.664   5.157   0.623  0.1993  0.2725  0.5602
   76MOL   H30224452   4.627   4.734   0.651 -1.4978  1.3816 -2.1511
   76MOL   H30324453   4.636   4.753   0.902  1.5222 -0.2038 -0.2748
   76MOL   H30424454   4.755   5.167   1.097 -3.9562 -0.8448 -2.2729
   76MOL   H30524455   4.732   5.039   1.223 -0.1133 -0.0513 -0.0354
   76MOL   C30624456   4.894   5.002   1.089  0.4051 -0.0971  0.1715
   76MOL   C30724457   4.977   5.076   0.986  0.2664 -0.5250 -0.0980
   76MOL   C30824458   5.029   5.200   1.008 -0.3100  0.8220  0.2497
   76MOL   C30924459   5.113   5.261   0.916  0.6719 -0.1053 -0.2500
   76MOL   C31024460   5.137   5.191   0.795 -0.2604  1.0862  0.6998
   76MOL   F31124461   5.198   5.253   0.684 -0.0080 -0.3329 -0.3919
   76MOL   C31224462   5.068   5.072   0.770 -0.7605 -0.9243  0.5248
   76MOL   C31324463   4.992   5.009   0.864 -0.1393  0.0309  0.5556
   76MOL   C31424464   4.973   4.985   1.215  0.6738  0.2066  0.4538
   76MOL   H31524465   4.871   4.902   1.051  1.5293 -0.6451  0.9061
   76MOL   H31624466   4.998   5.257   1.094 -0.7602  0.8251  0.0858
   76MOL   H31724467   5.154   5.360   0.932 -0.0377  0.0033  0.9670
   76MOL   H31824468   5.091   5.028   0.674  1.1265 -0.3137  0.6852
   76MOL   H31924469   4.949   4.912   0.847 -2.3401  1.0109  0.3365
   76MOL   H32024470   4.969   5.071   1.282 -1.2468 -0.5600  1.3546
   76MOL   H32124471   4.927   4.908   1.278 -0.8746  0.8987  0.1948
   76MOL   H32224472   5.070   4.936   1.206  0.9960  0.9925 -0.3955
   77MOL     C124473   3.528   6.807   3.048  0.1693 -0.6056  0.2011
   77MOL     C224474   3.636   6.888   2.984 -0.3288 -0.1018  0.5904
   77MOL     C324475   3.679   7.005   3.052 -0.2049 -0.3336 -0.2576
   77MOL     C424476   3.786   7.081   2.998 -0.6546  0.2178 -0.1682
   77MOL     C524477   3.853   7.033   2.878  0.1795 -0.0960  0.2267
   77MOL     F624478   3.962   7.097   2.829  0.2544  0.5962 -0.2069
   77MOL     C724479   3.807   6.919   2.810 -0.1338 -0.1983 -0.0423
   77MOL     C824480   3.692   6.858   2.856  0.7062  0.5236 -0.0928
   77MOL     C924481   3.564   6.658   3.063 -0.0979  0.0350 -0.5051
   77MOL    H1024482   3.439   6.823   2.987 -0.3874  1.9447  1.6058
   77MOL    H1124483   3.642   7.027   3.152  1.2471  0.3943  0.1273
   77MOL    H1224484   3.816   7.175   3.042 -0.5257  0.4370 -0.7123
   77MOL    H1324485   3.856   6.888   2.719  1.4537  1.1244  0.3491
   77MOL    H1424486   3.647   6.769   2.815  0.5501 -0.3455  1.8930
   77MOL    H1524487   3.623   6.633   2.975 -2.0477 -1.8714 -1.3140
   77MOL    H1624488   3.630   6.657   3.150 -2.4685  1.5144  1.3610
   77MOL    H1724489   3.504   6.839   3.150 -1.5166  1.2133 -0.7248
   77MOL    C1824490   3.454   6.544   3.066 -0.3735 -0.0529  0.0374
   77MOL    C1924491   3.521   6.414   3.024 -0.2975  0.2094  0.8910
   77MOL    C2024492   3.461   6.339   2.925  0.5589  0.2371 -0.1277
   77MOL    C2124493   3.504   6.209   2.890  0.3205  0.0553  0.3049
   77MOL    C2224494   3.621   6.155   2.953  0.0778  0.2297 -0.0556
   77MOL    F2324495   3.657   6.028   2.928  0.2959 -0.6082  0.0458
   77MOL    C2424496   3.689   6.234   3.052 -0.0771  0.1151 -0.5534
   77MOL    C2524497   3.633   6.358   3.094  0.0342  0.7307  0.0193
   77MOL    C2624498   3.386   6.535   3.203  0.3704 -0.1083 -0.6878
   77MOL    H2724499   3.380   6.569   2.990 -2.5045 -2.4808  1.2182
   77MOL    H2824500   3.371   6.377   2.878  1.9086  2.7582 -0.8122
   77MOL    H2924501   3.457   6.163   2.805  1.1086 -1.7253  0.8164
   77MOL    H3024502   3.778   6.201   3.103 -0.2456 -0.3529 -0.5585
   77MOL    H3124503   3.681   6.423   3.167 -0.7502 -0.1449  1.3376
   77MOL    H3224504   3.309   6.458   3.191 -1.2609  1.6531 -1.7520
   77MOL    H3324505   3.448   6.482   3.275  2.0338  1.3455 -1.0308
   77MOL    C3424506   3.313   6.660   3.262 -0.8898  0.3300 -0.5317
   77MOL    C3524507   3.206   6.716   3.174 -0.6250 -0.4758  0.0750
   77MOL    C3624508   3.118   6.634   3.099 -0.8268 -0.1565  0.9271
   77MOL    C3724509   3.033   6.698   3.004 -0.1100 -0.0426 -0.4262
   77MOL    C3824510   3.026   6.836   2.992  0.5558  0.6154  0.1813
   77MOL    F3924511   2.933   6.882   2.911 -0.3147 -0.0920 -0.1149
   77MOL    C4024512   3.107   6.919   3.072  0.6689  0.0623 -0.3187
   77MOL    C4124513   3.204   6.856   3.155 -0.0081 -0.9231 -0.3425
   77MOL    C4224514   3.250   6.628   3.396  0.0962 -0.2966 -0.7665
   77MOL    H4324515   3.390   6.732   3.291 -0.5625 -0.2021 -0.0688
   77MOL    H4424516   3.121   6.527   3.105  0.6136 -0.3086 -1.6441
   77MOL    H4524517   2.965   6.648   2.937  0.6264 -0.7613 -0.6338
   77MOL    H4624518   3.098   7.026   3.065  0.5701  0.0941  0.2331
   77MOL    H4724519   3.278   6.916   3.206  0.5789 -2.2239  0.3297
   77MOL    H4824520   3.195   6.714   3.433 -1.6586 -1.2722 -1.0395
   77MOL    H4924521   3.164   6.563   3.375 -0.1676  0.2499 -1.3922
   77MOL    C5024522   3.329   6.562   3.507 -0.2344 -0.3017 -0.0192
   77MOL    C5124523   3.446   6.647   3.562 -0.4500 -0.1294  0.2667
   77MOL    C5224524   3.579   6.594   3.553  0.5999  0.1206  0.3630
   77MOL    C5324525   3.690   6.669   3.602  0.0745 -0.0922  0.4321
   77MOL    C5424526   3.670   6.788   3.672 -0.4119  0.0940  0.1708
   77MOL    F5524527   3.763   6.865   3.737  0.3473  0.2898 -0.3516
   77MOL    C5624528   3.538   6.839   3.687  0.8029  0.1533 -0.3065
   77MOL    C5724529   3.425   6.765   3.635 -0.4202 -0.5905  0.9114
   77MOL    C5824530   3.234   6.511   3.618 -0.4218 -0.0382 -0.2886
   77MOL    H5924531   3.369   6.476   3.454  0.4981  0.2551 -0.3744
   77MOL    H6024532   3.595   6.500   3.502  0.9116 -0.6538  1.8445
   77MOL    H6124533   3.790   6.628   3.593  0.8300  1.8009  0.0417
   77MOL    H6224534   3.520   6.928   3.746  0.0188 -0.1822 -0.0278
   77MOL    H6324535   3.327   6.807   3.650  0.7019  2.1299  0.9186
   77MOL    H6424536   3.191   6.601   3.663 -0.2593 -0.2562  0.3027
   77MOL    H6524537   3.143   6.464   3.581  0.2890 -0.4348 -1.5532
   77MOL    C6624538   3.296   6.422   3.734 -0.4599 -0.2031 -0.3360
   77MOL    C6724539   3.329   6.513   3.856 -0.1836  0.3466 -0.1752
   77MOL    C6824540   3.464   6.536   3.885 -0.9692  0.0280  0.0684
   77MOL    C6924541   3.497   6.606   4.002  0.4538 -0.4434  0.0993
   77MOL    C7024542   3.399   6.661   4.086 -0.0051  0.1091 -0.0655
   77MOL    F7124543   3.443   6.731   4.194 -0.1110 -0.1334 -0.3043
   77MOL    C7224544   3.263   6.644   4.052  0.3974  0.2287  0.0002
   77MOL    C7324545   3.229   6.567   3.936 -0.7534 -0.1359 -0.1904
   77MOL    C7424546   3.197   6.308   3.774 -0.3225  0.1218 -0.2486
   77MOL    H7524547   3.388   6.374   3.700  1.1942  2.4570  0.2390
   77MOL    H7624548   3.538   6.495   3.818 -2.2679 -0.4459 -1.1144
   77MOL    H7724549   3.602   6.620   4.018  0.8458 -0.3756 -2.3286
   77MOL    H7824550   3.192   6.694   4.116 -0.9899  0.9730 -2.0486
   77MOL    H7924551   3.126   6.562   3.904 -0.3655 -1.4809 -1.2791
   77MOL    H8024552   3.237   6.255   3.861  0.9349  0.0275 -0.8738
   77MOL    H8124553   3.102   6.350   3.807  0.0825  0.7836  0.0986
   77MOL    C8224554   3.170   6.205   3.664 -0.2260  0.0592  0.1995
   77MOL    C8324555   3.285   6.175   3.568 -0.1794  0.4490 -0.4330
   77MOL    C8424556   3.400   6.119   3.624  0.1243 -0.2122 -0.0094
   77MOL    C8524557   3.514   6.098   3.551  0.1318  0.2788 -0.3273
   77MOL    C8624558   3.520   6.133   3.413 -0.7357  0.4095 -0.0953
   77MOL    F8724559   3.642   6.120   3.356 -0.4568  0.4647  0.0195
   77MOL    C8824560   3.403   6.185   3.348 -0.8031 -0.1187 -0.0292
   77MOL    C8924561   3.285   6.212   3.431 -0.1885 -0.1828 -0.2442
   77MOL    C9024562   3.104   6.078   3.718 -0.2573 -0.1011  0.0889
   77MOL    H9124563   3.087   6.245   3.605 -0.0803  0.7272  0.4531
   77MOL    H9224564   3.404   6.101   3.730 -1.9834  1.5843  0.3961
   77MOL    H9324565   3.592   6.062   3.617  0.1523 -1.6505 -1.3830
   77MOL    H9424566   3.411   6.207   3.242 -0.0319 -2.9581 -0.5938
   77MOL    H9524567   3.201   6.269   3.395  0.8965  2.0155  0.5777
   77MOL    H9624568   3.100   6.009   3.633 -0.1614 -1.6503  1.3147
   77MOL    H9724569   3.170   6.034   3.792 -2.2167  0.2541  2.0874
   77MOL    C9824570   2.963   6.102   3.786  0.0606 -0.4545 -0.2998
   77MOL    C9924571   2.871   6.174   3.694 -0.2503 -0.3553  0.5064
   77MOL   C10024572   2.835   6.114   3.570  0.7743  0.0438  0.1177
   77MOL   C10124573   2.734   6.170   3.495 -0.3445  0.1266  0.5598
   77MOL   C10224574   2.671   6.286   3.541 -0.9840  0.1637  0.2828
   77MOL   F10324575   2.567   6.330   3.472  0.4752  0.3332 -0.0424
   77MOL   C10424576   2.719   6.357   3.655 -0.8190 -0.5309 -0.4966
   77MOL   C10524577   2.813   6.293   3.731  0.3414 -0.3100 -0.1490
   77MOL   C10624578   2.910   5.970   3.840  0.7596 -0.0604  0.4388
   77MOL   H10724579   2.984   6.166   3.872 -1.3195 -0.4712  0.0491
   77MOL   H10824580   2.894   6.028   3.543  1.4807  0.6267 -0.2102
   77MOL   H10924581   2.690   6.125   3.407 -0.9744  0.3865  0.7424
   77MOL   H11024582   2.673   6.450   3.685  0.1135 -0.0120 -0.6542
   77MOL   H11124583   2.845   6.342   3.822  1.2286 -0.0465 -0.5975
   77MOL   H11224584   2.897   5.901   3.757 -1.4017  2.1805 -1.1473
   77MOL   H11324585   2.986   5.919   3.900  0.6539  0.9479  1.4444
   77MOL   C11424586   2.776   5.974   3.926 -0.5263  0.0835  0.2483
   77MOL   C11524587   2.651   5.961   3.836 -0.2553  0.0507  0.6083
   77MOL   C11624588   2.549   6.058   3.838  0.5614  0.0859 -0.0610
   77MOL   C11724589   2.437   6.045   3.751 -0.4323  0.0352  0.4134
   77MOL   C11824590   2.428   5.939   3.657  0.3827  0.0761 -0.0382
   77MOL   F11924591   2.328   5.931   3.574  0.3156 -0.0262 -0.5109
   77MOL   C12024592   2.529   5.842   3.656  0.4528  0.3171  0.7154
   77MOL   C12124593   2.638   5.852   3.747  0.9169 -0.1646 -0.1375
   77MOL   C12224594   2.769   5.856   4.026 -0.6352  0.2916 -0.4259
   77MOL   H12324595   2.780   6.076   3.965  1.0114 -0.6228  1.9823
   77MOL   H12424596   2.547   6.135   3.913  1.9806 -0.9901  1.1283
   77MOL   H12524597   2.368   6.126   3.735  1.0058  1.0063 -1.0756
   77MOL   H12624598   2.527   5.756   3.591 -2.7965 -0.5068  1.8218
   77MOL   H12724599   2.719   5.780   3.746 -0.4787 -1.8287  1.5706
   77MOL   H12824600   2.670   5.812   4.040 -0.0789 -1.0087 -0.4606
   77MOL   H12924601   2.811   5.764   3.984 -3.1166 -0.5088 -1.3141
   77MOL   C13024602   2.839   5.892   4.157 -0.1955  0.4270 -0.6708
   77MOL   C13124603   2.775   6.018   4.225 -0.6949  0.9209  0.9554
   77MOL   C13224604   2.635   6.053   4.209 -0.2145 -0.2358 -0.3320
   77MOL   C13324605   2.571   6.155   4.283 -0.0227 -1.0804 -0.3963
   77MOL   C13424606   2.644   6.239   4.368 -0.1375  0.3403  0.8445
   77MOL   F13524607   2.595   6.336   4.448 -0.3334 -0.0337  0.3871
   77MOL   C13624608   2.776   6.205   4.389  0.4101  0.6218 -0.3027
   77MOL   C13724609   2.847   6.105   4.314  0.1716 -0.4106 -0.3484
   77MOL   C13824610   2.848   5.771   4.250  0.5789 -0.5583 -0.3613
   77MOL   H13924611   2.940   5.929   4.139 -0.2273  0.0560 -1.6531
   77MOL   H14024612   2.583   5.982   4.147 -0.4178  0.8036 -1.3711
   77MOL   H14124613   2.469   6.186   4.269  0.7285  2.9297  2.2781
   77MOL   H14224614   2.829   6.257   4.467 -0.2970  0.8673  0.0192
   77MOL   H14324615   2.950   6.101   4.345  0.5462  0.0590 -1.4612
   77MOL   H14424616   2.750   5.764   4.297 -0.3532  0.6891 -2.0460
   77MOL   H14524617   2.856   5.681   4.190 -0.2048  0.0815 -1.4356
   77MOL   C14624618   2.969   5.787   4.350  0.4823  0.7007 -0.0853
   77MOL   C14724619   2.935   5.839   4.490 -0.5132 -0.1842 -0.5961
   77MOL   C14824620   2.826   5.796   4.566 -0.0442 -0.0629  0.4290
   77MOL   C14924621   2.804   5.839   4.700 -0.0740 -0.1393 -0.6113
   77MOL   C15024622   2.897   5.928   4.758 -0.5988 -0.6851  0.1463
   77MOL   F15124623   2.882   5.954   4.888  0.0750 -0.5465 -0.3076
   77MOL   C15224624   3.002   5.979   4.677 -0.4462 -0.0135 -0.4247
   77MOL   C15324625   3.024   5.933   4.549  0.0804 -0.1378  0.1481
   77MOL   C15424626   3.033   5.648   4.364  0.7139  0.2837 -0.7161
   77MOL   H15524627   3.050   5.852   4.316  0.3668  1.7471  1.6104
   77MOL   H15624628   2.753   5.736   4.514 -1.8698  1.4552  1.1753
   77MOL   H15724629   2.717   5.807   4.755 -0.8446 -0.1196 -1.7809
   77MOL   H15824630   3.067   6.055   4.717 -0.8770 -0.5398  1.3104
   77MOL   H15924631   3.102   5.975   4.488 -0.1778  0.7697  0.4389
   77MOL   H16024632   3.112   5.654   4.438  0.8784 -0.4600 -0.8274
   77MOL   H16124633   2.954   5.583   4.403  0.5249  1.1819  0.4399
   77MOL   C16224634   3.079   5.571   4.243 -0.0416 -1.0027 -0.4122
   77MOL   C16324635   3.145   5.651   4.138  0.5802 -0.5898 -0.0940
   77MOL   C16424636   3.248   5.736   4.170 -0.3866  0.0621  0.4937
   77MOL   C16524637   3.322   5.803   4.072 -0.6865 -0.4561  0.4288
   77MOL   C16624638   3.289   5.793   3.937 -0.8397 -0.0869  0.0431
   77MOL   F16724639   3.377   5.851   3.850  0.2120 -0.0913  0.7083
   77MOL   C16824640   3.172   5.718   3.905 -0.3372  0.1764  0.0371
   77MOL   C16924641   3.101   5.645   4.003  0.4427 -0.5329 -0.2155
   77MOL   C17024642   3.175   5.458   4.283 -0.0058  0.1367 -0.2898
   77MOL   H17124643   2.991   5.526   4.197 -1.2713  0.5220  0.3930
   77MOL   H17224644   3.287   5.742   4.270 -1.8880  1.3637  1.0234
   77MOL   H17324645   3.406   5.863   4.104 -0.4154 -1.8993  2.4900
   77MOL   H17424646   3.139   5.713   3.802  1.5199  0.4727 -0.5799
   77MOL   H17524647   3.016   5.584   3.976  0.2460 -0.0783 -0.6356
   77MOL   H17624648   3.268   5.500   4.323 -0.3595  1.6014 -0.9998
   77MOL   H17724649   3.130   5.397   4.362 -0.7278 -1.4457 -1.8823
   77MOL   C17824650   3.225   5.369   4.154 -0.2147 -0.5327  0.7529
   77MOL   C17924651   3.370   5.322   4.173  0.3576  0.4816  0.2139
   77MOL   C18024652   3.475   5.375   4.101 -0.1256  0.5030 -0.0188
   77MOL   C18124653   3.609   5.337   4.129 -0.6308 -0.5577 -0.6749
   77MOL   C18224654   3.637   5.240   4.232  0.0512 -0.7394  0.0353
   77MOL   F18324655   3.769   5.204   4.253 -0.7147 -0.4229  0.1489
   77MOL   C18424656   3.528   5.181   4.299  0.3572 -0.3412  0.1880
   77MOL   C18524657   3.395   5.222   4.268 -0.4456  0.4617 -0.0937
   77MOL   C18624658   3.132   5.252   4.114  0.4188  0.3410  0.0508
   77MOL   H18724659   3.238   5.433   4.067  0.4627 -1.8739 -0.1521
   77MOL   H18824660   3.453   5.455   4.031  0.8451  0.1174 -0.7823
   77MOL   H18924661   3.686   5.370   4.060 -1.0067 -1.4132 -1.5044
   77MOL   H19024662   3.563   5.120   4.381  0.8074 -0.3078  0.0241
   77MOL   H19124663   3.325   5.165   4.327 -0.9049 -0.0260 -1.1027
   77MOL   H19224664   3.133   5.177   4.194  2.1140  0.4105  0.1081
   77MOL   H19324665   3.028   5.284   4.106 -0.1062 -1.6466 -1.5417
   77MOL   C19424666   3.160   5.181   3.984 -0.0003  0.5317 -0.1221
   77MOL   C19524667   3.091   5.047   3.980 -0.1272 -0.6731 -0.8212
   77MOL   C19624668   3.161   4.930   4.021 -0.7822 -0.3002 -0.0284
   77MOL   C19724669   3.101   4.805   4.019  0.1228 -0.3524  0.5235
   77MOL   C19824670   2.970   4.791   3.973 -0.2190  0.4260 -0.0281
   77MOL   F19924671   2.912   4.672   3.972 -0.3508  0.2658  0.1016
   77MOL   C20024672   2.899   4.902   3.929  0.4443 -0.0221  0.2108
   77MOL   C20124673   2.956   5.029   3.940  0.2878  0.0894 -0.7609
   77MOL   C20224674   3.115   5.264   3.862  0.4239 -0.6218  0.5453
   77MOL   H20324675   3.268   5.177   3.969  0.1643  1.6932  0.6332
   77MOL   H20424676   3.264   4.932   4.053  0.3717 -0.3922 -3.5179
   77MOL   H20524677   3.148   4.716   4.058 -2.7471 -2.1644 -0.0144
   77MOL   H20624678   2.798   4.896   3.891  0.4873 -0.7897  0.2218
   77MOL   H20724679   2.889   5.111   3.921 -0.4047 -0.8360 -2.4136
   77MOL   H20824680   3.008   5.265   3.842  0.3497  0.1719  0.9839
   77MOL   H20924681   3.121   5.364   3.904  1.2717 -1.1280  1.6493
   77MOL   C21024682   3.210   5.267   3.732  0.3018 -0.0274 -0.1466
   77MOL   C21124683   3.173   5.154   3.636  0.0323  1.4767  0.1988
   77MOL   C21224684   3.270   5.054   3.607 -0.0391 -0.4701 -0.3310
   77MOL   C21324685   3.243   4.947   3.528 -0.4323  0.8367  0.3640
   77MOL   C21424686   3.114   4.931   3.465 -0.6213 -0.6850  0.2985
   77MOL   F21524687   3.081   4.820   3.392 -0.0346  0.0588  0.2916
   77MOL   C21624688   3.019   5.030   3.480 -0.7468  0.2050  0.0730
   77MOL   C21724689   3.053   5.142   3.563  0.1975  0.5960 -0.2191
   77MOL   C21824690   3.201   5.404   3.668  0.1087 -0.0094 -0.3608
   77MOL   H21924691   3.309   5.243   3.769  0.5991  0.3122 -0.7293
   77MOL   H22024692   3.372   5.058   3.641 -0.2573 -0.2025  0.2862
   77MOL   H22124693   3.329   4.887   3.503  0.0169  0.1061  3.4682
   77MOL   H22224694   2.928   5.027   3.422 -0.4656 -1.3067 -0.3115
   77MOL   H22324695   2.982   5.223   3.561 -2.6504 -1.7267  1.9149
   77MOL   H22424696   3.103   5.412   3.621  0.3477  0.2847 -0.8053
   77MOL   H22524697   3.209   5.485   3.742 -1.6483  2.5641 -2.8860
   77MOL   C22624698   3.324   5.426   3.573  0.0890  0.1227 -0.2828
   77MOL   C22724699   3.296   5.541   3.466  0.1535  0.2150  0.2194
   77MOL   C22824700   3.321   5.676   3.498 -0.8885  0.2292  1.2166
   77MOL   C22924701   3.308   5.772   3.396 -0.5058 -0.4910 -0.4937
   77MOL   C23024702   3.268   5.736   3.269 -0.1909  1.1323  0.2840
   77MOL   F23124703   3.269   5.829   3.165  0.5354  0.7470 -0.3143
   77MOL   C23224704   3.221   5.606   3.248  0.5860 -0.0522 -0.1547
   77MOL   C23324705   3.239   5.504   3.343 -0.3702  0.0217  0.0348
   77MOL   C23424706   3.455   5.460   3.662  0.0142 -0.6413  0.2611
   77MOL   H23524707   3.341   5.346   3.501  0.2101 -0.0834 -0.0255
   77MOL   H23624708   3.354   5.714   3.593 -0.4130  2.4411  0.2013
   77MOL   H23724709   3.329   5.875   3.420 -1.9556 -0.0428 -1.1013
   77MOL   H23824710   3.187   5.575   3.150  0.0993 -1.8138  0.5510
   77MOL   H23924711   3.211   5.401   3.326  0.0479 -0.4554  2.0301
   77MOL   H24024712   3.436   5.553   3.717 -2.2858 -1.1091  0.3068
   77MOL   H24124713   3.476   5.382   3.735  0.8738 -0.3151  0.3626
   77MOL   C24224714   3.577   5.492   3.582  0.1656 -0.0514 -0.0219
   77MOL   C24324715   3.667   5.602   3.643  0.0459 -0.0953  0.6746
   77MOL   C24424716   3.693   5.614   3.784 -0.2215 -0.8110  0.0511
   77MOL   C24524717   3.754   5.725   3.845 -0.1631  0.5953  0.0301
   77MOL   C24624718   3.782   5.831   3.759 -0.6189 -0.4020 -0.2065
   77MOL   F24724719   3.821   5.946   3.815  0.0991 -0.0490  0.0047
   77MOL   C24824720   3.764   5.827   3.619 -0.2177  0.0446  0.1296
   77MOL   C24924721   3.706   5.710   3.559 -0.9698 -0.0555 -0.0308
   77MOL   C25024722   3.656   5.367   3.536  0.1321  0.0628 -0.1773
   77MOL   H25124723   3.540   5.528   3.486  2.2464  1.0936 -0.4330
   77MOL   H25224724   3.652   5.533   3.842 -3.7393  0.7658 -0.0739
   77MOL   H25324725   3.764   5.729   3.953 -0.3232 -0.2473  0.0739
   77MOL   H25424726   3.792   5.900   3.544  1.3449 -0.4441  0.2209
   77MOL   H25524727   3.687   5.709   3.453 -1.6402  0.6915  0.0764
   77MOL   H25624728   3.661   5.307   3.626 -1.4395  0.0807 -0.0645
   77MOL   H25724729   3.594   5.309   3.468  1.3748 -0.8482 -0.5532
   77MOL   C25824730   3.793   5.396   3.471 -1.1475  0.1052  0.2067
   77MOL   C25924731   3.868   5.262   3.470  0.3951  0.3635  0.1605
   77MOL   C26024732   3.985   5.248   3.539  0.2246 -0.6220  0.2975
   77MOL   C26124733   4.052   5.125   3.534  0.1667  0.2508  0.3905
   77MOL   C26224734   4.009   5.018   3.455 -0.8114  0.5274  0.0156
   77MOL   F26324735   4.086   4.908   3.468  0.6751  0.3332 -0.1537
   77MOL   C26424736   3.894   5.031   3.375 -0.4977  0.4343 -0.1995
   77MOL   C26524737   3.822   5.157   3.391 -0.6887  0.4530  0.2736
   77MOL   C26624738   3.781   5.467   3.328 -0.2913 -0.4099 -0.0914
   77MOL   H26724739   3.835   5.463   3.546  1.0398 -0.0259 -0.8456
   77MOL   H26824740   4.015   5.325   3.609 -1.2678  0.4148 -0.1979
   77MOL   H26924741   4.128   5.110   3.609  2.0385  1.5422 -1.1734
   77MOL   H27024742   3.853   4.948   3.319 -1.3890  1.6819 -1.4097
   77MOL   H27124743   3.734   5.176   3.331 -0.6382  1.1644  0.4154
   77MOL   H27224744   3.750   5.402   3.246 -3.1001  0.1238  0.5046
   77MOL   H27324745   3.707   5.546   3.331 -1.7770 -1.7373 -0.9922
   77MOL   C27424746   3.912   5.552   3.301 -0.1862 -0.4010  0.3504
   77MOL   C27524747   4.043   5.481   3.299  0.1199  0.1789  0.2727
   77MOL   C27624748   4.053   5.363   3.224 -0.6648  0.0789  0.3296
   77MOL   C27724749   4.170   5.281   3.226 -0.1588 -0.2588  0.4429
   77MOL   C27824750   4.275   5.322   3.309 -0.7162 -0.9776 -0.8921
   77MOL   F27924751   4.386   5.242   3.326 -0.4354  0.3027  0.3355
   77MOL   C28024752   4.262   5.443   3.384  0.3883 -0.4325 -0.0336
   77MOL   C28124753   4.151   5.524   3.376 -0.6162 -0.6411  0.5830
   77MOL   C28224754   3.890   5.639   3.173 -0.4247  0.7180  0.1843
   77MOL   H28324755   3.921   5.619   3.386 -1.1415 -0.2161  0.3068
   77MOL   H28424756   3.983   5.331   3.148 -0.3059  0.1623 -0.0407
   77MOL   H28524757   4.178   5.190   3.168 -1.6249 -0.5929  0.7571
   77MOL   H28624758   4.345   5.473   3.446  2.1072 -1.1812 -1.8922
   77MOL   H28724759   4.147   5.610   3.441 -1.4591 -0.4467  0.2758
   77MOL   H28824760   3.889   5.570   3.089  0.9498  0.0495  0.6997
   77MOL   H28924761   3.790   5.683   3.178 -0.7282  0.1522 -0.8298
   77MOL   C29024762   3.996   5.746   3.152 -0.7394 -0.6292  0.0256
   77MOL   C29124763   3.993   5.801   3.011 -0.7162 -0.2230  0.2774
   77MOL   C29224764   4.117   5.806   2.933 -0.0451 -0.0482 -0.5246
   77MOL   C29324765   4.101   5.850   2.800 -0.9490 -1.0165 -0.0719
   77MOL   C29424766   3.979   5.889   2.747 -0.4992 -0.5420 -0.2806
   77MOL   F29524767   3.973   5.935   2.624 -0.7034  0.6301 -0.5564
   77MOL   C29624768   3.868   5.883   2.823 -0.2187  0.1691  0.3391
   77MOL   C29724769   3.870   5.840   2.957 -0.4279  0.1110  0.2985
   77MOL   C29824770   3.978   5.855   3.259  0.1502  0.5908 -0.3614
   77MOL   H29924771   4.092   5.695   3.163 -1.6095 -2.2694  0.2694
   77MOL   H30024772   4.211   5.776   2.976  0.2835  0.9011 -0.5669
   77MOL   H30124773   4.190   5.843   2.739  0.6403 -0.4458  2.1229
   77MOL   H30224774   3.782   5.906   2.763 -0.6914 -1.0722  0.5250
   77MOL   H30324775   3.774   5.831   3.005 -0.6964 -5.3451 -0.9430
   77MOL   H30424776   3.890   5.912   3.229 -0.3968  0.5027  1.0494
   77MOL   H30524777   3.968   5.815   3.359 -2.0276  2.7340  0.3063
   77MOL   C30624778   4.093   5.967   3.264 -0.7357  0.3914 -0.6459
   77MOL   C30724779   4.047   6.074   3.348  0.2004 -0.2064 -0.4177
   77MOL   C30824780   4.028   6.068   3.488  0.1736  0.2425 -0.8851
   77MOL   C30924781   3.962   6.169   3.563  0.0390 -0.3421  0.2642
   77MOL   C31024782   3.920   6.282   3.492 -0.0701  0.5993 -0.4755
   77MOL   F31124783   3.858   6.375   3.562  0.4735 -0.1051  0.1921
   77MOL   C31224784   3.933   6.297   3.353  0.1560 -0.1740 -0.1595
   77MOL   C31324785   3.994   6.186   3.284 -0.4146 -0.4691 -0.2669
   77MOL   C31424786   4.229   5.912   3.318  0.7686 -0.6853  1.1471
   77MOL   H31524787   4.107   6.000   3.161  2.9903 -3.0976 -1.3908
   77MOL   H31624788   4.063   5.983   3.545 -0.1345  1.1020  0.5955
   77MOL   H31724789   3.960   6.172   3.671  1.6821  1.8268  0.2767
   77MOL   H31824790   3.879   6.378   3.306  1.5039  0.3660 -0.8164
   77MOL   H31924791   3.989   6.181   3.177 -0.6148 -0.9671 -0.2333
   77MOL   H32024792   4.305   5.990   3.326 -0.1334  0.2835  0.3337
   77MOL   H32124793   4.224   5.888   3.424 -0.3423 -1.2949  0.9593
   77MOL   H32224794   4.266   5.826   3.262  0.2692 -0.5217  0.5547
   78MOL     C124795   3.497   2.949   5.246  0.2305 -0.1531 -0.2370
   78MOL     C224796   3.467   2.979   5.097  0.5200 -0.0790  0.5002
   78MOL     C324797   3.379   2.901   5.023  0.6209 -0.3106 -0.0923
   78MOL     C424798   3.350   2.934   4.886  0.0527  0.1455  0.0828
   78MOL     C524799   3.411   3.043   4.824  0.0563  0.5858  0.5457
   78MOL     F624800   3.379   3.064   4.692 -0.2316 -0.1630 -0.5984
   78MOL     C724801   3.498   3.125   4.901 -0.0467 -0.2279 -0.2888
   78MOL     C824802   3.521   3.096   5.039 -0.1271 -1.2568 -0.1689
   78MOL     C924803   3.388   2.994   5.349  0.8966 -0.0800  0.1258
   78MOL    H1024804   3.594   2.999   5.259  0.6608 -1.2915  1.0081
   78MOL    H1124805   3.335   2.817   5.074  0.8185  0.4195  1.2988
   78MOL    H1224806   3.283   2.873   4.827 -1.0090  2.5905 -1.3210
   78MOL    H1324807   3.535   3.214   4.852 -0.7101  0.7594  0.9659
   78MOL    H1424808   3.592   3.156   5.094  1.3778 -2.4521 -0.7453
   78MOL    H1524809   3.375   3.102   5.341  2.1514  0.3604  3.3154
   78MOL    H1624810   3.296   2.946   5.318  0.6345 -0.2937  1.2121
   78MOL    H1724811   3.522   2.843   5.255  0.3910 -0.0751  0.2878
   78MOL    C1824812   3.406   2.947   5.490  0.3933 -0.2239 -0.6585
   78MOL    C1924813   3.531   3.003   5.543  0.2477  0.7081 -0.3230
   78MOL    C2024814   3.535   3.134   5.587 -0.3805  0.2328 -1.6123
   78MOL    C2124815   3.658   3.187   5.627 -0.6678  0.8165 -0.5072
   78MOL    C2224816   3.775   3.106   5.608 -0.6862  0.7426 -0.0414
   78MOL    F2324817   3.891   3.165   5.640 -0.8422 -0.3726 -0.4319
   78MOL    C2424818   3.774   2.976   5.566  0.4444 -0.4821  0.5190
   78MOL    C2524819   3.648   2.920   5.531  0.0478 -0.7700 -0.0961
   78MOL    C2624820   3.281   2.981   5.574 -0.1472 -0.0050  0.0580
   78MOL    H2724821   3.415   2.838   5.494  4.2835  0.0472 -0.6045
   78MOL    H2824822   3.452   3.203   5.590 -2.2883 -2.0854 -0.4672
   78MOL    H2924823   3.662   3.288   5.664 -0.7894  0.2258  1.1247
   78MOL    H3024824   3.856   2.906   5.557  0.4655 -0.2750 -0.9444
   78MOL    H3124825   3.647   2.823   5.484  1.8455 -0.6762 -0.3542
   78MOL    H3224826   3.252   3.086   5.572  3.1231  0.9447  0.7820
   78MOL    H3324827   3.192   2.932   5.533 -0.9679 -0.0433  1.8448
   78MOL    C3424828   3.279   2.931   5.716 -0.0390 -0.2220  0.2414
   78MOL    C3524829   3.299   3.050   5.812  0.3369  0.2559 -0.1028
   78MOL    C3624830   3.196   3.144   5.845  0.0259  0.1177  0.4858
   78MOL    C3724831   3.213   3.248   5.937 -0.5791 -0.1414 -0.1226
   78MOL    C3824832   3.336   3.256   6.010  0.2422 -0.2074 -0.6228
   78MOL    F3924833   3.349   3.358   6.103 -0.4092  0.1920 -0.2728
   78MOL    C4024834   3.444   3.166   5.981 -0.1918 -0.0642  0.2488
   78MOL    C4124835   3.421   3.068   5.879 -0.2358  0.3739 -0.2163
   78MOL    C4224836   3.156   2.838   5.751 -0.1325 -0.0261  0.3994
   78MOL    H4324837   3.365   2.864   5.722 -1.0384 -1.4125  1.5600
   78MOL    H4424838   3.102   3.129   5.795  0.5757 -2.8261  0.2439
   78MOL    H4524839   3.136   3.319   5.961  0.2739  0.3794  1.1731
   78MOL    H4624840   3.541   3.171   6.027 -0.3247  0.2659  0.5058
   78MOL    H4724841   3.507   3.007   5.855  1.4578  2.7642 -0.3663
   78MOL    H4824842   3.073   2.881   5.695  1.8882  2.3918 -0.7929
   78MOL    H4924843   3.165   2.744   5.697  0.6959 -0.6392  1.5970
   78MOL    C5024844   3.120   2.831   5.900 -0.0566  0.3610 -0.5012
   78MOL    C5124845   2.987   2.746   5.922 -0.4239  0.2385 -0.7648
   78MOL    C5224846   2.987   2.606   5.907  0.0422 -0.4008 -0.3039
   78MOL    C5324847   2.864   2.535   5.930  0.9575 -0.8094 -0.1585
   78MOL    C5424848   2.748   2.602   5.976 -0.2816  0.2266 -0.5960
   78MOL    F5524849   2.638   2.535   6.009 -0.1262  0.2578 -0.1395
   78MOL    C5624850   2.753   2.740   5.985  0.3655  0.6552  0.0851
   78MOL    C5724851   2.866   2.816   5.954 -0.3866  0.4255 -0.1040
   78MOL    C5824852   3.232   2.780   5.990 -0.6608 -0.5268 -0.2748
   78MOL    H5924853   3.097   2.929   5.940 -0.8528  0.3087 -0.8155
   78MOL    H6024854   3.074   2.547   5.883 -0.5891 -1.7631  0.7030
   78MOL    H6124855   2.856   2.428   5.915 -2.2822 -0.2673 -3.0469
   78MOL    H6224856   2.667   2.799   6.013  0.2558  0.4377  0.2098
   78MOL    H6324857   2.876   2.923   5.962 -0.6992  0.3707  1.3217
   78MOL    H6424858   3.272   2.686   5.951 -0.3443 -0.7281  0.5227
   78MOL    H6524859   3.312   2.853   5.984 -0.3458 -0.9507 -1.2962
   78MOL    C6624860   3.203   2.763   6.137 -0.0710  0.1218 -0.1602
   78MOL    C6724861   3.299   2.669   6.208 -0.0208  0.0731  0.6914
   78MOL    C6824862   3.435   2.694   6.216 -0.0310  0.3883  0.1714
   78MOL    C6924863   3.514   2.606   6.290 -0.6056  0.4291 -0.2687
   78MOL    C7024864   3.463   2.483   6.333  0.7192 -0.5604 -0.7032
   78MOL    F7124865   3.539   2.386   6.400  0.1214  0.1156  0.0089
   78MOL    C7224866   3.323   2.450   6.323 -0.0833 -0.7083  0.3932
   78MOL    C7324867   3.245   2.551   6.265  0.7085  0.4486 -0.1679
   78MOL    C7424868   3.205   2.904   6.211 -1.0694  0.1625  0.4048
   78MOL    H7524869   3.103   2.720   6.148  0.6176 -1.3637  0.3881
   78MOL    H7624870   3.479   2.781   6.168 -0.7083 -0.1800 -1.5128
   78MOL    H7724871   3.621   2.624   6.289 -0.6232  0.5164 -1.8668
   78MOL    H7824872   3.286   2.356   6.360 -0.4373  0.4733  3.1569
   78MOL    H7924873   3.138   2.534   6.267  1.0333 -1.6153  3.4337
   78MOL    H8024874   3.302   2.949   6.188 -1.3283  0.4334 -0.1560
   78MOL    H8124875   3.138   2.974   6.161  0.0654 -0.9803 -2.8088
   78MOL    C8224876   3.175   2.910   6.362  0.1394 -0.1470 -0.1620
   78MOL    C8324877   3.235   3.035   6.418  0.1424 -0.7132 -0.3769
   78MOL    C8424878   3.157   3.158   6.425  0.2181  0.2577 -0.0899
   78MOL    C8524879   3.218   3.273   6.482  0.3435  0.0812  0.3204
   78MOL    C8624880   3.351   3.275   6.521 -0.3865 -0.0070  0.4138
   78MOL    F8724881   3.410   3.379   6.572 -0.0978  0.1695 -0.3121
   78MOL    C8824882   3.428   3.154   6.509 -0.1874  0.0774 -0.2741
   78MOL    C8924883   3.369   3.034   6.459 -0.2690  0.9154 -0.1979
   78MOL    C9024884   3.025   2.881   6.380  0.0209  0.1995 -1.1115
   78MOL    H9124885   3.224   2.831   6.418  1.7541  0.0587 -1.2567
   78MOL    H9224886   3.055   3.156   6.389  0.5445 -0.4970 -0.9857
   78MOL    H9324887   3.161   3.365   6.477  0.4721  0.0640 -2.5627
   78MOL    H9424888   3.533   3.160   6.533 -0.6660 -0.3569  2.1238
   78MOL    H9524889   3.421   2.939   6.452  1.1310  1.5566  1.0524
   78MOL    H9624890   2.960   2.939   6.314 -0.0031  1.0352 -0.3698
   78MOL    H9724891   3.009   2.779   6.346 -1.7305 -0.7100  2.2872
   78MOL    C9824892   2.970   2.888   6.524 -0.5614 -0.4772 -0.2777
   78MOL    C9924893   2.816   2.893   6.526 -0.4560  0.5479  0.2561
   78MOL   C10024894   2.745   2.796   6.454 -0.7737 -0.4883  0.2345
   78MOL   C10124895   2.602   2.806   6.450  0.6182  0.0341 -0.5833
   78MOL   C10224896   2.532   2.899   6.525  0.2577  0.2053 -0.3916
   78MOL   F10324897   2.395   2.901   6.514 -0.4468  0.2778  0.9599
   78MOL   C10424898   2.604   3.001   6.595  0.3965  0.0374 -0.7111
   78MOL   C10524899   2.743   2.993   6.593  0.4698 -0.7889 -0.4291
   78MOL   C10624900   3.016   2.773   6.618  0.3108 -0.1856 -0.4182
   78MOL   H10724901   3.011   2.981   6.565  1.0115 -1.2330 -0.0699
   78MOL   H10824902   2.799   2.731   6.387 -2.5674 -1.1941 -0.5447
   78MOL   H10924903   2.557   2.731   6.386  0.3138 -0.2833 -0.0043
   78MOL   H11024904   2.567   3.092   6.641 -0.5476 -1.0909  0.8314
   78MOL   H11124905   2.797   3.067   6.650  0.3595 -0.8985 -0.1821
   78MOL   H11224906   2.934   2.732   6.677 -2.7267  2.5230 -2.5776
   78MOL   H11324907   3.033   2.691   6.548  1.6860  1.6701 -2.3323
   78MOL   C11424908   3.134   2.800   6.714 -0.1870 -0.1209  0.3117
   78MOL   C11524909   3.135   2.928   6.793  0.4140 -0.0841 -0.8304
   78MOL   C11624910   3.037   2.946   6.895  0.5714  0.4297  0.5548
   78MOL   C11724911   3.032   3.067   6.965 -0.2362  0.2088 -0.8730
   78MOL   C11824912   3.128   3.167   6.945 -0.1441  0.0045 -0.5425
   78MOL   F11924913   3.123   3.284   7.010  0.1913  0.0260  0.5926
   78MOL   C12024914   3.225   3.152   6.848 -0.3779 -0.4099 -0.2248
   78MOL   C12124915   3.233   3.029   6.776 -0.5284 -0.2537 -0.5121
   78MOL   C12224916   3.182   2.677   6.807 -0.2130  0.0154 -0.0569
   78MOL   H12324917   3.212   2.814   6.640  0.1355 -1.2894  0.4097
   78MOL   H12424918   2.968   2.867   6.921  0.5193  0.2084 -0.2359
   78MOL   H12524919   2.963   3.081   7.047  0.4068 -0.8980 -0.1164
   78MOL   H12624920   3.298   3.228   6.821 -0.2131 -0.2929  0.5300
   78MOL   H12724921   3.312   3.030   6.702 -0.3441  0.1071 -0.3126
   78MOL   H12824922   3.097   2.662   6.875 -1.7599  1.0729 -1.7087
   78MOL   H12924923   3.184   2.585   6.749 -0.2038  0.7935 -1.3070
   78MOL   C13024924   3.306   2.699   6.900 -0.3792  0.4094 -0.5704
   78MOL   C13124925   3.311   2.595   7.021 -0.2535 -0.5562  0.4877
   78MOL   C13224926   3.362   2.639   7.143  0.0969 -0.0982  0.3018
   78MOL   C13324927   3.364   2.550   7.243  0.1819 -0.7532 -0.5340
   78MOL   C13424928   3.334   2.419   7.231  0.0220 -0.1774 -0.4762
   78MOL   F13524929   3.359   2.341   7.338  0.1485  0.2139 -0.4461
   78MOL   C13624930   3.281   2.367   7.112  0.3647 -0.7873  0.5080
   78MOL   C13724931   3.274   2.458   7.002  0.2039 -0.3087  0.4486
   78MOL   C13824932   3.438   2.693   6.812 -0.2083  0.2024  0.0599
   78MOL   H13924933   3.306   2.794   6.953  0.8355  0.6461 -0.9873
   78MOL   H14024934   3.377   2.743   7.168  0.4449  0.0977 -0.7039
   78MOL   H14124935   3.400   2.569   7.343  0.7835 -0.5947 -0.7797
   78MOL   H14224936   3.240   2.268   7.101 -0.3001 -0.6762  1.8459
   78MOL   H14324937   3.241   2.416   6.909 -1.3179  0.5664  0.5666
   78MOL   H14424938   3.441   2.589   6.779 -1.2731  0.3433 -0.5174
   78MOL   H14524939   3.415   2.755   6.725 -2.4794 -0.5318  0.0968
   78MOL   C14624940   3.576   2.735   6.863  0.6880  0.2748 -0.2652
   78MOL   C14724941   3.662   2.746   6.739 -0.0493 -0.1117  0.1505
   78MOL   C14824942   3.674   2.865   6.671  0.2298 -1.2023  0.2640
   78MOL   C14924943   3.743   2.862   6.543 -0.0274  0.2664  0.2180
   78MOL   C15024944   3.776   2.737   6.488 -0.2930  0.2038  0.2006
   78MOL   F15124945   3.822   2.734   6.359 -0.4252  0.0107  0.1745
   78MOL   C15224946   3.780   2.625   6.567  0.3071 -0.1174 -0.2552
   78MOL   C15324947   3.714   2.627   6.689 -0.1838 -0.0854  0.9311
   78MOL   C15424948   3.572   2.859   6.959  0.6638  0.4308  0.3413
   78MOL   H15524949   3.627   2.660   6.925  0.6882 -0.6233 -1.3384
   78MOL   H15624950   3.638   2.960   6.707 -3.4393 -1.7126 -1.8308
   78MOL   H15724951   3.754   2.949   6.480 -0.3543 -1.2399 -1.9914
   78MOL   H15824952   3.796   2.533   6.512 -3.5522 -0.7124 -0.5026
   78MOL   H15924953   3.696   2.525   6.719 -0.3120 -0.0870  0.8462
   78MOL   H16024954   3.525   2.938   6.900  1.5337  2.0769  1.8249
   78MOL   H16124955   3.498   2.841   7.036 -1.9213  4.3704 -1.0684
   78MOL   C16224956   3.698   2.928   7.020 -0.8485  0.0251  0.5626
   78MOL   C16324957   3.651   3.049   7.092  0.4733  0.2323  0.2487
   78MOL   C16424958   3.616   3.055   7.227 -0.2395  0.2961 -0.1392
   78MOL   C16524959   3.558   3.173   7.279  0.2438  0.2074 -0.0099
   78MOL   C16624960   3.538   3.286   7.196 -0.3027  0.4511 -0.1684
   78MOL   F16724961   3.474   3.395   7.237  0.4566 -0.7242  1.0819
   78MOL   C16824962   3.572   3.283   7.059  0.0766  0.2143  0.1298
   78MOL   C16924963   3.626   3.163   7.013 -0.4898 -0.1362 -0.5261
   78MOL   C17024964   3.778   2.818   7.110  0.5896 -0.3949  0.3463
   78MOL   H17124965   3.767   2.956   6.941 -1.5479 -1.5360 -0.6242
   78MOL   H17224966   3.628   2.970   7.292 -2.4630  0.2074  0.2152
   78MOL   H17324967   3.526   3.188   7.382 -2.4521  0.4853 -0.8471
   78MOL   H17424968   3.551   3.370   6.999  1.1721  1.4396  1.5026
   78MOL   H17524969   3.641   3.160   6.906 -0.6655 -1.9558 -0.5167
   78MOL   H17624970   3.822   2.864   7.198  0.5562  0.0844  0.1163
   78MOL   H17724971   3.702   2.753   7.153  2.0266 -1.9709  0.5447
   78MOL   C17824972   3.892   2.734   7.039 -0.3686 -0.6511 -0.2380
   78MOL   C17924973   3.993   2.826   6.958  0.3495  0.1627 -0.5958
   78MOL   C18024974   4.078   2.914   7.027 -0.7969 -0.9914 -0.1725
   78MOL   C18124975   4.172   2.989   6.961  0.2034  0.0343 -0.2876
   78MOL   C18224976   4.179   2.999   6.818 -0.1986  0.1153  0.5071
   78MOL   F18324977   4.247   3.090   6.752  0.1590  0.0556  0.2152
   78MOL   C18424978   4.087   2.920   6.748  0.4947 -0.1358 -0.3442
   78MOL   C18524979   4.002   2.831   6.816 -0.2499  0.6664  0.3319
   78MOL   C18624980   3.967   2.650   7.139  0.2437  0.2976  0.0510
   78MOL   H18724981   3.847   2.661   6.971  0.4568  0.4075 -1.9510
   78MOL   H18824982   4.076   2.917   7.135  2.6959  0.0938 -0.0960
   78MOL   H18924983   4.241   3.057   7.010 -0.7163  1.0533 -0.3696
   78MOL   H19024984   4.091   2.920   6.640 -0.3991 -1.4244 -0.3930
   78MOL   H19124985   3.935   2.768   6.759 -0.0411  1.4475 -0.7945
   78MOL   H19224986   4.054   2.613   7.084  0.4591  2.8335 -1.4293
   78MOL   H19324987   3.996   2.714   7.222 -3.0081  3.5272 -1.1749
   78MOL   C19424988   3.881   2.533   7.191  0.3419  0.4871 -0.1249
   78MOL   C19524989   3.839   2.433   7.088  0.4135 -0.3135  0.5595
   78MOL   C19624990   3.706   2.383   7.088  0.1963  0.2233 -0.1573
   78MOL   C19724991   3.662   2.307   6.978  0.0050 -0.3119  0.0857
   78MOL   C19824992   3.751   2.270   6.870 -0.0564  0.4234 -0.4925
   78MOL   F19924993   3.708   2.195   6.766  0.0113 -0.3342  0.3478
   78MOL   C20024994   3.882   2.311   6.869  0.3899  0.1904  0.2845
   78MOL   C20124995   3.927   2.384   6.983 -0.2871  0.0863 -0.7695
   78MOL   C20224996   3.952   2.460   7.313 -0.2749  0.3326  0.2041
   78MOL   H20324997   3.781   2.567   7.217 -0.1530 -0.4185 -0.8025
   78MOL   H20424998   3.641   2.415   7.168  1.4315  0.7835  0.6352
   78MOL   H20524999   3.561   2.271   6.968 -0.6170  1.8315 -1.5321
   78MOL   H20625000   3.952   2.278   6.793  0.8623  0.2509  0.6956
   78MOL   H20725001   4.033   2.393   6.999 -0.0660 -2.0747 -0.9650
   78MOL   H20825002   3.911   2.359   7.313 -3.0809  1.4211  0.7945
   78MOL   H20925003   4.053   2.432   7.284 -0.9746  0.0584 -2.0374
   78MOL   C21025004   3.941   2.515   7.457 -0.5089  0.0341 -0.1384
   78MOL   C21125005   3.792   2.545   7.500  0.1147 -0.1922  0.1911
   78MOL   C21225006   3.752   2.676   7.535 -0.1522 -0.8997  0.0561
   78MOL   C21325007   3.621   2.695   7.581  0.2881 -0.2779  0.4418
   78MOL   C21425008   3.534   2.591   7.591  0.3716  0.3249  0.6867
   78MOL   F21525009   3.413   2.605   7.652 -0.1300  0.8541 -0.7791
   78MOL   C21625010   3.565   2.470   7.535  0.5375  0.5341 -0.3469
   78MOL   C21725011   3.702   2.443   7.501 -0.1434 -0.1319 -0.3809
   78MOL   C21825012   4.008   2.430   7.561 -0.1327  0.2762  0.2692
   78MOL   H21925013   3.976   2.618   7.454  1.8226 -0.7097  0.1649
   78MOL   H22025014   3.816   2.764   7.535 -3.0857  1.2912 -0.5250
   78MOL   H22125015   3.584   2.793   7.610 -2.3482 -0.6988 -1.3581
   78MOL   H22225016   3.493   2.390   7.539  2.0229 -0.7744  0.9969
   78MOL   H22325017   3.725   2.340   7.476  2.3743  0.3859 -0.2978
   78MOL   H22425018   3.998   2.481   7.657  2.7904 -0.6574  1.1049
   78MOL   H22525019   3.963   2.332   7.575 -0.9955  0.5249 -0.6501
   78MOL   C22625020   4.157   2.400   7.546  0.2878 -0.4510  0.0475
   78MOL   C22725021   4.234   2.527   7.505 -0.1793 -0.3006 -0.7014
   78MOL   C22825022   4.243   2.648   7.582  0.1965 -0.2609  0.3882
   78MOL   C22925023   4.319   2.756   7.533  0.2576  0.4791  0.2265
   78MOL   C23025024   4.376   2.754   7.408 -0.5521 -0.0183  0.4151
   78MOL   F23125025   4.447   2.852   7.354  0.1614  0.3208 -0.3112
   78MOL   C23225026   4.379   2.637   7.331 -0.3213 -0.4987  0.4343
   78MOL   C23325027   4.303   2.525   7.379 -0.5539  0.0193  0.1129
   78MOL   C23425028   4.219   2.334   7.675 -0.6251 -0.2149  0.4736
   78MOL   H23525029   4.164   2.336   7.457  2.2767 -0.5403  0.2425
   78MOL   H23625030   4.178   2.660   7.667 -1.2723 -0.4125 -0.6940
   78MOL   H23725031   4.320   2.849   7.590 -4.1533 -0.6634  2.3481
   78MOL   H23825032   4.426   2.639   7.234 -0.7551 -0.3350  0.2268
   78MOL   H23925033   4.296   2.439   7.314 -1.2553  0.6079 -0.6085
   78MOL   H24025034   4.223   2.408   7.755  1.5141  0.6949 -0.4300
   78MOL   H24125035   4.137   2.269   7.704 -0.8210  0.5897  1.7372
   78MOL   C24225036   4.342   2.251   7.650 -0.7496  0.1748 -0.3445
   78MOL   C24325037   4.360   2.209   7.799 -0.1369 -0.4507 -0.1676
   78MOL   C24425038   4.288   2.106   7.859  0.2121  0.5854 -0.1992
   78MOL   C24525039   4.304   2.069   7.993  0.4436 -0.0242 -0.5828
   78MOL   C24625040   4.380   2.158   8.073 -0.0232  0.0093  0.8198
   78MOL   F24725041   4.378   2.146   8.204 -0.0921  0.0792 -0.3605
   78MOL   C24825042   4.444   2.272   8.020 -0.0959  0.1242  0.3492
   78MOL   C24925043   4.439   2.293   7.884  0.3783 -0.0697  0.6629
   78MOL   C25025044   4.328   2.135   7.557  0.0691 -1.0609 -0.2054
   78MOL   H25125045   4.421   2.317   7.614  0.3578 -0.8307  0.1821
   78MOL   H25225046   4.224   2.047   7.796  0.8723 -0.6630  0.2784
   78MOL   H25325047   4.244   1.990   8.037  2.0992  0.3799  2.6218
   78MOL   H25425048   4.492   2.348   8.081 -0.0008  0.9739 -0.7676
   78MOL   H25525049   4.486   2.382   7.844 -0.5208 -0.1643 -0.6397
   78MOL   H25625050   4.246   2.067   7.580 -0.4546 -0.7699 -1.1967
   78MOL   H25725051   4.313   2.171   7.455  0.6048  0.9866  0.4322
   78MOL   C25825052   4.455   2.042   7.559  0.1688 -0.3243  0.5187
   78MOL   C25925053   4.443   1.905   7.495 -0.0894  0.1100  0.3351
   78MOL   C26025054   4.385   1.892   7.371 -0.7228 -0.2961  0.3631
   78MOL   C26125055   4.372   1.757   7.328 -0.4161  0.2535 -0.0141
   78MOL   C26225056   4.445   1.650   7.384  0.3766  0.1313  0.5115
   78MOL   F26325057   4.433   1.532   7.320  0.3743 -0.1947  0.1723
   78MOL   C26425058   4.518   1.669   7.509  0.3328 -0.1291 -0.1851
   78MOL   C26525059   4.502   1.795   7.565  0.3970  0.4745 -0.1390
   78MOL   C26625060   4.592   2.110   7.512 -0.7423  0.7500 -0.5212
   78MOL   H26725061   4.474   2.017   7.663  2.1047 -0.8440  0.0755
   78MOL   H26825062   4.342   1.979   7.322  0.6671 -0.4596 -1.1780
   78MOL   H26925063   4.307   1.730   7.246  1.4001 -0.2465 -1.3183
   78MOL   H27025064   4.558   1.586   7.566  1.6510  0.8997  0.4136
   78MOL   H27125065   4.547   1.809   7.662  2.3227  1.7457 -1.1895
   78MOL   H27225066   4.626   2.028   7.449 -1.1176  0.1676  0.0148
   78MOL   H27325067   4.564   2.176   7.431  1.2058  0.9199 -1.0705
   78MOL   C27425068   4.690   2.159   7.617  0.2012  1.0019  0.2208
   78MOL   C27525069   4.745   2.045   7.704 -0.1914  0.5192 -1.1394
   78MOL   C27625070   4.830   1.953   7.640  0.0492 -0.3582 -0.4799
   78MOL   C27725071   4.878   1.840   7.716 -0.3902 -0.2076  0.5013
   78MOL   C27825072   4.845   1.835   7.850  0.5820  0.4365  0.0163
   78MOL   F27925073   4.893   1.728   7.915 -0.2096  0.0770 -0.0816
   78MOL   C28025074   4.767   1.927   7.918  0.5923  0.2060  0.2131
   78MOL   C28125075   4.714   2.037   7.844 -0.1319  0.0672  0.3653
   78MOL   C28225076   4.813   2.237   7.562 -0.2967 -0.0596  0.0345
   78MOL   H28325077   4.630   2.227   7.676  0.8096  0.6673  1.2253
   78MOL   H28425078   4.854   1.954   7.535  0.4205 -0.8227 -0.4002
   78MOL   H28525079   4.944   1.765   7.676  1.8845 -0.1332  3.8734
   78MOL   H28625080   4.739   1.915   8.022  1.8612  0.8479  0.6460
   78MOL   H28725081   4.655   2.114   7.891 -0.5511  0.5031 -0.8598
   78MOL   H28825082   4.881   2.239   7.647  2.0324  1.1559 -1.8132
   78MOL   H28925083   4.864   2.182   7.484 -0.3713  0.3581 -0.3089
   78MOL   C29025084   4.788   2.383   7.515 -0.3061 -0.4007 -0.2106
   78MOL   C29125085   4.732   2.460   7.634 -0.4385  0.6826  0.2967
   78MOL   C29225086   4.606   2.516   7.635 -0.5744  0.1464  0.8328
   78MOL   C29325087   4.571   2.608   7.730 -0.1014 -0.9326  0.1252
   78MOL   C29425088   4.657   2.648   7.829  0.1251  0.1002  0.0668
   78MOL   F29525089   4.614   2.729   7.926  0.3169  0.1410 -0.6801
   78MOL   C29625090   4.781   2.588   7.837 -0.3498  0.3025 -0.7548
   78MOL   C29725091   4.822   2.502   7.736  0.4368  0.0783  0.2520
   78MOL   C29825092   4.915   2.440   7.444  0.0394 -0.1298 -0.3204
   78MOL   H29925093   4.710   2.389   7.440 -0.4904  0.5584  0.0504
   78MOL   H30025094   4.535   2.508   7.554  1.0033  1.6038 -0.7261
   78MOL   H30125095   4.478   2.661   7.716  0.1764 -0.6325 -0.6381
   78MOL   H30225096   4.852   2.605   7.917 -0.6903 -2.2778  0.1350
   78MOL   H30325097   4.920   2.458   7.727 -1.0493 -3.0487 -1.2302
   78MOL   H30425098   5.008   2.444   7.500 -0.7002  0.8849  0.8691
   78MOL   H30525099   4.952   2.380   7.361 -1.8742 -0.1089 -1.2365
   78MOL   C30625100   4.901   2.588   7.400  0.2851 -0.3421  0.3377
   78MOL   C30725101   5.033   2.660   7.392 -0.8150  0.3683  0.8580
   78MOL   C30825102   5.120   2.642   7.281 -0.2999  0.7521 -0.5066
   78MOL   C30925103   5.255   2.681   7.277  0.7716 -0.6276 -0.9347
   78MOL   C31025104   5.301   2.758   7.392 -0.3830  0.3062  0.4365
   78MOL   F31125105   5.425   2.805   7.392 -0.0457  0.0510 -0.0046
   78MOL   C31225106   5.209   2.779   7.501 -0.0146 -0.1820  0.4414
   78MOL   C31325107   5.081   2.726   7.501  0.5923 -0.5485 -0.1748
   78MOL   C31425108   4.811   2.619   7.278 -0.3560 -0.0936 -0.3475
   78MOL   H31525109   4.852   2.635   7.485  0.7021  0.1683  0.2993
   78MOL   H31625110   5.087   2.584   7.197  0.8519 -0.4228 -0.1663
   78MOL   H31725111   5.315   2.674   7.187  0.1763 -0.1583 -1.3745
   78MOL   H31825112   5.244   2.828   7.590  0.8110 -0.4451  0.2606
   78MOL   H31925113   5.020   2.738   7.589 -0.4664 -1.0525 -0.8260
   78MOL   H32025114   4.853   2.582   7.185  2.7064 -1.6348  1.5740
   78MOL   H32125115   4.712   2.577   7.296 -0.4428  0.1674 -0.2163
   78MOL   H32225116   4.791   2.725   7.261 -0.3909  0.2309  1.5801
   79MOL     C125117   1.827   5.538   0.393  0.1163 -0.5263 -0.0192
   79MOL     C225118   1.828   5.386   0.397  0.3036 -0.3458 -0.4501
   79MOL     C325119   1.897   5.308   0.299  0.3153  0.4796 -0.7301
   79MOL     C425120   1.900   5.169   0.319  0.0163 -0.1390  0.0864
   79MOL     C525121   1.829   5.107   0.423  0.1314 -0.0982  0.0708
   79MOL     F625122   1.821   4.971   0.433  0.5587 -0.0531 -0.1692
   79MOL     C725123   1.756   5.185   0.513 -0.6641  0.4332 -0.4513
   79MOL     C825124   1.769   5.321   0.507 -0.0406  0.2436  0.6415
   79MOL     C925125   1.950   5.601   0.319  0.6825  0.3639  0.7322
   79MOL    H1025126   1.829   5.563   0.499 -1.7277 -0.7187  0.0753
   79MOL    H1125127   1.954   5.357   0.222  0.4947  1.0661 -0.2327
   79MOL    H1225128   1.941   5.107   0.240 -0.5904 -0.8387  0.3085
   79MOL    H1325129   1.695   5.132   0.585  1.4804  1.8522  2.5684
   79MOL    H1425130   1.709   5.370   0.582  1.7816  3.7340 -0.0545
   79MOL    H1525131   2.042   5.544   0.330  0.6388  0.4437  1.5182
   79MOL    H1625132   1.925   5.586   0.214  0.4025  1.8789  0.5734
   79MOL    H1725133   1.728   5.562   0.354 -0.1319 -0.2123  0.7987
   79MOL    C1825134   1.980   5.747   0.343  0.0132  0.0374 -0.3838
   79MOL    C1925135   2.022   5.755   0.488 -0.4637 -0.4436 -0.0810
   79MOL    C2025136   2.123   5.673   0.538  0.5447  0.1622 -0.2493
   79MOL    C2125137   2.154   5.667   0.676  0.0079  0.3043  0.0489
   79MOL    C2225138   2.092   5.761   0.766 -0.3745 -0.1085  0.0591
   79MOL    F2325139   2.122   5.767   0.900 -0.2889  0.0307  0.0778
   79MOL    C2425140   2.001   5.852   0.709  0.2342  0.7775  0.2587
   79MOL    C2525141   1.952   5.839   0.577  0.1112 -0.4355  0.2961
   79MOL    C2625142   2.097   5.815   0.264  0.2611 -0.1906 -0.0221
   79MOL    H2725143   1.884   5.792   0.317 -1.3045 -1.3780  1.8076
   79MOL    H2825144   2.162   5.591   0.478 -1.3548 -0.2502 -0.9561
   79MOL    H2925145   2.226   5.597   0.714 -0.5541 -1.1311 -1.4976
   79MOL    H3025146   1.949   5.928   0.766  0.7243  2.1047 -1.0641
   79MOL    H3125147   1.884   5.912   0.537  0.3934 -0.1176  0.3909
   79MOL    H3225148   2.092   5.917   0.302 -0.8786  0.2727 -1.3775
   79MOL    H3325149   2.190   5.771   0.302  0.2287 -0.0378  0.2385
   79MOL    C3425150   2.092   5.824   0.107  0.2379 -0.1635 -0.2099
   79MOL    C3525151   1.952   5.858   0.057  0.2820 -0.8920  0.1604
   79MOL    C3625152   1.896   5.794   8.171  0.0799 -0.5937 -0.4564
   79MOL    C3725153   1.768   5.835   8.121 -0.5388 -0.2638 -0.4107
   79MOL    C3825154   1.693   5.933   8.190  0.6288 -0.5039  0.1327
   79MOL    F3925155   1.574   5.965   8.135  0.3949  0.2325  0.0491
   79MOL    C4025156   1.743   5.998   0.059  0.2663 -0.7720 -0.5902
   79MOL    C4125157   1.866   5.957   0.110  0.6803  0.1515  0.3662
   79MOL    C4225158   2.195   5.928   0.052 -0.3799 -0.4301  0.2015
   79MOL    H4325159   2.107   5.723   0.071  0.0428 -0.4752  0.5690
   79MOL    H4425160   1.954   5.717   8.122 -0.5354 -0.1231 -1.9501
   79MOL    H4525161   1.722   5.792   8.034 -1.1149  2.5993 -1.5865
   79MOL    H4625162   1.682   6.081   0.092 -0.2696  0.1378 -3.6944
   79MOL    H4725163   1.901   6.004   0.201 -2.9222  2.9734  0.3644
   79MOL    H4825164   2.165   6.033   0.060 -0.4950 -0.4565  0.1202
   79MOL    H4925165   2.281   5.923   0.120 -0.6900 -0.1607  0.6213
   79MOL    C5025166   2.248   5.879   8.148  0.0942  0.3768 -0.9261
   79MOL    C5125167   2.245   5.986   8.043  0.2245 -0.0225  0.2004
   79MOL    C5225168   2.280   6.125   8.063  0.0337  0.3579  0.5025
   79MOL    C5325169   2.255   6.216   7.960 -0.1926  0.9690 -0.4978
   79MOL    C5425170   2.187   6.184   7.844  0.2863 -0.1923 -0.2296
   79MOL    F5525171   2.170   6.281   7.752 -0.0212  0.2540 -0.2461
   79MOL    C5625172   2.145   6.048   7.826 -0.2284  0.0397 -0.3544
   79MOL    C5725173   2.180   5.953   7.921 -1.0074 -0.5414 -0.4070
   79MOL    C5825174   2.387   5.807   8.158 -1.0547  0.7754  0.1504
   79MOL    H5925175   2.187   5.796   8.112  0.8053 -0.4131 -0.3676
   79MOL    H6025176   2.324   6.150   8.158  0.9394  2.1078 -0.3473
   79MOL    H6125177   2.285   6.319   7.972 -2.8287  1.4520  2.8230
   79MOL    H6225178   2.087   6.023   7.738 -0.7021 -1.0723  0.2668
   79MOL    H6325179   2.152   5.851   7.902  1.0498 -0.9291 -1.5608
   79MOL    H6425180   2.440   5.800   8.063 -0.7018  2.0540  0.2465
   79MOL    H6525181   2.446   5.885   8.204 -1.1517  1.9050 -1.5796
   79MOL    C6625182   2.408   5.670   8.229 -0.2268  0.3884 -0.1772
   79MOL    C6725183   2.331   5.557   8.164  0.5395  0.5618 -0.9793
   79MOL    C6825184   2.334   5.550   8.023  0.2827  0.9585 -0.0276
   79MOL    C6925185   2.258   5.451   7.964 -0.4500  0.2438 -1.0750
   79MOL    C7025186   2.179   5.361   8.031 -0.4241  0.5720  0.8994
   79MOL    F7125187   2.116   5.266   7.956 -0.3523  0.1749  0.2592
   79MOL    C7225188   2.171   5.370   8.172 -0.4552 -0.4522 -0.2442
   79MOL    C7325189   2.250   5.463   0.001 -0.1992 -0.2597  0.2541
   79MOL    C7425190   2.553   5.616   0.012  0.0918 -0.1462 -0.0291
   79MOL    H7525191   2.361   5.679   0.092  1.2023 -1.2043  0.7005
   79MOL    H7625192   2.400   5.604   7.956 -0.1625  1.4682 -0.0522
   79MOL    H7725193   2.264   5.448   7.856 -1.1117  2.8905 -1.2173
   79MOL    H7825194   2.102   5.301   8.218  2.2985 -2.0604  1.6234
   79MOL    H7925195   2.255   5.478   0.108  1.2056 -3.2433  0.6597
   79MOL    H8025196   2.538   5.519   0.059 -0.1415 -0.4921 -0.7939
   79MOL    H8125197   2.598   5.595   8.149 -0.3806  0.3242 -0.3474
   79MOL    C8225198   2.645   5.700   0.107 -0.0656 -0.1629  0.5954
   79MOL    C8325199   2.568   5.749   0.234  0.0666  0.7256 -0.2139
   79MOL    C8425200   2.504   5.660   0.321  0.1183 -0.1955  1.0397
   79MOL    C8525201   2.451   5.704   0.439 -0.3435  0.3080 -0.8764
   79MOL    C8625202   2.445   5.844   0.464 -0.1594  0.3550  0.7289
   79MOL    F8725203   2.384   5.890   0.574  0.1230 -0.0515 -0.0366
   79MOL    C8825204   2.504   5.935   0.375 -0.0457  0.1338  0.0590
   79MOL    C8925205   2.567   5.883   0.259 -0.6508 -0.3535 -0.2255
   79MOL    C9025206   2.775   5.626   0.151 -0.5362 -0.0624 -0.1923
   79MOL    H9125207   2.671   5.791   0.053  0.7791 -1.3386 -1.0174
   79MOL    H9225208   2.515   5.553   0.309 -2.1474 -0.3192 -0.2263
   79MOL    H9325209   2.402   5.642   0.513  0.3351  0.3414 -0.3977
   79MOL    H9425210   2.501   6.041   0.400 -1.8300 -0.0191  0.5962
   79MOL    H9525211   2.626   5.950   0.199 -1.3161 -2.3369 -3.2015
   79MOL    H9625212   2.775   5.609   0.259 -2.9628  1.4923  0.0938
   79MOL    H9725213   2.786   5.532   0.097  2.0485  1.7457 -2.9173
   79MOL    C9825214   2.913   5.704   0.119  0.0609 -0.0186  0.2445
   79MOL    C9925215   3.028   5.652   0.205  0.6801 -0.2709  1.0189
   79MOL   C10025216   3.094   5.535   0.168  0.7216 -0.3408 -0.0276
   79MOL   C10125217   3.192   5.488   0.250 -0.5475  0.3126 -0.4313
   79MOL   C10225218   3.234   5.556   0.365  0.0263  0.1640  0.7973
   79MOL   F10325219   3.321   5.502   0.447 -0.2495  0.3691  0.1777
   79MOL   C10425220   3.176   5.682   0.391 -0.4197 -0.2615 -0.3625
   79MOL   C10525221   3.073   5.729   0.310  0.5156  0.1831  0.1321
   79MOL   C10625222   2.960   5.699   8.201 -0.0305  0.3255 -0.4658
   79MOL   H10725223   2.891   5.807   0.149  0.4870  0.3353 -0.6548
   79MOL   H10825224   3.056   5.475   0.087 -0.0328 -1.2918  1.0088
   79MOL   H10925225   3.246   5.402   0.213  0.4179 -0.4032  2.4863
   79MOL   H11025226   3.212   5.737   0.477 -0.5144 -2.9080  1.4202
   79MOL   H11125227   3.041   5.832   0.321  0.5493  0.0475  1.6234
   79MOL   H11225228   3.066   5.718   8.189  0.5187 -1.9116  0.5564
   79MOL   H11325229   2.947   5.595   8.169 -1.3539  0.3473 -0.0233
   79MOL   C11425230   2.881   5.796   8.105 -0.3660 -0.2101 -0.3975
   79MOL   C11525231   2.893   5.934   8.163 -0.4589 -0.3828 -0.4262
   79MOL   C11625232   3.022   5.990   8.177 -0.3996 -0.3276 -0.2236
   79MOL   C11725233   3.047   6.124   8.212  0.6581 -0.2130  0.7008
   79MOL   C11825234   2.937   6.198   0.013  0.2302  0.2490 -0.7268
   79MOL   F11925235   2.960   6.331   0.047 -0.4263  0.0345 -0.2332
   79MOL   C12025236   2.807   6.147   8.227  0.2639 -0.1625 -0.5334
   79MOL   C12125237   2.783   6.018   8.183  0.2156 -0.3026  0.6504
   79MOL   C12225238   2.928   5.796   7.957  0.4511  0.2903 -0.6958
   79MOL   H12325239   2.774   5.776   8.103 -0.2433 -1.8264  3.4528
   79MOL   H12425240   3.109   5.932   8.151 -0.1924 -0.2913  0.3807
   79MOL   H12525241   3.150   6.158   8.212  0.7240 -0.3866 -0.9230
   79MOL   H12625242   2.727   6.219   0.010  1.2285  0.7349  0.2661
   79MOL   H12725243   2.685   5.979   8.160  0.5414 -0.8572  0.1953
   79MOL   H12825244   2.911   5.889   7.902  0.8323  0.6056 -0.2803
   79MOL   H12925245   3.035   5.785   7.975  0.2806  0.4435  0.4443
   79MOL   C13025246   2.880   5.685   7.865 -0.5789  0.0226 -0.4956
   79MOL   C13125247   2.733   5.698   7.816 -0.5017  0.0708  1.1356
   79MOL   C13225248   2.661   5.588   7.766  0.2527 -0.5694 -0.6489
   79MOL   C13325249   2.531   5.601   7.729  0.8253  0.3519  0.2833
   79MOL   C13425250   2.464   5.724   7.736  0.2164  0.6319 -0.8157
   79MOL   F13525251   2.336   5.734   7.680 -0.4238 -0.0031 -0.0914
   79MOL   C13625252   2.529   5.838   7.787  0.3946 -0.4217 -0.2575
   79MOL   C13725253   2.662   5.817   7.833  0.4212 -0.2094 -0.5440
   79MOL   C13825254   2.970   5.667   7.738  0.2879  0.1875  0.3117
   79MOL   H13925255   2.883   5.590   7.917  2.3570 -1.5181 -3.2879
   79MOL   H14025256   2.715   5.496   7.775  2.3440  0.7261  0.3576
   79MOL   H14125257   2.490   5.511   7.684  1.3324  0.7493 -0.9892
   79MOL   H14225258   2.474   5.932   7.792 -0.1776 -0.8833  4.6462
   79MOL   H14325259   2.709   5.902   7.881 -1.0607  0.1047  0.3915
   79MOL   H14425260   2.915   5.598   7.674 -2.3715  2.4055  0.1079
   79MOL   H14525261   2.981   5.762   7.686  0.2011  0.3723  0.6343
   79MOL   C14625262   3.111   5.611   7.766  0.1633  0.4463  0.2898
   79MOL   C14725263   3.103   5.474   7.833  0.0412  0.4253 -0.5879
   79MOL   C14825264   3.083   5.356   7.759  0.0147 -0.3777 -0.2925
   79MOL   C14925265   3.070   5.233   7.828  0.2796 -0.4101  0.2939
   79MOL   C15025266   3.072   5.229   7.970  0.4624  0.3328  0.1587
   79MOL   F15125267   3.042   5.108   8.035  0.5349 -0.0669  0.1451
   79MOL   C15225268   3.100   5.342   8.046  0.6503 -0.3666  0.1598
   79MOL   C15325269   3.118   5.471   7.981 -0.8481  0.6714 -0.4211
   79MOL   C15425270   3.220   5.613   7.656 -0.0909  0.4094 -0.7523
   79MOL   H15525271   3.158   5.662   7.849  1.3100  1.6200 -1.0442
   79MOL   H15625272   3.069   5.358   7.652  0.8316  0.2002 -0.3880
   79MOL   H15725273   3.053   5.140   7.777  3.0161 -1.4969  1.2986
   79MOL   H15825274   3.108   5.341   8.153  2.4345  2.2012  0.1072
   79MOL   H15925275   3.149   5.552   8.045 -0.3971 -0.2695  0.5637
   79MOL   H16025276   3.296   5.538   7.676  0.9798  1.4869 -0.7022
   79MOL   H16125277   3.171   5.579   7.565 -3.1639  1.3591  0.4723
   79MOL   C16225278   3.283   5.746   7.619  0.1451  0.8549  0.1750
   79MOL   C16325279   3.302   5.840   7.735  0.2007 -0.2016  0.0046
   79MOL   C16425280   3.408   5.815   7.817  0.5970  0.2015  0.1624
   79MOL   C16525281   3.434   5.897   7.928 -0.1742  0.1927  0.0911
   79MOL   C16625282   3.354   6.013   7.955  0.3234 -0.0046  0.7855
   79MOL   F16725283   3.379   6.103   8.054 -0.5185  0.1251 -0.3788
   79MOL   C16825284   3.246   6.037   7.862  0.3201  0.0509  0.5837
   79MOL   C16925285   3.220   5.949   7.756 -0.0763 -0.3643 -0.1674
   79MOL   C17025286   3.410   5.728   7.537 -0.2945 -0.0723 -0.1073
   79MOL   H17125287   3.208   5.789   7.552 -1.1186 -0.5672  0.6641
   79MOL   H17225288   3.465   5.727   7.792  0.0779  0.3453 -1.5608
   79MOL   H17325289   3.524   5.897   7.986  0.9133  3.3262 -1.4965
   79MOL   H17425290   3.176   6.119   7.865  1.0012  0.5885  2.3716
   79MOL   H17525291   3.134   5.971   7.694 -0.1026  0.0651  0.0179
   79MOL   H17625292   3.442   5.830   7.520 -0.6553 -0.0310 -0.5479
   79MOL   H17725293   3.479   5.666   7.594  1.1668  1.0052 -0.6743
   79MOL   C17825294   3.383   5.659   7.397 -0.0984 -0.3286  0.4273
   79MOL   C17925295   3.318   5.753   7.299  0.5971  0.2762  0.7504
   79MOL   C18025296   3.389   5.872   7.259 -0.5610 -0.2369  0.1632
   79MOL   C18125297   3.330   5.955   7.160 -0.1315 -0.1324 -0.2393
   79MOL   C18225298   3.203   5.926   7.106 -0.2246 -0.2008 -0.1640
   79MOL   F18325299   3.144   6.018   7.021  0.7203  0.0546 -0.4569
   79MOL   C18425300   3.141   5.800   7.138  0.4349 -0.0517  0.2097
   79MOL   C18525301   3.196   5.717   7.237 -0.4509 -0.5769 -0.3318
   79MOL   C18625302   3.506   5.594   7.330 -0.5171 -0.4277 -0.5276
   79MOL   H18725303   3.314   5.576   7.408 -0.2086 -0.8167 -3.3153
   79MOL   H18825304   3.481   5.913   7.297  0.3723 -2.0058 -0.1450
   79MOL   H18925305   3.360   6.057   7.140  0.5258 -0.0251  1.2332
   79MOL   H19025306   3.052   5.767   7.088  0.2635 -0.0339  0.4993
   79MOL   H19125307   3.140   5.626   7.251 -1.7161  0.2772  0.2126
   79MOL   H19225308   3.485   5.556   7.230 -0.0157 -0.1639 -0.7275
   79MOL   H19325309   3.583   5.670   7.323 -0.1746 -0.6117  1.0530
   79MOL   C19425310   3.549   5.469   7.408 -0.1205 -0.2262  0.6298
   79MOL   C19525311   3.454   5.352   7.381  0.0314 -0.3091 -0.5120
   79MOL   C19625312   3.366   5.313   7.488  0.1027  0.3202  0.0030
   79MOL   C19725313   3.281   5.200   7.470 -0.1706 -0.5075  0.0302
   79MOL   C19825314   3.290   5.128   7.356 -0.1665  0.1446 -0.0686
   79MOL   F19925315   3.214   5.018   7.338 -0.0238  0.8493  0.0072
   79MOL   C20025316   3.360   5.179   7.244 -0.2099  0.1088 -0.1946
   79MOL   C20125317   3.444   5.293   7.255  0.2101  0.6281 -0.4422
   79MOL   C20225318   3.696   5.438   7.363  0.4732  0.3527  0.3051
   79MOL   H20325319   3.548   5.485   7.516 -0.3748  3.4554  0.1633
   79MOL   H20425320   3.366   5.378   7.575  0.9090  0.9829 -0.4872
   79MOL   H20525321   3.195   5.183   7.534 -0.4446 -1.0115 -0.4642
   79MOL   H20625322   3.363   5.115   7.157  0.6730  2.5411 -1.9862
   79MOL   H20725323   3.506   5.334   7.177  1.1389  0.9451  0.4550
   79MOL   H20825324   3.703   5.430   7.254 -0.5100 -0.9050  0.3226
   79MOL   H20925325   3.756   5.526   7.385 -0.2339  0.5586  1.4292
   79MOL   C21025326   3.768   5.319   7.439  0.3787 -0.1878 -0.3039
   79MOL   C21125327   3.818   5.209   7.340 -0.7808  0.1506  0.4927
   79MOL   C21225328   3.874   5.249   7.213  0.1541  0.3921  0.3265
   79MOL   C21325329   3.928   5.155   7.122 -0.4738  0.8807  0.4413
   79MOL   C21425330   3.919   5.018   7.155 -0.6559  0.2330  0.2253
   79MOL   F21525331   3.957   4.919   7.075  0.4873  0.3501  0.0409
   79MOL   C21625332   3.863   4.977   7.281 -0.2479  0.8369  0.7271
   79MOL   C21725333   3.803   5.073   7.366  0.4066  0.1894  0.6555
   79MOL   C21825334   3.890   5.363   7.532  0.1553 -0.2423 -0.2950
   79MOL   H21925335   3.692   5.267   7.498  0.2230  0.0020 -0.3382
   79MOL   H22025336   3.887   5.353   7.189  0.3332  0.0741 -1.0189
   79MOL   H22125337   3.954   5.190   7.023 -1.9469 -0.9824 -0.6347
   79MOL   H22225338   3.857   4.871   7.300 -2.1813  0.1401 -3.1837
   79MOL   H22325339   3.762   5.031   7.456  1.8380  2.0181  2.2086
   79MOL   H22425340   3.949   5.277   7.564 -2.1487 -1.8645 -0.3092
   79MOL   H22525341   3.964   5.416   7.472  1.1340 -1.2858 -0.0216
   79MOL   C22625342   3.850   5.448   7.655 -0.3119 -0.4270  0.5484
   79MOL   C22725343   3.730   5.376   7.733  0.3812  0.2905 -0.4612
   79MOL   C22825344   3.741   5.244   7.785 -0.5643 -0.0574 -0.0211
   79MOL   C22925345   3.642   5.185   7.866  0.1894 -0.3957  0.1158
   79MOL   C23025346   3.521   5.258   7.891  0.0508 -0.0774 -0.2188
   79MOL   F23125347   3.419   5.194   7.954  0.2745 -0.4178 -0.0379
   79MOL   C23225348   3.507   5.392   7.843  0.1140  0.0385 -0.3626
   79MOL   C23325349   3.615   5.451   7.772 -0.3372 -0.4226  0.4842
   79MOL   C23425350   3.966   5.484   7.748 -0.2798  0.3459  0.0084
   79MOL   H23525351   3.805   5.537   7.610 -2.0864 -2.4644 -1.8386
   79MOL   H23625352   3.828   5.187   7.755 -1.9441 -2.1467 -0.1455
   79MOL   H23725353   3.656   5.088   7.912  2.5129  0.4259  1.1886
   79MOL   H23825354   3.418   5.446   7.870 -0.4693 -1.4978  0.9076
   79MOL   H23925355   3.601   5.554   7.743  0.5776 -0.1853  0.8732
   79MOL   H24025356   3.942   5.508   7.851 -2.9340  0.0175 -0.4986
   79MOL   H24125357   4.030   5.396   7.752  0.1827  0.7746  2.7319
   79MOL   C24225358   4.052   5.604   7.698  0.0112 -0.0876  0.6264
   79MOL   C24325359   3.993   5.742   7.706 -0.5252  0.4123  0.2280
   79MOL   C24425360   4.031   5.842   7.618  0.0466 -0.4795 -0.2149
   79MOL   C24525361   3.968   5.960   7.605  0.4126 -0.6952  0.4428
   79MOL   C24625362   3.870   5.995   7.697  0.0609  0.0794  0.5328
   79MOL   F24725363   3.807   6.113   7.676  0.1711 -0.0348  0.4530
   79MOL   C24825364   3.828   5.904   7.795 -0.1674  0.5043 -0.7039
   79MOL   C24925365   3.902   5.782   7.805 -0.0305  0.5087  0.3363
   79MOL   C25025366   4.193   5.593   7.753  0.0814 -0.1187 -0.3676
   79MOL   H25125367   4.067   5.597   7.591  1.2532  0.2338  0.7710
   79MOL   H25225368   4.115   5.818   7.554 -0.2677 -1.2234 -0.3605
   79MOL   H25325369   3.999   6.023   7.523  1.7621 -2.0634 -0.1214
   79MOL   H25425370   3.749   5.939   7.860  0.5324 -0.9051  0.9552
   79MOL   H25525371   3.887   5.719   7.890  0.3123  1.2057  0.9203
   79MOL   H25625372   4.243   5.689   7.742  0.1908 -0.1074  0.2342
   79MOL   H25725373   4.176   5.568   7.857 -2.5510 -0.5157 -0.8628
   79MOL   C25825374   4.281   5.486   7.689 -0.8810  0.0933 -0.2048
   79MOL   C25925375   4.284   5.477   7.537  0.0558  0.2371 -0.7138
   79MOL   C26025376   4.305   5.593   7.465 -0.5797  0.0251  0.2588
   79MOL   C26125377   4.322   5.585   7.326 -0.3383 -0.3859 -0.2243
   79MOL   C26225378   4.304   5.459   7.260  0.1445  0.6152  0.0533
   79MOL   F26325379   4.283   5.454   7.127 -0.3836  0.2124  0.2842
   79MOL   C26425380   4.277   5.340   7.336  0.0530  0.4029  0.1985
   79MOL   C26525381   4.262   5.351   7.476 -0.6098  0.3571  0.4192
   79MOL   C26625382   4.426   5.490   7.743 -0.2719  0.7817  0.0083
   79MOL   H26725383   4.243   5.395   7.735 -0.0300  0.0029  0.3184
   79MOL   H26825384   4.311   5.689   7.513 -1.0274  0.0491  0.2663
   79MOL   H26925385   4.325   5.684   7.284 -1.7773 -0.5705 -0.7759
   79MOL   H27025386   4.245   5.243   7.299  2.1631  0.6225 -2.4270
   79MOL   H27125387   4.230   5.268   7.537  0.3417 -1.2016 -1.1543
   79MOL   H27225388   4.492   5.553   7.682  1.8420  0.2674  1.6910
   79MOL   H27325389   4.426   5.547   7.835 -0.2997 -0.3773  0.7373
   79MOL   C27425390   4.502   5.354   7.767  0.3084  0.0124 -0.1920
   79MOL   C27525391   4.649   5.375   7.779  0.3608  1.1282  0.5032
   79MOL   C27625392   4.702   5.469   7.867 -0.7187 -0.0856  0.0507
   79MOL   C27725393   4.846   5.477   7.873  0.7108 -0.1338 -0.8894
   79MOL   C27825394   4.927   5.389   7.802 -0.0400 -0.0789 -0.8349
   79MOL   F27925395   5.060   5.402   7.812 -0.3059  0.2371 -0.1330
   79MOL   C28025396   4.868   5.284   7.726 -0.8968  0.4769  0.3322
   79MOL   C28125397   4.731   5.280   7.714 -0.1687 -0.8855  0.5152
   79MOL   C28225398   4.461   5.276   7.895 -0.2047  0.3389  0.7560
   79MOL   H28325399   4.479   5.284   7.686  0.3589  1.2471 -1.2970
   79MOL   H28425400   4.634   5.536   7.918  0.5753  2.8804 -1.9706
   79MOL   H28525401   4.889   5.557   7.933 -0.1223  0.2127 -0.7402
   79MOL   H28625402   4.939   5.214   7.685 -0.9323 -0.5114  1.9321
   79MOL   H28725403   4.707   5.193   7.654 -0.4194 -0.2710 -0.2901
   79MOL   H28825404   4.537   5.198   7.899 -1.3735 -0.9151 -0.6208
   79MOL   H28925405   4.479   5.336   7.984  1.2598 -2.0295  2.1133
   79MOL   C29025406   4.320   5.203   7.900 -0.2053  0.2475  0.1701
   79MOL   C29125407   4.284   5.121   7.776  0.5283 -0.6247 -0.1488
   79MOL   C29225408   4.146   5.107   7.744  0.6126  0.6973  0.3322
   79MOL   C29325409   4.100   5.026   7.638  0.1901  0.1612 -0.3908
   79MOL   C29425410   4.197   4.974   7.545 -0.4806 -1.0338 -0.3564
   79MOL   F29525411   4.148   4.901   7.443 -0.3368  0.0209 -0.6144
   79MOL   C29625412   4.337   4.991   7.573 -0.1927 -1.0089 -0.2262
   79MOL   C29725413   4.374   5.068   7.685  0.6040  0.2840 -0.1069
   79MOL   C29825414   4.296   5.118   8.032 -0.0840 -0.0098 -0.9951
   79MOL   H29925415   4.243   5.280   7.900 -0.1821  0.2734 -0.4306
   79MOL   H30025416   4.069   5.147   7.809 -1.4137 -1.6841 -0.5026
   79MOL   H30125417   3.994   5.007   7.628  0.4597 -1.8638  0.2809
   79MOL   H30225418   4.405   4.948   7.502 -1.1941 -0.6854 -1.3987
   79MOL   H30325419   4.479   5.071   7.713  0.3465 -0.6545  0.9575
   79MOL   H30425420   4.219   5.045   8.006 -1.0520 -0.3448  2.5835
   79MOL   H30525421   4.382   5.052   8.043  0.4716  1.0421  1.0257
   79MOL   C30625422   4.277   5.191   8.159 -1.0995  0.0597 -0.3642
   79MOL   C30725423   4.158   5.287   8.150  0.3623  0.7827 -0.0749
   79MOL   C30825424   4.025   5.245   8.126  0.5022  0.1851  0.4370
   79MOL   C30925425   3.928   5.351   8.119 -0.2311  0.1988 -0.9328
   79MOL   C31025426   3.954   5.484   8.124  0.1375  0.5918  1.2185
   79MOL   F31125427   3.843   5.573   8.113  0.1235 -0.6765 -0.0081
   79MOL   C31225428   4.087   5.523   8.144  0.6424 -0.7906 -0.4217
   79MOL   C31325429   4.186   5.428   8.163 -0.2360  0.5028 -0.0316
   79MOL   C31425430   4.255   5.091   0.030  0.6670  0.1167  0.1124
   79MOL   H31525431   4.361   5.256   8.180 -1.7381  1.4230 -1.8701
   79MOL   H31625432   3.996   5.142   8.109 -3.9949  1.1891  1.2606
   79MOL   H31725433   3.836   5.320   8.073  1.2193  1.0047 -4.5681
   79MOL   H31825434   4.109   5.629   8.148 -0.5200 -0.5740  0.4932
   79MOL   H31925435   4.284   5.471   8.180  0.3255 -1.0250  0.7141
   79MOL   H32025436   4.164   5.034   0.013  0.7628  0.0321 -0.1176
   79MOL   H32125437   4.333   5.016   0.044 -1.8924 -2.3521  1.6243
   79MOL   H32225438   4.261   5.142   0.127 -1.5582  0.6921 -0.0298
   80MOL     C125439   3.254   7.200   2.733  0.2928 -0.2980  0.3444
   80MOL     C225440   3.310   7.288   2.842 -0.3773 -0.1016 -0.5112
   80MOL     C325441   3.321   7.246   2.974  0.2043 -0.2364 -0.0675
   80MOL     C425442   3.381   7.325   3.071 -0.6224 -0.4819 -0.9408
   80MOL     C525443   3.431   7.448   3.038 -1.1539 -0.5252  0.2173
   80MOL     F625444   3.484   7.532   3.127  0.3565 -0.4221 -0.4391
   80MOL     C725445   3.425   7.497   2.908 -0.0638  0.4257  0.3593
   80MOL     C825446   3.357   7.421   2.812 -0.6155  0.5441  0.0986
   80MOL     C925447   3.331   7.062   2.724  0.7296  0.3184  0.1063
   80MOL    H1025448   3.258   7.243   2.632 -1.9841  0.8986  0.7303
   80MOL    H1125449   3.290   7.146   3.000 -1.3781  0.5374  1.0657
   80MOL    H1225450   3.377   7.287   3.172 -1.7288  1.2489 -0.3132
   80MOL    H1325451   3.462   7.597   2.886  3.0775 -0.0165  3.2112
   80MOL    H1425452   3.350   7.464   2.713 -1.5379 -1.3867 -0.7011
   80MOL    H1525453   3.438   7.072   2.706  0.5917  1.9679  0.1452
   80MOL    H1625454   3.327   7.009   2.819  2.0658 -0.3226 -0.1837
   80MOL    H1725455   3.150   7.183   2.761 -0.2429  0.7816 -0.9238
   80MOL    C1825456   3.286   6.962   2.613  0.3309 -0.3780 -0.3358
   80MOL    C1925457   3.374   6.837   2.615 -0.3735  0.6529 -0.2446
   80MOL    C2025458   3.338   6.719   2.687 -0.2618  0.3385 -0.1248
   80MOL    C2125459   3.428   6.613   2.691 -0.3379  0.1310 -0.4101
   80MOL    C2225460   3.548   6.617   2.624 -0.2059 -0.6319  0.1762
   80MOL    F2325461   3.631   6.512   2.630 -0.4570  0.1291  0.3716
   80MOL    C2425462   3.582   6.732   2.551  0.0243  0.6964 -1.0607
   80MOL    C2525463   3.498   6.842   2.551  0.7241 -0.1760 -0.2921
   80MOL    C2625464   3.133   6.926   2.618 -0.0459  0.2586  0.6173
   80MOL    H2725465   3.304   7.021   2.523  1.4517 -0.9032 -0.4679
   80MOL    H2825466   3.248   6.713   2.747  0.9421  1.6292  1.8908
   80MOL    H2925467   3.407   6.519   2.741 -0.9869 -0.7978 -2.3444
   80MOL    H3025468   3.672   6.736   2.491  1.0077 -2.1970  0.1614
   80MOL    H3125469   3.528   6.926   2.490  0.9361  0.0310  0.0887
   80MOL    H3225470   3.106   6.876   2.711 -1.0715  0.6064  0.5145
   80MOL    H3325471   3.066   7.012   2.612 -0.3931 -0.1519 -2.3310
   80MOL    C3425472   3.089   6.817   2.520 -0.3908 -0.8133  1.0515
   80MOL    C3525473   2.958   6.755   2.550  0.0680  0.4801 -0.1726
   80MOL    C3625474   2.935   6.624   2.501  0.4314  0.6333  0.4349
   80MOL    C3725475   2.812   6.562   2.522 -0.2050  0.3026 -0.0833
   80MOL    C3825476   2.705   6.625   2.586 -0.3055  0.2782  0.0231
   80MOL    F3925477   2.585   6.555   2.601  0.0498  0.7707 -0.1897
   80MOL    C4025478   2.727   6.760   2.627  0.2710 -0.4963  0.3660
   80MOL    C4125479   2.848   6.824   2.615 -0.3645 -0.2628  0.2606
   80MOL    C4225480   3.093   6.872   2.372 -0.4107  0.0455 -0.1495
   80MOL    H4325481   3.160   6.735   2.514 -0.2291 -0.5800 -0.2688
   80MOL    H4425482   3.004   6.576   2.433  0.6689 -3.4216  3.3638
   80MOL    H4525483   2.795   6.459   2.494  0.3929  0.0239  0.5682
   80MOL    H4625484   2.641   6.805   2.675  1.0609  0.7506  0.6296
   80MOL    H4725485   2.850   6.929   2.640 -0.6077 -0.3526  0.6709
   80MOL    H4825486   3.181   6.935   2.357  0.9189 -1.5773  0.6680
   80MOL    H4925487   3.110   6.785   2.308 -0.4727 -1.5044  1.9247
   80MOL    C5025488   2.961   6.937   2.321  0.0991 -0.1742  0.2532
   80MOL    C5125489   2.943   7.075   2.384  0.0349  0.5008 -0.7582
   80MOL    C5225490   2.826   7.106   2.459  0.6238 -0.1968  0.2735
   80MOL    C5325491   2.809   7.240   2.495  0.9749  0.6184 -0.9416
   80MOL    C5425492   2.905   7.342   2.471  0.3782 -0.3625 -0.0161
   80MOL    F5525493   2.888   7.463   2.526  0.1742 -0.1402 -0.1073
   80MOL    C5625494   3.015   7.308   2.397 -0.6657  0.8572 -0.4352
   80MOL    C5725495   3.042   7.175   2.354  0.2947  0.1310 -0.1988
   80MOL    C5825496   2.958   6.943   2.167  0.9341  0.3198 -0.4411
   80MOL    H5925497   2.880   6.878   2.363 -0.8656 -0.7947 -2.3808
   80MOL    H6025498   2.751   7.029   2.461  0.2511  0.2088  2.0595
   80MOL    H6125499   2.724   7.265   2.557  0.5565 -1.3094 -0.7061
   80MOL    H6225500   3.081   7.388   2.366  0.2728  0.4036  0.3711
   80MOL    H6325501   3.123   7.153   2.287 -0.3562  1.2075 -1.3590
   80MOL    H6425502   2.901   7.031   2.138 -0.3268 -1.4668 -3.6641
   80MOL    H6525503   3.061   6.942   2.130  1.6840 -1.9696  1.6220
   80MOL    C6625504   2.892   6.813   2.111 -0.6832 -0.5955 -0.0070
   80MOL    C6725505   2.758   6.768   2.159  0.1576  0.3649  0.1866
   80MOL    C6825506   2.669   6.855   2.226 -0.3455  0.3085 -0.6966
   80MOL    C6925507   2.554   6.810   2.292  0.7063 -0.0232  0.8002
   80MOL    C7025508   2.518   6.676   2.282  0.4376  0.4682  0.3064
   80MOL    F7125509   2.397   6.637   2.327 -0.2159  0.1823  0.3466
   80MOL    C7225510   2.601   6.585   2.211  0.2160 -0.6200  0.2691
   80MOL    C7325511   2.724   6.628   2.159  0.6499  0.3953  0.4094
   80MOL    C7425512   2.932   6.784   1.969  0.2955 -0.1669 -0.5024
   80MOL    H7525513   2.949   6.740   2.168 -1.5258 -1.0403  0.2844
   80MOL    H7625514   2.704   6.957   2.236 -0.3325  0.2699 -0.3447
   80MOL    H7725515   2.499   6.883   2.350  1.4083  1.0075  0.1929
   80MOL    H7825516   2.573   6.481   2.204 -1.1507 -0.1562 -1.4759
   80MOL    H7925517   2.793   6.561   2.110  0.2222  0.5791 -0.4513
   80MOL    H8025518   3.039   6.799   1.957  0.3284  1.7145  1.7801
   80MOL    H8125519   2.923   6.681   1.932 -0.4853 -0.7563  1.2690
   80MOL    C8225520   2.844   6.859   1.866  0.1511 -0.3312  0.2217
   80MOL    C8325521   2.887   7.009   1.876  0.3956 -0.2938 -0.1390
   80MOL    C8425522   2.781   7.101   1.896 -0.3057  1.0699 -0.0031
   80MOL    C8525523   2.810   7.241   1.894  0.0467  0.2587 -0.2208
   80MOL    C8625524   2.941   7.286   1.873 -0.4047 -0.3629  1.2295
   80MOL    F8725525   2.962   7.419   1.881  0.0846 -0.1354  0.6385
   80MOL    C8825526   3.047   7.199   1.840  0.0623 -0.0970  0.2086
   80MOL    C8925527   3.019   7.058   1.852  0.5734  0.2700  0.1295
   80MOL    C9025528   2.860   6.803   1.723 -0.2548  0.4289 -0.4053
   80MOL    H9125529   2.738   6.859   1.890 -0.1030  1.3482 -0.7631
   80MOL    H9225530   2.681   7.062   1.909  0.7281 -1.5073  0.3830
   80MOL    H9325531   2.736   7.318   1.915  0.9463  0.4398  2.5082
   80MOL    H9425532   3.144   7.243   1.821  1.0044 -1.2063  2.3095
   80MOL    H9525533   3.093   6.984   1.825  0.0889 -1.3637  3.0117
   80MOL    H9625534   2.967   6.789   1.706 -0.3460 -0.3087 -0.3962
   80MOL    H9725535   2.823   6.701   1.726  0.7431  0.0770  0.7164
   80MOL    C9825536   2.793   6.894   1.608  0.0009  0.5969  0.3312
   80MOL    C9925537   2.834   6.847   1.469 -0.4394 -0.2905  0.5075
   80MOL   C10025538   2.770   6.734   1.413  0.6454 -0.2573 -0.3734
   80MOL   C10125539   2.780   6.697   1.274  0.0165 -1.2811 -0.0509
   80MOL   C10225540   2.857   6.777   1.196  0.4819  0.0523 -0.0748
   80MOL   F10325541   2.854   6.749   1.062  0.0901  0.2472 -0.2567
   80MOL   C10425542   2.927   6.890   1.246  0.6564  0.3163 -0.7467
   80MOL   C10525543   2.910   6.931   1.383  0.3677 -0.3327  0.0417
   80MOL   C10625544   2.640   6.919   1.626 -0.2980 -0.6176 -0.4116
   80MOL   H10725545   2.843   6.991   1.612 -0.2033  0.6947  0.5518
   80MOL   H10825546   2.707   6.669   1.472  3.0527 -1.5265  0.8748
   80MOL   H10925547   2.725   6.614   1.234 -1.2683 -1.8430  2.7453
   80MOL   H11025548   2.971   6.958   1.175 -1.0155  0.9589 -1.1896
   80MOL   H11125549   2.951   7.027   1.411  0.7189  0.2411 -2.3037
   80MOL   H11225550   2.581   6.828   1.611 -1.3557  0.2211 -1.4600
   80MOL   H11325551   2.622   6.950   1.729 -1.3598  1.7283 -1.2780
   80MOL   C11425552   2.585   7.031   1.539 -0.6453  0.1680  0.3449
   80MOL   C11525553   2.440   7.024   1.521 -0.4200  0.2707  0.0283
   80MOL   C11625554   2.344   7.033   1.625 -0.4581 -0.3609 -0.4234
   80MOL   C11725555   2.207   7.038   1.602 -0.1908  0.0016  0.5501
   80MOL   C11825556   2.163   7.027   1.475 -0.1831  0.2571  0.1261
   80MOL   F11925557   2.023   7.032   1.460 -0.4871 -0.0012  0.3930
   80MOL   C12025558   2.250   7.018   1.362  0.4236  0.0228 -0.0139
   80MOL   C12125559   2.389   7.010   1.391 -0.2002  0.5636 -0.4668
   80MOL   C12225560   2.629   7.173   1.591  0.5712 -0.0114  0.2896
   80MOL   H12325561   2.642   7.028   1.446 -1.2692 -1.6064 -0.0105
   80MOL   H12425562   2.387   7.049   1.722 -0.9013 -0.7386 -0.1604
   80MOL   H12525563   2.132   7.018   1.677 -0.5946  0.2541  0.2169
   80MOL   H12625564   2.202   7.000   1.267 -0.5111  1.6041  0.1504
   80MOL   H12725565   2.458   6.984   1.312 -0.6796 -3.0138  0.1772
   80MOL   H12825566   2.570   7.193   1.681  1.8017  1.4821  0.7638
   80MOL   H12925567   2.730   7.176   1.631  1.5926  0.9229 -2.2276
   80MOL   C13025568   2.603   7.284   1.490  0.0172  0.5785 -0.5631
   80MOL   C13125569   2.566   7.411   1.569  1.3441  0.5809  0.4593
   80MOL   C13225570   2.428   7.453   1.588  0.1116  0.1587  0.2564
   80MOL   C13325571   2.396   7.564   1.671 -0.3032  0.1044 -0.2601
   80MOL   C13425572   2.498   7.621   1.747  0.5862 -0.2515 -0.2158
   80MOL   F13525573   2.465   7.722   1.831 -0.0813 -0.3231  1.0159
   80MOL   C13625574   2.636   7.586   1.732  0.0569  0.4526 -1.2447
   80MOL   C13725575   2.663   7.482   1.644  0.2444 -0.0137  0.4469
   80MOL   C13825576   2.723   7.300   1.399 -0.9954 -0.1060  0.5804
   80MOL   H13925577   2.510   7.267   1.437  0.3763 -2.2505 -0.3591
   80MOL   H14025578   2.343   7.406   1.543  0.5893 -1.6153  1.1437
   80MOL   H14125579   2.293   7.594   1.680 -0.2700  0.6543 -1.5342
   80MOL   H14225580   2.711   7.642   1.785  1.4777  0.6853 -3.4285
   80MOL   H14325581   2.767   7.453   1.633 -0.0543 -0.4064 -1.5066
   80MOL   H14425582   2.771   7.393   1.428  0.3505  0.0068 -1.8802
   80MOL   H14525583   2.794   7.219   1.411 -1.1797 -0.2413  0.7784
   80MOL   C14625584   2.680   7.331   1.249  0.1882 -0.0459 -0.3137
   80MOL   C14725585   2.788   7.404   1.171  0.0903  0.1025  0.2278
   80MOL   C14825586   2.879   7.340   1.081  0.2303 -0.1066 -0.0845
   80MOL   C14925587   2.978   7.417   1.012  0.5641 -0.9273 -0.6640
   80MOL   C15025588   2.991   7.552   1.033 -0.5917  0.3777  0.5719
   80MOL   F15125589   3.087   7.618   0.966 -0.3842  0.1076  0.2736
   80MOL   C15225590   2.905   7.617   1.123 -0.9209 -0.0708 -0.2300
   80MOL   C15325591   2.803   7.547   1.189 -0.2605  0.0096 -0.0728
   80MOL   C15425592   2.631   7.201   1.181 -0.8778  0.2485 -0.1059
   80MOL   H15525593   2.590   7.392   1.253 -0.1498 -0.4242 -1.7012
   80MOL   H15625594   2.894   7.233   1.079 -2.3513 -0.4601 -1.4394
   80MOL   H15725595   3.039   7.372   0.935  0.3738  0.8527 -1.9057
   80MOL   H15825596   2.923   7.724   1.131 -0.7820 -0.1016 -0.1375
   80MOL   H15925597   2.735   7.594   1.258 -1.1215 -0.6888 -0.4236
   80MOL   H16025598   2.720   7.141   1.163 -1.0095 -0.1773  0.6184
   80MOL   H16125599   2.577   7.140   1.254 -0.9309  1.8696  1.2490
   80MOL   C16225600   2.550   7.224   1.050 -0.3030  0.4058 -0.7567
   80MOL   C16325601   2.584   7.123   0.948 -0.5133 -0.1705  0.7495
   80MOL   C16425602   2.660   7.152   0.833  0.4078 -0.6417 -0.3507
   80MOL   C16525603   2.697   7.060   0.736  0.0355 -0.0902  0.0289
   80MOL   C16625604   2.668   6.923   0.761 -0.2392 -0.0561 -0.7143
   80MOL   F16725605   2.719   6.819   0.689  0.2808 -0.9917  0.1171
   80MOL   C16825606   2.604   6.887   0.878  0.1781 -0.3153 -0.4584
   80MOL   C16925607   2.571   6.985   0.977 -0.0885 -0.4820 -0.7048
   80MOL   C17025608   2.396   7.218   1.082  0.1055 -0.4051 -0.7516
   80MOL   H17125609   2.568   7.324   1.011  2.5587  0.1405 -0.1828
   80MOL   H17225610   2.693   7.254   0.818 -1.2542 -0.1391 -0.7241
   80MOL   H17325611   2.748   7.102   0.650 -1.8260 -2.2231 -2.2148
   80MOL   H17425612   2.595   6.782   0.898  1.1606 -0.5669 -1.3014
   80MOL   H17525613   2.531   6.949   1.070 -0.9234 -0.7646 -1.1576
   80MOL   H17625614   2.381   7.141   1.158  0.6987  0.2589  0.0439
   80MOL   H17725615   2.361   7.309   1.129  0.7889 -0.2063 -0.6212
   80MOL   C17825616   2.302   7.180   0.964 -0.3057  0.2019  0.0400
   80MOL   C17925617   2.160   7.147   1.008  0.1497  0.5781 -0.7765
   80MOL   C18025618   2.083   7.054   0.937 -0.6145  1.5317 -0.6340
   80MOL   C18125619   1.951   7.031   0.973  0.3401  0.9560 -0.6140
   80MOL   C18225620   1.890   7.091   1.082 -0.1755  0.2573  0.0584
   80MOL   F18325621   1.757   7.091   1.107 -0.5975  0.4188  0.0293
   80MOL   C18425622   1.973   7.174   1.161  0.3285  0.2252  0.2438
   80MOL   C18525623   2.102   7.211   1.119 -0.3034  0.0848 -0.0184
   80MOL   C18625624   2.293   7.285   0.843 -0.3213  0.2639  0.2768
   80MOL   H18725625   2.334   7.087   0.916 -0.7168  0.0011  0.1438
   80MOL   H18825626   2.116   7.009   0.844  0.0436  1.4666 -0.3744
   80MOL   H18925627   1.897   6.969   0.903  0.9453  0.5638 -0.7317
   80MOL   H19025628   1.935   7.218   1.253  0.5104  1.3960 -0.2270
   80MOL   H19125629   2.155   7.271   1.192 -0.1713  0.4856 -0.4430
   80MOL   H19225630   2.383   7.289   0.783  0.1745  1.7164  1.0857
   80MOL   H19325631   2.218   7.241   0.777 -0.6765  3.2896 -1.4449
   80MOL   C19425632   2.235   7.423   0.874 -0.7049  0.1273 -0.2610
   80MOL   C19525633   2.326   7.521   0.944 -0.6020 -0.1528 -0.1873
   80MOL   C19625634   2.456   7.557   0.895 -0.8852 -0.1248  0.0003
   80MOL   C19725635   2.535   7.649   0.965 -0.3695 -0.3530 -0.5459
   80MOL   C19825636   2.482   7.714   1.080 -0.4727 -0.5548  0.1975
   80MOL   F19925637   2.565   7.794   1.149  0.0786 -0.1084 -0.3396
   80MOL   C20025638   2.353   7.678   1.124 -0.0803 -0.4767  0.5452
   80MOL   C20125639   2.276   7.586   1.055  0.4344 -0.3681  0.3576
   80MOL   C20225640   2.178   7.496   0.745  0.0542 -0.1161  0.3625
   80MOL   H20325641   2.160   7.402   0.951  1.1893 -0.0280  1.6041
   80MOL   H20425642   2.506   7.507   0.813 -0.5354 -1.3762  0.9601
   80MOL   H20525643   2.636   7.666   0.931  0.3695 -2.1425  0.6942
   80MOL   H20625644   2.324   7.716   1.221 -0.3682  1.6490 -0.3438
   80MOL   H20725645   2.179   7.568   1.100  0.0339  1.9438  0.5068
   80MOL   H20825646   2.175   7.603   0.760  0.2653 -0.3855  2.5696
   80MOL   H20925647   2.237   7.484   0.654 -0.6970  3.1142 -0.5885
   80MOL   C21025648   2.037   7.448   0.710  0.1622 -0.1753  0.5106
   80MOL   C21125649   1.934   7.506   0.811 -0.6759  0.1703  0.2042
   80MOL   C21225650   1.842   7.413   0.868 -0.4407 -0.2922 -0.6030
   80MOL   C21325651   1.750   7.455   0.967 -0.6568  0.0206 -0.1313
   80MOL   C21425652   1.747   7.590   1.007 -0.2080 -0.0939  0.4130
   80MOL   F21525653   1.646   7.621   1.094 -0.1588 -0.8195 -0.6037
   80MOL   C21625654   1.831   7.687   0.946 -1.1965 -0.4724  0.3971
   80MOL   C21725655   1.922   7.647   0.843 -0.0943  1.0347  0.1851
   80MOL   C21825656   1.983   7.470   0.563  0.5057 -0.3914  0.8781
   80MOL   H21925657   2.037   7.339   0.715  1.2469 -0.2217 -0.4096
   80MOL   H22025658   1.842   7.307   0.847 -2.0070 -0.6128  0.8796
   80MOL   H22125659   1.684   7.385   1.017  0.3884 -0.4352  0.6302
   80MOL   H22225660   1.820   7.788   0.983  0.7672  0.3403 -1.1784
   80MOL   H22325661   1.992   7.713   0.794  0.6043  0.3656  0.2718
   80MOL   H22425662   1.880   7.436   0.564  0.0860  0.4791 -3.3080
   80MOL   H22525663   1.989   7.578   0.546 -0.3907 -0.7032 -1.6072
   80MOL   C22625664   2.059   7.400   0.446 -0.3966 -0.1293  0.2536
   80MOL   C22725665   2.120   7.257   0.477 -0.3555  0.7092 -0.4876
   80MOL   C22825666   2.255   7.222   0.452 -0.2530  0.4372  0.0237
   80MOL   C22925667   2.310   7.098   0.494  0.3555  0.3059 -0.0125
   80MOL   C23025668   2.219   6.998   0.548  0.0867 -0.1563 -0.2063
   80MOL   F23125669   2.280   6.884   0.595  0.0414  0.0861 -0.2211
   80MOL   C23225670   2.085   7.031   0.564  0.3281  0.1309  0.6895
   80MOL   C23325671   2.035   7.158   0.524 -0.2980  0.5891  0.3054
   80MOL   C23425672   1.980   7.407   0.310 -0.2389  0.6049 -0.1203
   80MOL   H23525673   2.147   7.461   0.424 -0.1196 -0.6712 -0.1400
   80MOL   H23625674   2.332   7.287   0.413  1.6390 -2.4648 -1.2633
   80MOL   H23725675   2.414   7.076   0.478  0.3403  1.1635 -1.4239
   80MOL   H23825676   2.018   6.953   0.595  1.7938 -1.6759 -0.5811
   80MOL   H23925677   1.931   7.169   0.552 -0.7087 -0.4909 -0.8084
   80MOL   H24025678   1.907   7.327   0.302 -1.7811  1.9518  0.1746
   80MOL   H24125679   1.904   7.484   0.291  0.7303  1.9075  1.1916
   80MOL   C24225680   2.062   7.382   0.171  0.1588  0.0600  0.6840
   80MOL   C24325681   1.954   7.341   0.062 -0.4102  0.1088  1.3292
   80MOL   C24425682   1.840   7.421   0.037 -0.2842  0.7008 -0.2288
   80MOL   C24525683   1.740   7.387   8.185 -0.2783  0.1107 -0.7678
   80MOL   C24625684   1.754   7.265   8.113 -0.5874  0.0840  0.0609
   80MOL   F24725685   1.660   7.225   8.032  0.4947  0.2073 -0.0247
   80MOL   C24825686   1.870   7.183   8.134  0.5901  0.3582  0.9764
   80MOL   C24925687   1.976   7.222   8.222  0.6514  0.1764 -0.6291
   80MOL   C25025688   2.160   7.494   0.132 -0.2898 -0.8039 -0.0012
   80MOL   H25125689   2.129   7.297   0.186  1.1424  0.3182 -1.9226
   80MOL   H25225690   1.839   7.520   0.080 -0.8213  0.1960  0.9245
   80MOL   H25325691   1.659   7.455   8.160 -0.6601  0.3898  1.1219
   80MOL   H25425692   1.875   7.091   8.079 -1.7870  0.0211  1.2403
   80MOL   H25525693   2.068   7.167   0.001  0.9582  0.3114 -2.1583
   80MOL   H25625694   2.148   7.523   0.028 -1.3397 -0.7061  0.1473
   80MOL   H25725695   2.141   7.584   0.191 -1.7418 -0.0734 -1.5526
   80MOL   C25825696   2.304   7.448   0.141  0.3860  0.3323  0.0228
   80MOL   C25925697   2.328   7.332   0.049 -0.0218  0.4894 -0.1308
   80MOL   C26025698   2.379   7.207   0.103 -0.3165 -0.8871 -0.1850
   80MOL   C26125699   2.414   7.100   0.025 -0.8261 -0.5097 -0.6665
   80MOL   C26225700   2.413   7.116   8.121  0.5029 -0.4748  0.2414
   80MOL   F26325701   2.461   7.014   8.046 -0.2140  0.4981 -0.5952
   80MOL   C26425702   2.371   7.235   8.059  0.1058 -0.2953 -0.3426
   80MOL   C26525703   2.326   7.344   8.142  0.0818 -0.2332 -0.4618
   80MOL   C26625704   2.400   7.560   0.107  0.3787 -0.4727 -0.2817
   80MOL   H26725705   2.315   7.401   0.239 -2.5409  1.0217  0.7392
   80MOL   H26825706   2.392   7.189   0.209 -0.5162  1.7345  0.3092
   80MOL   H26925707   2.452   7.018   0.085 -2.9457 -1.4080 -0.4914
   80MOL   H27025708   2.378   7.246   7.951 -0.7066 -0.8081 -0.4478
   80MOL   H27125709   2.306   7.441   8.098  1.5881  0.7381  0.9215
   80MOL   H27225710   2.383   7.602   0.007  0.7479  0.8621  0.2082
   80MOL   H27325711   2.369   7.656   0.150 -0.4172  0.1270 -2.0923
   80MOL   C27425712   2.549   7.540   0.125  0.2633 -0.3496  0.0081
   80MOL   C27525713   2.621   7.669   0.069  0.3507  0.3242  0.2007
   80MOL   C27625714   2.697   7.663   8.189 -0.4947  0.6469  0.0240
   80MOL   C27725715   2.754   7.778   8.138  0.4633 -0.4572  0.3358
   80MOL   C27825716   2.752   7.898   8.205  0.6560  0.2831  1.2146
   80MOL   F27925717   2.813   8.012   8.158 -0.4947 -0.2421 -0.2172
   80MOL   C28025718   2.674   7.903   0.089 -0.1504  0.1397  0.5360
   80MOL   C28125719   2.605   7.791   0.136 -0.4572 -0.1748 -0.2702
   80MOL   C28225720   2.592   7.501   0.272 -0.5456 -0.6951 -0.3658
   80MOL   H28325721   2.567   7.456   0.058  0.5239 -1.7146  1.7768
   80MOL   H28425722   2.701   7.573   8.130  0.5691  1.6366 -1.4524
   80MOL   H28525723   2.805   7.770   8.043  0.8621 -2.8824  0.7332
   80MOL   H28625724   2.673   7.992   0.150 -0.6913 -0.4420  1.3843
   80MOL   H28725725   2.564   7.795   0.236 -0.3149  2.6030 -0.2615
   80MOL   H28825726   2.532   7.571   0.331 -1.3415 -0.9879 -0.8267
   80MOL   H28925727   2.550   7.406   0.303  2.9833 -1.5848  2.0756
   80MOL   C29025728   2.745   7.500   0.311 -0.3494  0.4753 -0.0558
   80MOL   C29125729   2.770   7.567   0.442 -0.0391  0.5876  0.1472
   80MOL   C29225730   2.736   7.507   0.570 -0.0308 -0.6598  1.0839
   80MOL   C29325731   2.767   7.578   0.686  0.0417 -0.3590  0.4399
   80MOL   C29425732   2.842   7.700   0.681  0.1284  0.2979 -0.2610
   80MOL   F29525733   2.870   7.748   0.803  0.3231 -0.7194 -0.3250
   80MOL   C29625734   2.871   7.762   0.559  0.3098 -0.2963 -0.4851
   80MOL   C29725735   2.838   7.692   0.439 -0.0209  0.2076 -0.0310
   80MOL   C29825736   2.802   7.357   0.306 -1.2113 -0.2603  0.1709
   80MOL   H29925737   2.793   7.568   0.240  0.6091 -0.3460 -0.2082
   80MOL   H30025738   2.695   7.408   0.580 -2.7720  0.3996  0.9566
   80MOL   H30125739   2.737   7.547   0.785  0.1912  0.8424  0.8689
   80MOL   H30225740   2.935   7.850   0.558 -1.1460  0.7906 -2.3351
   80MOL   H30325741   2.865   7.739   0.346  0.0476 -1.0743 -0.6669
   80MOL   H30425742   2.898   7.354   0.358 -1.0422  0.2427 -0.1029
   80MOL   H30525743   2.742   7.292   0.370  0.6357 -0.7249  1.4730
   80MOL   C30625744   2.817   7.281   0.175 -1.2376  0.3147 -0.1502
   80MOL   C30725745   2.893   7.344   0.059  0.2003  0.1804 -0.8291
   80MOL   C30825746   2.851   7.309   8.162 -0.0803 -0.1064 -0.2722
   80MOL   C30925747   2.907   7.375   8.050  0.6314 -0.5818 -0.1916
   80MOL   C31025748   3.007   7.472   8.067 -0.3137  0.3329  0.1742
   80MOL   F31125749   3.065   7.535   7.958 -0.4113  0.1587  0.3038
   80MOL   C31225750   3.046   7.504   8.194 -0.6348  0.4257 -0.3269
   80MOL   C31325751   2.996   7.441   0.074  0.5934  0.0835  0.0574
   80MOL   C31425752   2.856   7.132   0.202 -0.5525 -0.5259 -0.3142
   80MOL   H31525753   2.717   7.288   0.133 -2.0352  1.1988  1.8099
   80MOL   H31625754   2.775   7.234   8.145  0.0570 -0.1590 -0.6336
   80MOL   H31725755   2.876   7.346   7.950  0.9397  0.8957 -0.7295
   80MOL   H31825756   3.116   7.584   8.208 -1.8718  1.3270  0.8810
   80MOL   H31925757   3.039   7.479   0.165  0.8799 -1.1731  0.4529
   80MOL   H32025758   2.843   7.055   0.126  2.1801 -1.9078  0.5639
   80MOL   H32125759   2.959   7.123   0.237 -0.7971  2.1867  1.2286
   80MOL   H32225760   2.800   7.089   0.285 -1.1726  1.5849  0.3714
   81MOL     C125761   2.085   5.913   2.552  0.0809 -0.2568  0.0189
   81MOL     C225762   2.205   5.875   2.468 -0.0621 -0.8377 -0.1902
   81MOL     C325763   2.323   5.817   2.518 -0.0913  0.7331  0.2410
   81MOL     C425764   2.422   5.766   2.430  0.4765  0.1483  0.0677
   81MOL     C525765   2.408   5.781   2.289  0.3198  0.7820  0.0628
   81MOL     F625766   2.497   5.718   2.205  0.4683 -0.3487  0.4913
   81MOL     C725767   2.294   5.849   2.244 -0.7634 -0.0427  0.3255
   81MOL     C825768   2.193   5.891   2.329 -0.1286 -0.2376 -0.3194
   81MOL     C925769   2.049   5.815   2.666  1.1290 -0.0736  0.0946
   81MOL    H1025770   2.000   5.921   2.484  0.3631  2.4299 -0.1050
   81MOL    H1125771   2.326   5.805   2.625  0.8935  0.6632  0.2159
   81MOL    H1225772   2.510   5.716   2.469  0.4358  0.0598  0.0462
   81MOL    H1325773   2.283   5.858   2.137  1.0954  1.5782  0.2387
   81MOL    H1425774   2.102   5.933   2.291 -1.7404 -1.3010  2.2421
   81MOL    H1525775   2.067   5.710   2.643  2.1890 -0.2596  1.6769
   81MOL    H1625776   2.119   5.841   2.746 -1.4341  0.1347  2.3391
   81MOL    H1725777   2.100   6.015   2.589  1.3021  0.8361 -3.2725
   81MOL    C1825778   1.900   5.831   2.715  0.7123  0.0309  0.0183
   81MOL    C1925779   1.886   5.977   2.771  0.3654  0.6586 -0.6969
   81MOL    C2025780   1.944   5.998   2.895 -0.2014 -0.5865 -0.4306
   81MOL    C2125781   1.947   6.124   2.953 -0.5225 -0.3834 -0.0502
   81MOL    C2225782   1.881   6.235   2.889 -0.3687 -0.0282  1.0347
   81MOL    F2325783   1.892   6.362   2.944 -0.0148  1.0822  0.2027
   81MOL    C2425784   1.813   6.215   2.765  0.8413  0.5206 -0.0703
   81MOL    C2525785   1.815   6.082   2.713  0.8672  0.0255 -0.2045
   81MOL    C2625786   1.786   5.798   2.611 -0.1113 -0.1485 -0.6826
   81MOL    H2725787   1.899   5.766   2.802  3.2187 -0.3415 -0.2015
   81MOL    H2825788   1.986   5.914   2.947 -1.4558 -1.2859 -0.5231
   81MOL    H2925789   2.002   6.135   3.046 -0.5822 -0.6969  0.0215
   81MOL    H3025790   1.762   6.298   2.718 -0.3524  1.3253  2.5388
   81MOL    H3125791   1.766   6.068   2.618  2.7043 -0.2192 -1.1360
   81MOL    H3225792   1.692   5.814   2.664  1.1596  0.2325  1.5489
   81MOL    H3325793   1.779   5.872   2.532 -1.1549  2.1217  1.4503
   81MOL    C3425794   1.785   5.653   2.558 -0.4141  0.0392 -0.2043
   81MOL    C3525795   1.800   5.545   2.663  0.0018 -0.1631  0.0574
   81MOL    C3625796   1.706   5.537   2.772 -0.6527  0.5513  0.1167
   81MOL    C3725797   1.719   5.429   2.860 -0.2316  0.4800  0.4020
   81MOL    C3825798   1.814   5.321   2.834  0.3092  0.4155 -0.2546
   81MOL    F3925799   1.826   5.211   2.906 -0.3136 -0.3178  0.2763
   81MOL    C4025800   1.901   5.334   2.725  0.5710 -0.5285  0.2117
   81MOL    C4125801   1.895   5.446   2.641  0.5415 -0.4851  0.6467
   81MOL    C4225802   1.665   5.619   2.465  0.4104  0.0982 -0.3362
   81MOL    H4325803   1.876   5.649   2.499 -0.4885  0.5215 -0.3530
   81MOL    H4425804   1.622   5.605   2.781 -0.5708  0.7825 -0.7863
   81MOL    H4525805   1.653   5.428   2.945 -0.6708  1.7057  0.0889
   81MOL    H4625806   1.968   5.252   2.705  1.7051  0.2405  0.8192
   81MOL    H4725807   1.958   5.441   2.554 -1.2964 -0.0214 -0.7428
   81MOL    H4825808   1.657   5.511   2.456 -1.6956 -0.0125  2.0670
   81MOL    H4925809   1.577   5.657   2.517  1.1464 -0.9732  1.7718
   81MOL    C5025810   1.676   5.679   2.326 -0.2349 -0.5480 -0.0572
   81MOL    C5125811   1.799   5.641   2.240  0.5225 -0.5691  0.2213
   81MOL    C5225812   1.879   5.737   2.175  0.6020 -0.3599  0.4304
   81MOL    C5325813   1.995   5.706   2.104 -0.3202  0.3347  0.0894
   81MOL    C5425814   2.024   5.564   2.091 -0.3241 -0.2023 -1.1311
   81MOL    F5525815   2.117   5.534   1.997  0.0511 -0.3063 -0.1026
   81MOL    C5625816   1.951   5.467   2.155 -0.1945  0.2699 -0.2954
   81MOL    C5725817   1.838   5.502   2.230  0.7731 -0.2597  0.8481
   81MOL    C5825818   1.542   5.648   2.247 -0.2526 -0.4456  0.3976
   81MOL    H5925819   1.708   5.782   2.341  1.0440 -0.8960 -0.3388
   81MOL    H6025820   1.879   5.843   2.199  0.6521  0.0834 -1.4045
   81MOL    H6125821   2.049   5.788   2.059  1.0695  0.0591  1.2036
   81MOL    H6225822   1.976   5.364   2.134 -2.0526 -0.6683  1.8161
   81MOL    H6325823   1.769   5.431   2.272 -0.7560  0.3831 -0.4727
   81MOL    H6425824   1.580   5.679   2.149 -2.7312 -0.3557 -0.5739
   81MOL    H6525825   1.513   5.543   2.238 -1.1817 -0.2953  1.5004
   81MOL    C6625826   1.417   5.747   2.273  0.0121  0.4112  0.5702
   81MOL    C6725827   1.449   5.864   2.371  0.0014 -0.4010 -0.0274
   81MOL    C6825828   1.392   5.864   2.497 -0.1734 -0.4350  0.3505
   81MOL    C6925829   1.413   5.976   2.582 -0.2277 -0.6921 -0.3241
   81MOL    C7025830   1.499   6.082   2.548 -0.5826 -0.0596  0.0366
   81MOL    F7125831   1.519   6.187   2.626  0.0974  0.1838  0.0159
   81MOL    C7225832   1.558   6.078   2.418 -0.8000 -0.4431  0.4310
   81MOL    C7325833   1.534   5.972   2.333  0.2204  0.4129 -0.3029
   81MOL    C7425834   1.362   5.795   2.133  0.3994  0.2392  0.3797
   81MOL    H7525835   1.340   5.684   2.317  1.6580 -2.8461 -0.9572
   81MOL    H7625836   1.313   5.794   2.520 -0.5136 -0.8036 -1.7843
   81MOL    H7725837   1.357   5.977   2.675 -1.4216 -2.4443 -0.9948
   81MOL    H7825838   1.631   6.154   2.392  0.7135 -1.5965  1.2208
   81MOL    H7925839   1.579   5.976   2.235  0.5111  0.5352 -0.1654
   81MOL    H8025840   1.436   5.860   2.084 -1.3540  0.6203 -1.8483
   81MOL    H8125841   1.363   5.700   2.079  1.3066  0.8191 -0.6481
   81MOL    C8225842   1.228   5.876   2.139  0.1478 -0.2647 -0.2741
   81MOL    C8325843   1.238   6.000   2.052  0.1068  0.2334 -0.3995
   81MOL    C8425844   1.249   6.124   2.121 -0.2679 -0.4626  0.0943
   81MOL    C8525845   1.294   6.235   2.049  0.3567 -0.6381 -0.1307
   81MOL    C8625846   1.318   6.224   1.910  0.8690 -0.2874  0.5496
   81MOL    F8725847   1.373   6.327   1.845 -0.1162 -0.0864  0.8530
   81MOL    C8825848   1.300   6.102   1.844  0.2485 -0.5900 -0.0924
   81MOL    C8925849   1.256   5.988   1.911 -0.0027 -0.3730 -0.2918
   81MOL    C9025850   1.106   5.777   2.109  0.0571 -0.3441 -0.3377
   81MOL    H9125851   1.214   5.906   2.243 -1.3919 -0.6570 -0.3638
   81MOL    H9225852   1.238   6.136   2.228  1.0275  0.6868  0.1180
   81MOL    H9325853   1.307   6.328   2.101  2.9714  0.0489 -1.8900
   81MOL    H9425854   1.319   6.101   1.738 -1.1533  0.2683 -0.3571
   81MOL    H9525855   1.247   5.901   1.848 -0.5942 -0.0672 -0.6348
   81MOL    H9625856   1.095   5.773   2.001  2.1261 -1.1561 -0.5323
   81MOL    H9725857   1.136   5.676   2.137  0.0771 -1.1303 -3.0809
   81MOL    C9825858   0.971   5.815   2.175 -0.3175 -1.1895  0.6608
   81MOL    C9925859   0.869   5.709   2.135 -0.5277  0.3091 -0.3498
   81MOL   C10025860   0.771   5.732   2.037  0.6081 -0.0935  1.2101
   81MOL   C10125861   0.685   5.630   1.998  0.3690  0.1610  0.4484
   81MOL   C10225862   0.694   5.500   2.053  0.5245 -0.2883 -0.4682
   81MOL   F10325863   0.609   5.403   2.021 -0.5338  0.0249 -0.1051
   81MOL   C10425864   0.806   5.476   2.137  0.1467 -0.7621 -0.8293
   81MOL   C10525865   0.883   5.582   2.187 -0.5097 -0.7424  0.6599
   81MOL   C10625866   0.980   5.840   2.328 -0.6771 -0.2201  0.3283
   81MOL   H10725867   0.924   5.900   2.127 -2.7014 -1.8627  1.7164
   81MOL   H10825868   0.766   5.834   2.003  0.8975 -1.0284 -1.7520
   81MOL   H10925869   0.600   5.642   1.933  2.3021 -0.0071 -2.1801
   81MOL   H11025870   0.832   5.374   2.162  1.3553 -0.2919 -0.1264
   81MOL   H11125871   0.956   5.563   2.264  1.8872 -0.1190 -1.3890
   81MOL   H11225872   1.056   5.774   2.368  0.7790  1.8940  1.1223
   81MOL   H11325873   1.026   5.938   2.342 -1.3619 -0.0292  1.2705
   81MOL   C11425874   0.850   5.846   2.410  0.5217  0.5467  0.4002
   81MOL   C11525875   0.866   5.818   2.559  0.1466 -0.5852 -0.9063
   81MOL   C11625876   0.759   5.768   2.640  0.6438 -0.0465  0.4185
   81MOL   C11725877   0.774   5.729   2.775  0.0435 -0.3707  0.3872
   81MOL   C11825878   0.900   5.753   2.837  0.0808 -0.6497 -0.1178
   81MOL   F11925879   0.935   5.713   2.963  0.0946  0.3435 -0.6282
   81MOL   C12025880   1.004   5.805   2.758 -0.3578 -1.0372  0.8161
   81MOL   C12125881   0.993   5.836   2.623  0.0220 -0.2523  0.4749
   81MOL   C12225882   0.756   5.973   2.379 -0.5238  0.0185  0.2507
   81MOL   H12325883   0.788   5.762   2.377  1.1814  1.4537 -3.3098
   81MOL   H12425884   0.663   5.743   2.596  0.4318 -0.0363  0.8640
   81MOL   H12525885   0.694   5.677   2.826  0.5262 -1.0765  0.4169
   81MOL   H12625886   1.102   5.826   2.798  0.3858 -1.6490 -0.6695
   81MOL   H12725887   1.076   5.880   2.569  0.5835  0.4718  1.9084
   81MOL   H12825888   0.788   6.007   2.281 -0.9841  2.3291  0.8658
   81MOL   H12925889   0.653   5.938   2.369 -0.2072 -0.4352 -1.5004
   81MOL   C13025890   0.752   6.090   2.482 -0.2851 -0.1545 -0.3994
   81MOL   C13125891   0.888   6.163   2.484  0.2237 -0.0200  0.3875
   81MOL   C13225892   0.959   6.171   2.603 -0.3142  0.4320  0.3986
   81MOL   C13325893   1.091   6.218   2.601 -0.3051  0.1618  0.2396
   81MOL   C13425894   1.146   6.272   2.481  0.5087 -0.2119 -0.6110
   81MOL   F13525895   1.278   6.315   2.477  0.6723 -0.1453 -0.4634
   81MOL   C13625896   1.073   6.276   2.361 -0.2969 -0.2809  0.3326
   81MOL   C13725897   0.941   6.224   2.371 -0.6124 -0.4894  0.0926
   81MOL   C13825898   0.643   6.200   2.438  0.8400 -0.1092  0.0964
   81MOL   H13925899   0.729   6.056   2.583 -1.4693  1.2510 -0.1877
   81MOL   H14025900   0.918   6.134   2.696  1.1655 -0.3183  0.7753
   81MOL   H14125901   1.156   6.211   2.686  2.7411  1.6767 -1.8546
   81MOL   H14225902   1.112   6.320   2.270 -2.8739  1.2129 -0.0986
   81MOL   H14325903   0.879   6.234   2.283 -1.0267 -0.3722  0.4009
   81MOL   H14425904   0.652   6.298   2.485  2.3201  0.2115 -0.7889
   81MOL   H14525905   0.652   6.216   2.331 -0.5224  1.8955  0.2590
   81MOL   C14625906   0.501   6.160   2.473  0.3431 -0.5021 -0.2270
   81MOL   C14725907   0.474   6.098   2.612 -0.0712 -0.2461  0.3465
   81MOL   C14825908   0.498   6.161   2.732  0.1592 -0.4240 -0.3221
   81MOL   C14925909   0.465   6.112   2.861  0.2487  0.2846  0.4384
   81MOL   C15025910   0.413   5.982   2.863  0.1533  0.5501 -0.4767
   81MOL   F15125911   0.392   5.917   2.978 -0.3517  0.1228 -0.3379
   81MOL   C15225912   0.384   5.912   2.741 -0.1259 -0.2827  0.0659
   81MOL   C15325913   0.410   5.970   2.617 -0.2752 -0.3252  0.3511
   81MOL   C15425914   0.392   6.270   2.440 -0.2941 -0.5176 -0.8345
   81MOL   H15525915   0.484   6.075   2.407  0.1417  0.6401 -1.6587
   81MOL   H15625916   0.538   6.261   2.729 -2.2866  0.5877 -0.2763
   81MOL   H15725917   0.481   6.175   2.947 -0.6307  0.6500  0.3304
   81MOL   H15825918   0.345   5.812   2.748 -0.5157 -0.0438  1.4230
   81MOL   H15925919   0.400   5.899   2.536  1.0571 -1.0514  0.7958
   81MOL   H16025920   0.296   6.247   2.487  0.3482  1.4893  1.6204
   81MOL   H16125921   0.412   6.372   2.476  0.4930 -0.3463 -1.7489
   81MOL   C16225922   0.354   6.284   2.285 -0.3055 -0.1416 -0.3639
   81MOL   C16325923   0.377   6.158   2.209 -0.3532  1.0958 -0.5182
   81MOL   C16425924   0.289   6.050   2.227 -0.5821  0.7718 -0.2243
   81MOL   C16525925   0.302   5.936   2.149  0.0328  0.7089  0.1833
   81MOL   C16625926   0.413   5.910   2.067 -0.2705  0.5747 -0.6807
   81MOL   F16725927   0.427   5.793   2.002 -0.7133 -0.4015  0.4860
   81MOL   C16825928   0.513   6.004   2.058 -0.6270  0.3119 -0.1934
   81MOL   C16925929   0.494   6.126   2.131  0.2708 -0.5707 -0.3655
   81MOL   C17025930   0.205   6.330   2.256  0.4294 -0.6148 -0.2345
   81MOL   H17125931   0.422   6.360   2.247 -1.9937  0.2551 -2.6818
   81MOL   H17225932   0.197   6.061   2.282  0.5107  0.8803  1.6063
   81MOL   H17325933   0.231   5.855   2.156  1.4846 -0.6625 -0.7922
   81MOL   H17425934   0.601   6.001   1.995 -1.1684 -0.5951 -0.9247
   81MOL   H17525935   0.563   6.209   2.129  0.3097 -0.5282  1.4826
   81MOL   H17625936   0.181   6.310   2.152  0.7614 -0.6555 -0.3035
   81MOL   H17725937   0.131   6.266   2.304 -0.0884 -0.0824 -0.3229
   81MOL   C17825938   0.179   6.479   2.298  0.7617  0.0031  0.7694
   81MOL   C17925939   0.162   6.560   2.173  0.0776 -0.0655 -0.1732
   81MOL   C18025940   0.275   6.615   2.112  0.3244 -0.8713  0.5927
   81MOL   C18125941   0.260   6.658   1.978 -0.1563 -0.1765 -0.2891
   81MOL   C18225942   0.135   6.664   1.918 -0.2469  0.2670 -0.2293
   81MOL   F18325943   0.128   6.712   1.789 -0.3492  1.0029  0.3517
   81MOL   C18425944   0.021   6.635   1.986 -0.0803  0.0305 -0.0432
   81MOL   C18525945   0.032   6.570   2.109  0.3517  0.2669 -0.8407
   81MOL   C18625946   0.066   6.493   2.404 -0.5809 -0.0704  0.1137
   81MOL   H18725947   0.268   6.520   2.346 -0.0861  0.3116  2.0877
   81MOL   H18825948   0.369   6.610   2.166  0.6441 -0.3177  0.1012
   81MOL   H18925949   0.350   6.690   1.927  0.3187  1.1300  1.3031
   81MOL   H19025950   8.158   6.647   1.940  0.3647  4.3024 -0.0272
   81MOL   H19125951   8.182   6.528   2.160  1.0611 -3.0011 -2.2500
   81MOL   H19225952   0.034   6.596   2.420 -0.6193  0.0773 -0.8951
   81MOL   H19325953   8.214   6.440   2.363 -0.1488  1.2375 -2.6066
   81MOL   C19425954   0.110   6.465   2.551  0.4724  0.0776 -0.4437
   81MOL   C19525955   0.216   6.551   2.614 -0.9108 -0.3355 -0.3504
   81MOL   C19625956   0.214   6.689   2.600  0.3955 -0.5951 -0.3050
   81MOL   C19725957   0.301   6.772   2.669  0.7156  0.1574  0.2275
   81MOL   C19825958   0.404   6.716   2.745  0.4141  0.1866  0.3846
   81MOL   F19925959   0.487   6.802   2.815  0.2812 -0.3401  0.5218
   81MOL   C20025960   0.411   6.577   2.759 -0.6020 -0.9133 -0.2348
   81MOL   C20125961   0.322   6.491   2.694  0.3108 -0.6156  0.6382
   81MOL   C20225962   8.225   6.459   2.646 -0.7803 -0.1179  0.3116
   81MOL   H20325963   0.150   6.365   2.570  1.2285  0.9060  2.5669
   81MOL   H20425964   0.133   6.731   2.542 -1.2480 -1.6374  1.1660
   81MOL   H20525965   0.298   6.880   2.671  1.6312  0.1899  0.0217
   81MOL   H20625966   0.491   6.537   2.820  1.1616  2.1789 -0.3743
   81MOL   H20725967   0.326   6.384   2.706 -0.6656 -0.8708 -1.0695
   81MOL   H20825968   0.014   6.442   2.751 -2.5481  0.5816  0.8504
   81MOL   H20925969   8.190   6.562   2.656 -0.2403  0.0891  0.0451
   81MOL   C21025970   8.112   6.360   2.605  0.1957  0.5086 -0.3364
   81MOL   C21125971   8.170   6.221   2.590 -0.0992  0.0727  0.0321
   81MOL   C21225972   0.015   6.168   2.692  0.1417  0.5294 -0.7809
   81MOL   C21325973   0.070   6.035   2.680  0.0311 -0.3276  0.8157
   81MOL   C21425974   0.035   5.960   2.564  0.6438  0.1017 -0.4204
   81MOL   F21525975   0.090   5.835   2.560 -0.5243 -0.2022 -0.4872
   81MOL   C21625976   8.178   6.006   2.467 -0.3058  0.6755  0.0095
   81MOL   C21725977   8.136   6.140   2.478 -0.1592 -0.2481  0.0526
   81MOL   C21825978   8.003   6.360   2.710  0.1023  0.1284  0.2146
   81MOL   H21925979   8.073   6.394   2.509 -0.1126  0.0161 -0.3872
   81MOL   H22025980   0.047   6.223   2.779 -0.7822 -0.2395  0.0645
   81MOL   H22125981   0.137   5.999   2.756  0.7537 -0.4119  0.1407
   81MOL   H22225982   8.156   5.954   2.375  2.4387  0.8515 -0.7737
   81MOL   H22325983   8.069   6.179   2.403  0.6789  0.8289 -0.1404
   81MOL   H22425984   8.049   6.347   2.808  2.5058  0.5362 -0.8023
   81MOL   H22525985   7.968   6.463   2.703  0.0189  0.0885  0.0530
   81MOL   C22625986   7.898   6.251   2.692  0.1605  0.5280  0.0062
   81MOL   C22725987   7.806   6.238   2.813 -0.5985 -0.1583 -0.3525
   81MOL   C22825988   7.800   6.119   2.889  0.6669 -0.6875  0.1039
   81MOL   C22925989   7.717   6.107   2.999 -0.0963  0.4585 -0.5582
   81MOL   C23025990   7.650   6.219   3.050  0.3330 -0.7564  0.6853
   81MOL   F23125991   7.574   6.210   3.161 -0.1193  0.4728  0.2061
   81MOL   C23225992   7.660   6.335   2.980  0.2967  0.0429  0.4183
   81MOL   C23325993   7.731   6.347   2.857 -0.4027 -0.3652 -0.9147
   81MOL   C23425994   7.818   6.270   2.563 -0.1436  0.5398  0.2614
   81MOL   H23525995   7.948   6.155   2.688 -0.1660  0.4117 -1.3976
   81MOL   H23625996   7.852   6.030   2.859  0.2384 -1.6877  2.2286
   81MOL   H23725997   7.717   6.012   3.050 -2.5127  0.3455 -0.7177
   81MOL   H23825998   7.622   6.429   3.016 -1.0165 -0.9312  1.6231
   81MOL   H23925999   7.749   6.441   2.808  0.9277  1.5888  3.1547
   81MOL   H24026000   7.761   6.362   2.571 -0.3247  0.5667 -1.2201
   81MOL   H24126001   7.881   6.292   2.477 -0.5519 -2.2678 -0.8183
   81MOL   C24226002   7.718   6.151   2.531  0.2509  0.2141  0.7390
   81MOL   C24326003   7.617   6.192   2.428  0.0785  0.5656  0.6097
   81MOL   C24426004   7.660   6.239   2.301  0.5604 -0.0608  0.3486
   81MOL   C24526005   7.565   6.293   2.212 -0.1515 -1.2601  0.5767
   81MOL   C24626006   7.429   6.298   2.242  0.6195 -0.3991 -0.2627
   81MOL   F24726007   7.343   6.347   2.156  0.0294  0.2896 -0.1716
   81MOL   C24826008   7.388   6.249   2.365  0.4667  0.2454 -0.1336
   81MOL   C24926009   7.477   6.198   2.464 -0.7460  0.2885 -0.4403
   81MOL   C25026010   7.804   6.027   2.479 -0.0665 -0.7866  0.1598
   81MOL   H25126011   7.663   6.130   2.623 -1.2534  1.7447  0.2101
   81MOL   H25226012   7.767   6.239   2.282  0.6816  0.1172  0.9968
   81MOL   H25326013   7.603   6.326   2.116 -0.6585 -2.2762  0.0122
   81MOL   H25426014   7.281   6.242   2.380  0.1847  0.1102 -2.1616
   81MOL   H25526015   7.448   6.152   2.558 -0.0146  1.6799  0.4862
   81MOL   H25626016   7.876   6.063   2.405  0.4251 -3.3180 -0.6583
   81MOL   H25726017   7.858   5.984   2.563 -0.8603  0.2909  1.2265
   81MOL   C25826018   7.718   5.908   2.423  0.2676 -0.1449 -0.1797
   81MOL   C25926019   7.696   5.907   2.269 -0.3828  0.9732 -0.1044
   81MOL   C26026020   7.805   5.932   2.181  0.0223  0.4186  0.0059
   81MOL   C26126021   7.778   5.939   2.043 -0.6759  0.1276 -0.0230
   81MOL   C26226022   7.653   5.913   1.990 -0.4697  0.5729  0.1987
   81MOL   F26326023   7.644   5.919   1.856  0.1725 -0.3748 -0.5366
   81MOL   C26426024   7.545   5.887   2.075  0.7884 -0.1095  0.1156
   81MOL   C26526025   7.563   5.884   2.215 -0.0581 -0.2073  0.0216
   81MOL   C26626026   7.801   5.775   2.456  0.4187 -1.0460 -0.5069
   81MOL   H26726027   7.619   5.911   2.469 -0.9365  3.1436 -2.7724
   81MOL   H26826028   7.902   5.952   2.225  0.3229 -0.1251 -0.4050
   81MOL   H26926029   7.858   5.959   1.973  1.2506  0.7233  2.2849
   81MOL   H27026030   7.446   5.877   2.033  2.0082 -0.5815 -2.7333
   81MOL   H27126031   7.481   5.852   2.277 -0.7191 -1.4448 -1.4569
   81MOL   H27226032   7.772   5.708   2.376 -1.6084 -0.6336 -0.1388
   81MOL   H27326033   7.908   5.790   2.443  0.1502  0.8306 -0.7644
   81MOL   C27426034   7.764   5.711   2.591 -0.4012  0.0121  0.1900
   81MOL   C27526035   7.619   5.717   2.631 -0.2317  0.4818 -0.5750
   81MOL   C27626036   7.518   5.664   2.550  0.2009 -0.2034 -0.4997
   81MOL   C27726037   7.384   5.671   2.590 -0.4749 -0.3076 -0.1961
   81MOL   C27826038   7.348   5.725   2.718 -0.2625 -0.2728 -0.9354
   81MOL   F27926039   7.218   5.742   2.751  0.1522  0.1339 -0.0514
   81MOL   C28026040   7.451   5.777   2.800  0.0038 -0.0262 -0.3513
   81MOL   C28126041   7.587   5.772   2.756 -0.1949  0.5183  0.8142
   81MOL   C28226042   7.816   5.568   2.595 -0.4080  0.3123  0.0330
   81MOL   H28326043   7.810   5.764   2.674  0.2131 -0.8027  0.3709
   81MOL   H28426044   7.545   5.614   2.458  4.2877  0.7682  0.0618
   81MOL   H28526045   7.308   5.633   2.523  1.2471 -0.3573 -2.1694
   81MOL   H28626046   7.417   5.825   2.891  0.3191 -2.3554  1.0480
   81MOL   H28726047   7.662   5.815   2.821  2.5742 -0.9081 -1.3069
   81MOL   H28826048   7.782   5.522   2.688  1.0811  3.2235  2.1078
   81MOL   H28926049   7.766   5.508   2.519  0.0357 -2.6617  1.9828
   81MOL   C29026050   7.969   5.547   2.598  0.3226 -0.5169 -0.3607
   81MOL   C29126051   8.026   5.593   2.732 -0.5141  0.0637 -0.2275
   81MOL   C29226052   7.999   5.510   2.845  0.6637  0.2009 -0.2914
   81MOL   C29326053   8.055   5.544   2.968  0.3653  0.0650 -0.1592
   81MOL   C29426054   8.136   5.661   2.976 -0.6461  0.4514 -0.0194
   81MOL   F29526055   8.184   5.697   3.098 -0.3300  0.3444  0.6729
   81MOL   C29626056   8.166   5.736   2.863 -0.1193  0.0499  0.6114
   81MOL   C29726057   8.106   5.707   2.738  0.2015 -0.0612 -0.4273
   81MOL   C29826058   8.011   5.407   2.553 -0.1153  0.3288 -0.5052
   81MOL   H29926059   8.023   5.608   2.525  1.0562  0.2724  0.8230
   81MOL   H30026060   7.930   5.426   2.845  0.3859  0.3307  4.2724
   81MOL   H30126061   8.035   5.482   3.054  0.1960 -2.4357 -1.9405
   81MOL   H30226062   0.003   5.816   2.872  0.3971 -0.5386  1.8508
   81MOL   H30326063   8.121   5.776   2.656 -1.8685 -0.1305 -0.8899
   81MOL   H30426064   8.115   5.386   2.577  0.1359 -1.8862 -3.2299
   81MOL   H30526065   7.956   5.334   2.613  1.4347  0.9149  1.6482
   81MOL   C30626066   8.006   5.364   2.403 -0.0550 -0.6995  0.1947
   81MOL   C30726067   8.032   5.483   2.309 -0.2853 -0.2003 -0.3414
   81MOL   C30826068   8.159   5.534   2.290 -0.6275  0.2670  0.3732
   81MOL   C30926069   8.186   5.629   2.191 -0.6829 -0.3159  0.7356
   81MOL   C31026070   8.080   5.671   2.102 -0.4434 -0.7251  0.7040
   81MOL   F31126071   8.095   5.766   2.000  0.6470  0.2603 -0.2201
   81MOL   C31226072   7.956   5.615   2.118  0.8900  0.1014  0.0655
   81MOL   C31326073   7.928   5.519   2.220 -0.0906 -0.3486 -0.3538
   81MOL   C31426074   8.092   5.242   2.370 -0.8267  0.1859  0.0404
   81MOL   H31526075   7.905   5.330   2.380 -0.5549 -0.2508  1.6613
   81MOL   H31626076   0.009   5.518   2.356 -0.3404  1.2211  0.2455
   81MOL   H31726077   0.051   5.669   2.188 -0.9838  0.3302 -1.0030
   81MOL   H31826078   7.873   5.646   2.056  1.8533  2.8453  0.0870
   81MOL   H31926079   7.826   5.484   2.233 -1.0999  2.8184  0.5373
   81MOL   H32026080   8.079   5.161   2.442 -1.1722  0.4030  0.2250
   81MOL   H32126081   8.068   5.204   2.271 -0.3223  0.9443 -0.3785
   81MOL   H32226082   8.199   5.263   2.371 -0.7262 -0.3054 -0.6568
   82MOL     C126083   5.299   1.009   1.785 -0.2558  0.1555  0.3788
   82MOL     C226084   5.428   0.942   1.836 -0.2102 -0.0297  0.4394
   82MOL     C326085   5.473   0.964   1.967  0.4819 -0.3723  0.1475
   82MOL     C426086   5.597   0.920   2.017 -0.3929  0.2129  0.8191
   82MOL     C526087   5.676   0.840   1.930 -0.3794 -0.2640  0.3583
   82MOL     F626088   5.807   0.796   1.965 -0.0223 -0.0789  0.0540
   82MOL     C726089   5.632   0.812   1.801  0.1497 -0.0464 -0.8214
   82MOL     C826090   5.508   0.861   1.750  0.2090 -0.6509 -0.8048
   82MOL     C926091   5.335   1.137   1.704  0.1228 -0.2858  0.4322
   82MOL    H1026092   5.227   1.021   1.866 -2.1656  1.4172 -1.4813
   82MOL    H1126093   5.413   1.033   2.026  0.5445 -1.7326  1.8421
   82MOL    H1226094   5.630   0.953   2.114 -0.0841 -1.6199  1.3586
   82MOL    H1326095   5.699   0.758   1.737 -0.9892  0.1860 -2.2236
   82MOL    H1426096   5.469   0.828   1.655  0.2957 -0.5805 -0.8661
   82MOL    H1526097   5.394   1.202   1.768 -1.3515 -0.3997  1.9638
   82MOL    H1626098   5.391   1.124   1.612  0.9838 -1.8600  1.1586
   82MOL    H1726099   5.254   0.933   1.722 -2.8420  1.8504  0.1418
   82MOL    C1826100   5.207   1.204   1.645  0.7820  0.2050  0.7025
   82MOL    C1926101   5.227   1.352   1.614  0.5707  0.1550  0.7969
   82MOL    C2026102   5.141   1.451   1.661  0.6902  0.1169 -0.8012
   82MOL    C2126103   5.167   1.589   1.634  0.2254  0.0468 -0.0462
   82MOL    C2226104   5.288   1.624   1.567  0.1191 -0.7100  0.5500
   82MOL    F2326105   5.314   1.752   1.532 -0.1469  0.1524  0.3649
   82MOL    C2426106   5.366   1.524   1.520 -0.0482 -0.4362 -0.4343
   82MOL    C2526107   5.337   1.385   1.537 -0.3551 -0.0000 -0.0791
   82MOL    C2626108   5.134   1.142   1.519  0.1099 -0.0130 -0.0610
   82MOL    H2726109   5.134   1.204   1.726 -1.6707 -0.0628 -1.4446
   82MOL    H2826110   5.054   1.416   1.715  1.2671  1.4322  1.0265
   82MOL    H2926111   5.110   1.677   1.661  0.1185  0.9015 -2.9046
   82MOL    H3026112   5.458   1.560   1.475 -0.4408 -0.6387 -1.4133
   82MOL    H3126113   5.397   1.304   1.498 -0.5781 -0.0344 -0.3501
   82MOL    H3226114   5.089   1.217   1.455 -0.2022 -1.0205 -1.0354
   82MOL    H3326115   5.210   1.094   1.457 -1.6500 -0.7923 -1.6685
   82MOL    C3426116   5.012   1.045   1.548 -0.4957 -0.6624  0.2757
   82MOL    C3526117   4.917   1.097   1.662  0.2334 -0.3700  0.1664
   82MOL    C3626118   4.865   1.233   1.668  0.8601 -0.1825  0.1208
   82MOL    C3726119   4.768   1.265   1.768  0.1092 -0.3188  0.2312
   82MOL    C3826120   4.735   1.175   1.872  0.4203  0.3497  0.1691
   82MOL    F3926121   4.644   1.208   1.965  0.0586  0.4350 -0.2582
   82MOL    C4026122   4.798   1.046   1.867  0.5871 -0.4553 -0.0438
   82MOL    C4126123   4.886   1.008   1.768 -0.5196 -1.0162 -0.2028
   82MOL    C4226124   4.932   1.014   1.417 -0.5372  0.0154  0.3721
   82MOL    H4326125   5.054   0.953   1.587  0.6299 -0.3024 -0.0861
   82MOL    H4426126   4.901   1.306   1.597  1.0354  0.1488  0.5502
   82MOL    H4526127   4.716   1.360   1.768 -0.7059 -0.7671 -0.5341
   82MOL    H4626128   4.785   0.988   1.956 -0.1574  0.4668  0.4650
   82MOL    H4726129   4.919   0.906   1.782 -2.8618 -1.7791  0.0637
   82MOL    H4826130   4.886   1.100   1.369 -0.7904  0.9316  2.2173
   82MOL    H4926131   5.014   0.998   1.347 -1.5209  0.3374 -0.8576
   82MOL    C5026132   4.830   0.896   1.417 -0.1989  0.0904 -0.2025
   82MOL    C5126133   4.735   0.920   1.299  0.1609 -0.0625 -0.2593
   82MOL    C5226134   4.595   0.947   1.317  0.2233  0.0728 -0.4495
   82MOL    C5326135   4.518   0.968   1.200  1.2453 -0.0399 -0.2654
   82MOL    C5426136   4.575   0.965   1.071  0.2829  0.7969 -0.3048
   82MOL    F5526137   4.496   0.986   0.959 -0.2389 -0.1996 -0.4344
   82MOL    C5626138   4.714   0.946   1.056 -0.0977  0.0107 -0.3994
   82MOL    C5726139   4.789   0.927   1.172  0.5064 -0.5639 -0.6882
   82MOL    C5826140   4.881   0.757   1.406  0.4274  0.4401 -0.2071
   82MOL    H5926141   4.779   0.897   1.513 -1.4589 -1.3337 -0.8376
   82MOL    H6026142   4.568   0.963   1.420 -1.0942 -2.0526 -0.4512
   82MOL    H6126143   4.414   0.997   1.205  1.8983  2.3062  0.7977
   82MOL    H6226144   4.752   0.958   0.956 -1.3174  3.1600 -0.5508
   82MOL    H6326145   4.897   0.917   1.166  0.7039  1.0163  0.0550
   82MOL    H6426146   4.926   0.744   1.308  2.1851 -0.8369  0.7344
   82MOL    H6526147   4.961   0.747   1.479  2.2112  1.0054 -2.0433
   82MOL    C6626148   4.779   0.648   1.450 -0.1158 -0.3518  0.2240
   82MOL    C6726149   4.817   0.515   1.392  0.2486 -0.2308  0.0154
   82MOL    C6826150   4.922   0.455   1.460 -0.5331  0.5196  0.3843
   82MOL    C6926151   4.975   0.328   1.418 -0.1983  0.6264 -0.1204
   82MOL    C7026152   4.925   0.269   1.301 -0.1393 -0.3391 -0.1374
   82MOL    F7126153   4.984   0.160   1.247 -0.1015 -0.0103  0.0874
   82MOL    C7226154   4.816   0.334   1.232  0.5477 -0.3409 -0.4006
   82MOL    C7326155   4.762   0.458   1.277 -0.4954  0.1998 -0.2549
   82MOL    C7426156   4.744   0.647   1.597  0.0460 -0.4128  0.0051
   82MOL    H7526157   4.686   0.667   1.397  0.6785  0.1916 -0.9989
   82MOL    H7626158   4.954   0.499   1.553  0.3688 -1.7112  1.1715
   82MOL    H7726159   5.054   0.286   1.477 -1.0187  0.7626  1.1004
   82MOL    H7826160   4.766   0.289   1.147  0.1186 -0.5538 -0.0337
   82MOL    H7926161   4.681   0.513   1.231 -0.0778  0.9571 -0.0856
   82MOL    H8026162   4.840   0.660   1.647  0.5765 -1.1062 -0.8238
   82MOL    H8126163   4.677   0.732   1.611  0.1471 -0.1807 -0.8940
   82MOL    C8226164   4.658   0.527   1.651 -0.4192  0.1353  0.1656
   82MOL    C8326165   4.666   0.520   1.799  0.3766  0.1389 -0.0835
   82MOL    C8426166   4.678   0.629   1.885 -0.5852 -0.1594 -0.8859
   82MOL    C8526167   4.704   0.610   2.024  0.2136  0.7334  0.0043
   82MOL    C8626168   4.712   0.481   2.079  0.2955  0.4319  0.2626
   82MOL    F8726169   4.721   0.465   2.213 -0.2206 -0.4218  0.3337
   82MOL    C8826170   4.694   0.371   1.997  0.3260  0.7771  0.3574
   82MOL    C8926171   4.680   0.392   1.859  0.3807 -0.4596 -0.2129
   82MOL    C9026172   4.514   0.514   1.604 -0.2306  0.6228 -0.1372
   82MOL    H9126173   4.709   0.439   1.613  0.9392  0.7655  0.5326
   82MOL    H9226174   4.665   0.731   1.851  1.5566  1.6905  3.4343
   82MOL    H9326175   4.697   0.696   2.090 -1.7147  0.3447  0.3333
   82MOL    H9426176   4.697   0.278   2.052 -0.1930  1.1350  1.0032
   82MOL    H9526177   4.671   0.305   1.796  2.7312 -1.8544  1.2999
   82MOL    H9626178   4.515   0.521   1.495 -0.3604 -1.2520 -0.2809
   82MOL    H9726179   4.495   0.406   1.608  1.6793  0.3250  1.5389
   82MOL    C9826180   4.401   0.596   1.681  0.7253 -0.1342  0.2150
   82MOL    C9926181   4.325   0.673   1.578 -0.1504  0.2037 -0.3960
   82MOL   C10026182   4.344   0.813   1.561 -0.6617 -0.5181  0.8363
   82MOL   C10126183   4.262   0.883   1.473 -0.3189  0.5790 -0.3259
   82MOL   C10226184   4.170   0.815   1.390  0.1885  0.1198 -0.6303
   82MOL   F10326185   4.085   0.883   1.308  0.2688  0.0626  0.4460
   82MOL   C10426186   4.163   0.674   1.395 -0.1800 -1.3687 -0.3641
   82MOL   C10526187   4.240   0.604   1.490  0.2360  0.1384 -0.1353
   82MOL   C10626188   4.308   0.518   1.773  0.8883  0.0591  0.3747
   82MOL   H10726189   4.455   0.660   1.751  0.0611 -0.1802  0.7783
   82MOL   H10826190   4.402   0.863   1.637 -3.6452  1.1588  2.1302
   82MOL   H10926191   4.279   0.989   1.478  0.5810  0.3831  1.0508
   82MOL   H11026192   4.094   0.629   1.325 -0.9286  0.1040 -0.5853
   82MOL   H11126193   4.228   0.496   1.494 -2.0059  0.3926  0.6335
   82MOL   H11226194   4.247   0.449   1.715  1.7539  0.7184 -1.3667
   82MOL   H11326195   4.373   0.445   1.821 -0.9152 -2.1141 -0.4465
   82MOL   C11426196   4.222   0.594   1.881 -0.0553  0.3156 -0.4371
   82MOL   C11526197   4.189   0.491   1.991  0.3747  0.5709 -0.4177
   82MOL   C11626198   4.293   0.435   2.071 -0.7193 -0.4772  0.6201
   82MOL   C11726199   4.259   0.346   2.172  0.0497 -0.3926  0.3717
   82MOL   C11826200   4.127   0.301   2.188 -0.6534 -0.5621  1.1718
   82MOL   F11926201   4.097   0.210   2.281  0.3554  0.5568 -0.0102
   82MOL   C12026202   4.024   0.350   2.101 -0.5559 -0.0469 -0.4518
   82MOL   C12126203   4.053   0.450   2.003  0.4847  0.4763  0.1210
   82MOL   C12226204   4.285   0.725   1.934  0.2320  0.2418 -0.2861
   82MOL   H12326205   4.129   0.622   1.832  0.5792  2.2652 -0.5418
   82MOL   H12426206   4.395   0.460   2.046 -1.4823  1.3181 -0.8729
   82MOL   H12526207   4.334   0.307   2.239  0.5119 -1.1514 -0.5799
   82MOL   H12626208   3.926   0.312   2.123  0.9027 -2.2638  2.5646
   82MOL   H12726209   3.980   0.481   1.929  0.7926 -0.8134 -0.7257
   82MOL   H12826210   4.387   0.701   1.962 -0.2558 -2.3243 -0.6230
   82MOL   H12926211   4.294   0.793   1.849  2.2255  0.9946  0.4913
   82MOL   C13026212   4.201   0.798   2.044 -0.6034  0.1236  0.7833
   82MOL   C13126213   4.290   0.893   2.124 -0.0463 -0.0441  0.2624
   82MOL   C13226214   4.399   0.956   2.063 -0.3896 -0.8859  0.5137
   82MOL   C13326215   4.486   1.036   2.140 -0.0240  0.1330  1.0808
   82MOL   C13426216   4.454   1.069   2.273  0.3119 -0.3744  0.1042
   82MOL   F13526217   4.536   1.144   2.350 -0.5318 -0.4391  0.5193
   82MOL   C13626218   4.340   1.014   2.329  0.4997 -0.0416 -0.1052
   82MOL   C13726219   4.260   0.934   2.254 -0.0177  0.2019 -0.5569
   82MOL   C13826220   4.068   0.862   1.985  0.4694  0.0907 -0.5266
   82MOL   H13926221   4.184   0.721   2.119  2.0564 -1.4311 -0.1014
   82MOL   H14026222   4.417   0.929   1.960  0.9984  1.9148 -0.0087
   82MOL   H14126223   4.586   1.064   2.109 -0.2271  1.8374  1.9013
   82MOL   H14226224   4.322   1.023   2.435  0.1515 -2.3323  0.0537
   82MOL   H14326225   4.172   0.897   2.304 -1.2112  1.4297 -1.6998
   82MOL   H14426226   4.100   0.959   1.945 -1.3379  1.9502  2.2925
   82MOL   H14526227   4.025   0.806   1.902  0.2286  0.1406 -0.4363
   82MOL   C14626228   3.952   0.893   2.083  0.5665  0.3646  0.1716
   82MOL   C14726229   3.849   0.973   2.004  0.0036  0.3778  0.1347
   82MOL   C14826230   3.846   1.116   2.013  0.1663 -0.3902  0.4124
   82MOL   C14926231   3.762   1.190   1.924 -0.3831 -0.0074  0.3779
   82MOL   C15026232   3.651   1.123   1.858 -0.4626  0.1301 -0.3178
   82MOL   F15126233   3.552   1.200   1.807 -0.4409 -0.3489 -0.0767
   82MOL   C15226234   3.650   0.982   1.861 -0.2229  0.1982 -0.3855
   82MOL   C15326235   3.746   0.912   1.931 -0.3813 -0.6827 -0.5201
   82MOL   C15426236   3.898   0.753   2.134 -0.4916 -0.3147  0.1918
   82MOL   H15526237   3.982   0.957   2.166 -1.1114  1.1038  0.2264
   82MOL   H15626238   3.925   1.167   2.067  0.3197  0.3791 -0.5303
   82MOL   H15726239   3.774   1.297   1.926  2.5043 -0.3083  1.4810
   82MOL   H15826240   3.575   0.929   1.805 -1.0158  1.4057 -0.4911
   82MOL   H15926241   3.733   0.805   1.926  0.6342 -0.7550 -2.3419
   82MOL   H16026242   3.848   0.696   2.057  2.2306 -1.4330 -0.7992
   82MOL   H16126243   3.978   0.679   2.137  0.6227  0.8185 -1.1009
   82MOL   C16226244   3.808   0.752   2.265  0.1149 -0.6508  0.5172
   82MOL   C16326245   3.720   0.879   2.267  0.3661 -0.3627  0.8335
   82MOL   C16426246   3.762   0.997   2.333 -0.1372  0.4230 -0.1032
   82MOL   C16526247   3.678   1.110   2.348  0.7171 -0.1207  0.1695
   82MOL   C16626248   3.546   1.105   2.290 -0.3993  0.1759  0.4707
   82MOL   F16726249   3.459   1.209   2.306  0.4359  0.2325 -0.3662
   82MOL   C16826250   3.503   0.989   2.225 -0.1899 -0.3133  0.5402
   82MOL   C16926251   3.590   0.877   2.216 -0.3645  0.6140  0.0762
   82MOL   C17026252   3.724   0.619   2.273  0.1773 -0.2421  0.1013
   82MOL   H17126253   3.887   0.752   2.340 -0.9516 -0.4249  1.6509
   82MOL   H17226254   3.857   1.012   2.382 -0.6869 -0.6064  1.3233
   82MOL   H17326255   3.709   1.202   2.394 -1.4231  1.1710 -0.9244
   82MOL   H17426256   3.398   0.992   2.198  0.1304  3.2591 -0.5698
   82MOL   H17526257   3.540   0.799   2.161 -0.5390  1.4211 -0.9252
   82MOL   H17626258   3.662   0.611   2.183  0.8090  0.4199 -0.4010
   82MOL   H17726259   3.802   0.543   2.268  2.0874  1.4621  2.6976
   82MOL   C17826260   3.653   0.581   2.400 -0.1938 -0.1047  0.1534
   82MOL   C17926261   3.604   0.435   2.382 -0.2630 -0.5362 -0.0063
   82MOL   C18026262   3.471   0.418   2.351  0.4936  0.4274 -0.5882
   82MOL   C18126263   3.416   0.287   2.329 -0.1678 -0.1525 -0.4994
   82MOL   C18226264   3.494   0.176   2.348  0.4899 -0.2013 -0.1460
   82MOL   F18326265   3.452   0.052   2.319 -0.2279 -0.1468 -0.1321
   82MOL   C18426266   3.630   0.196   2.380 -0.0488  0.2403  0.1582
   82MOL   C18526267   3.689   0.324   2.387  0.7122  0.6406 -0.7332
   82MOL   C18626268   3.739   0.582   2.523  0.8695 -0.0950  1.1331
   82MOL   H18726269   3.579   0.660   2.414 -0.1334 -0.2134  1.1554
   82MOL   H18826270   3.404   0.502   2.339 -2.2457 -1.8663 -1.7782
   82MOL   H18926271   3.320   0.278   2.280  1.0477 -0.5416 -2.8530
   82MOL   H19026272   3.693   0.110   2.391 -0.0968  0.0200 -1.1379
   82MOL   H19126273   3.795   0.329   2.407  0.6964  0.9247 -0.7163
   82MOL   H19226274   3.695   0.511   2.594 -2.1810  0.1410 -0.4534
   82MOL   H19326275   3.834   0.531   2.508  0.4403 -0.4208 -0.5039
   82MOL   C19426276   3.759   0.720   2.597  0.5416  0.6455 -0.0419
   82MOL   C19526277   3.630   0.774   2.660 -0.2088  0.0114 -0.1682
   82MOL   C19626278   3.563   0.692   2.756  0.2398 -0.6082  0.0399
   82MOL   C19726279   3.447   0.745   2.820  0.7313 -0.3228 -0.0062
   82MOL   C19826280   3.408   0.876   2.795 -0.0366 -0.8289  0.4082
   82MOL   F19926281   3.309   0.925   2.875  0.4305 -0.2637 -0.0966
   82MOL   C20026282   3.474   0.952   2.705  0.5993 -0.6453  0.1574
   82MOL   C20126283   3.581   0.902   2.630  0.3137 -0.2216 -0.2281
   82MOL   C20226284   3.871   0.713   2.704  0.1487  0.0322  0.3142
   82MOL   H20326285   3.787   0.794   2.522 -1.3825 -1.4740 -2.9331
   82MOL   H20426286   3.593   0.596   2.796 -2.5849 -1.1553  0.9068
   82MOL   H20526287   3.397   0.686   2.896 -0.7956  0.1820 -0.6024
   82MOL   H20626288   3.452   1.057   2.693 -0.5559 -0.8761  0.1780
   82MOL   H20726289   3.637   0.955   2.554 -0.4620 -1.0214 -1.3921
   82MOL   H20826290   3.849   0.635   2.776  0.2663 -0.1825  0.1185
   82MOL   H20926291   3.960   0.674   2.656 -0.1953  0.1217 -0.4072
   82MOL   C21026292   3.900   0.847   2.776 -0.3327 -0.3712 -0.0333
   82MOL   C21126293   3.981   0.818   2.902 -0.2798  0.2303 -0.2736
   82MOL   C21226294   4.112   0.774   2.895  0.3089 -0.2049  0.1757
   82MOL   C21326295   4.189   0.745   3.011 -0.2003  0.0812 -0.1824
   82MOL   C21426296   4.132   0.762   3.141  0.7973  0.8793  0.0174
   82MOL   F21526297   4.202   0.741   3.252 -0.1464 -0.0578 -0.5056
   82MOL   C21626298   4.000   0.810   3.144  0.7844  1.0415  0.3944
   82MOL   C21726299   3.925   0.841   3.028  0.1628  0.5713  0.0216
   82MOL   C21826300   3.965   0.955   2.684  0.4237 -1.1575 -0.4774
   82MOL   H21926301   3.806   0.888   2.811  0.1627  0.1388  0.7344
   82MOL   H22026302   4.161   0.757   2.800 -2.5182 -0.1103 -1.3597
   82MOL   H22126303   4.294   0.724   2.995 -0.5079 -0.0432 -2.1977
   82MOL   H22226304   3.954   0.822   3.241  0.7205 -0.3902  0.5522
   82MOL   H22326305   3.826   0.883   3.031 -1.2383 -2.6886  1.9518
   82MOL   H22426306   4.051   0.918   2.629  2.5974 -1.2786  2.8191
   82MOL   H22526307   3.884   0.987   2.618 -0.0564  0.1219  0.7042
   82MOL   C22626308   4.010   1.091   2.750 -0.0094 -0.3842  0.2014
   82MOL   C22726309   4.077   1.175   2.639 -0.6865  0.1291  0.2679
   82MOL   C22826310   4.001   1.205   2.516  0.1933 -0.3008 -0.0772
   82MOL   C22926311   4.060   1.273   2.410 -0.4195 -0.2595  0.0721
   82MOL   C23026312   4.197   1.292   2.428 -0.4369  0.1558 -0.2943
   82MOL   F23126313   4.263   1.357   2.323  0.4760  0.2630  0.2341
   82MOL   C23226314   4.275   1.267   2.546  0.8396 -0.4104 -0.0552
   82MOL   C23326315   4.211   1.214   2.657 -0.9077 -0.1096  0.5577
   82MOL   C23426316   3.886   1.160   2.819  1.0507  0.6073 -0.0771
   82MOL   H23526317   4.081   1.078   2.832 -0.6962  1.9505  1.1977
   82MOL   H23626318   3.898   1.172   2.521 -0.4490  1.6505  0.0382
   82MOL   H23726319   4.012   1.310   2.321 -2.9753  1.1844  1.9819
   82MOL   H23826320   4.380   1.290   2.538  0.5519  2.1331  2.7641
   82MOL   H23926321   4.259   1.189   2.751 -1.1797  1.3423  1.0886
   82MOL   H24026322   3.793   1.166   2.762 -0.3262 -2.7662  1.6816
   82MOL   H24126323   3.852   1.099   2.902  1.1842 -0.1391 -0.5679
   82MOL   C24226324   3.907   1.310   2.863 -0.3177  0.1439 -0.6250
   82MOL   C24326325   3.871   1.411   2.751  0.1822  0.5035  0.1303
   82MOL   C24426326   3.737   1.439   2.710 -0.1386  0.2547  0.7457
   82MOL   C24526327   3.714   1.525   2.597 -0.5039  0.7791  0.0173
   82MOL   C24626328   3.819   1.591   2.529 -0.7650  0.4317  0.0393
   82MOL   F24726329   3.798   1.665   2.416  0.2533 -0.0107 -0.6920
   82MOL   C24826330   3.950   1.577   2.583  0.0525  0.0644  0.9205
   82MOL   C24926331   3.974   1.494   2.698  0.1329 -0.2746 -0.1681
   82MOL   C25026332   3.834   1.356   2.995  0.2837  0.4736  1.0043
   82MOL   H25126333   4.014   1.327   2.874 -0.8330  3.0307  0.3443
   82MOL   H25226334   3.656   1.386   2.758  0.4224 -0.4355  0.9445
   82MOL   H25326335   3.616   1.551   2.561 -0.5351  0.6755  0.0261
   82MOL   H25426336   4.028   1.629   2.530 -0.3122 -1.4720 -1.1876
   82MOL   H25526337   4.075   1.467   2.724  0.4822  1.8159  0.7572
   82MOL   H25626338   3.843   1.463   3.008  0.2264  0.4663  1.1062
   82MOL   H25726339   3.727   1.341   2.981  0.5045 -0.1130 -0.1536
   82MOL   C25826340   3.879   1.297   3.124  0.0476  0.2104 -0.4693
   82MOL   C25926341   4.025   1.293   3.152 -0.3202 -0.2061  0.2984
   82MOL   C26026342   4.084   1.165   3.139  0.2742  0.1693 -0.7471
   82MOL   C26126343   4.219   1.158   3.168  0.8536 -0.0536 -0.1153
   82MOL   C26226344   4.289   1.270   3.217  0.6514  0.7120  0.6577
   82MOL   F26326345   4.415   1.252   3.262 -0.0934  0.3139 -0.7478
   82MOL   C26426346   4.231   1.394   3.232  0.4852  0.4931  0.1636
   82MOL   C26526347   4.091   1.403   3.201 -0.0645  0.3869 -1.0589
   82MOL   C26626348   3.799   1.342   3.248  0.0701  0.1684 -0.4605
   82MOL   H26726349   3.847   1.193   3.116  0.4429  0.1619 -1.6647
   82MOL   H26826350   4.032   1.073   3.118 -1.7107  1.9239 -3.8673
   82MOL   H26926351   4.268   1.063   3.153  1.2797 -0.4520  3.2557
   82MOL   H27026352   4.294   1.471   3.274  1.9274 -2.0578  2.8645
   82MOL   H27126353   4.047   1.499   3.223  0.9135  1.2074 -2.6084
   82MOL   H27226354   3.841   1.296   3.337  0.2319 -0.6661 -0.9591
   82MOL   H27326355   3.819   1.449   3.257  3.6955 -0.2706 -2.3166
   82MOL   C27426356   3.647   1.304   3.244  0.0683 -0.2090 -0.0747
   82MOL   C27526357   3.631   1.152   3.225  0.3489  0.5282  0.0602
   82MOL   C27626358   3.592   1.106   3.097  0.5658  0.0051 -0.4805
   82MOL   C27726359   3.588   0.962   3.074 -0.7045  0.3799 -0.4167
   82MOL   C27826360   3.625   0.869   3.179  0.3758  0.6152 -0.1844
   82MOL   F27926361   3.646   0.728   3.161  0.0409 -0.1260  0.0096
   82MOL   C28026362   3.674   0.925   3.296  0.0977  0.2865 -0.0986
   82MOL   C28126363   3.682   1.062   3.322 -0.5623 -0.6232  0.5622
   82MOL   C28226364   3.577   1.353   3.377 -0.9950 -0.6254 -0.2213
   82MOL   H28326365   3.604   1.356   3.158 -0.3150 -0.8597 -0.2777
   82MOL   H28426366   3.570   1.171   3.014  0.1351  0.2677 -0.1618
   82MOL   H28526367   3.562   0.918   2.979  0.4072 -1.9026  0.2922
   82MOL   H28626368   3.723   0.861   3.367  2.0926  3.4711  1.5241
   82MOL   H28726369   3.723   1.104   3.412  0.5975 -0.2702 -0.1254
   82MOL   H28826370   3.476   1.311   3.377 -1.5326  0.6215 -1.2387
   82MOL   H28926371   3.617   1.297   3.461 -1.5919  1.1723  1.2784
   82MOL   C29026372   3.568   1.508   3.407 -0.5872  0.3506 -0.6673
   82MOL   C29126373   3.510   1.581   3.290  0.3345 -0.5884 -1.1778
   82MOL   C29226374   3.585   1.652   3.191  0.8500  0.3911 -0.7320
   82MOL   C29326375   3.532   1.703   3.077 -0.5025  0.1969  0.4959
   82MOL   C29426376   3.392   1.687   3.064  0.4703 -0.0612  0.0220
   82MOL   F29526377   3.332   1.745   2.958 -0.8435  0.2741 -0.5072
   82MOL   C29626378   3.312   1.621   3.157  0.0592  0.2142  0.0512
   82MOL   C29726379   3.371   1.564   3.266  0.1864 -0.1086  0.4206
   82MOL   C29826380   3.488   1.533   3.533 -0.3140 -0.1379  0.2140
   82MOL   H29926381   3.670   1.545   3.415 -0.5507  0.2930 -0.8636
   82MOL   H30026382   3.693   1.647   3.200  0.7105  0.7285  1.4269
   82MOL   H30126383   3.575   1.759   2.995  0.5310 -0.7956  0.3544
   82MOL   H30226384   3.205   1.624   3.148  0.0673  0.8804  0.1750
   82MOL   H30326385   3.310   1.514   3.340 -2.1207  1.3936 -0.3984
   82MOL   H30426386   3.435   1.626   3.515  1.6303  0.3730 -3.3745
   82MOL   H30526387   3.420   1.450   3.555 -2.1615  1.7815  1.9586
   82MOL   C30626388   3.565   1.565   3.669 -0.4556 -0.1584 -0.2763
   82MOL   C30726389   3.459   1.596   3.775 -0.1470  0.4156  0.5748
   82MOL   C30826390   3.426   1.728   3.802  0.0207 -0.7196  0.3762
   82MOL   C30926391   3.339   1.760   3.904  0.7356  0.7894  0.3608
   82MOL   C31026392   3.275   1.660   3.980 -0.2164 -0.0498 -0.5026
   82MOL   F31126393   3.191   1.693   4.078  0.3239 -0.1803 -0.0864
   82MOL   C31226394   3.306   1.525   3.952 -0.1347 -0.5795  0.5034
   82MOL   C31326395   3.396   1.494   3.854 -0.4498  0.3245 -0.2166
   82MOL   C31426396   3.657   1.449   3.710  0.0022  0.6016  0.0284
   82MOL   H31526397   3.628   1.654   3.659  0.9694 -0.9608  1.2608
   82MOL   H31626398   3.471   1.814   3.754  0.1462 -0.2341  1.3475
   82MOL   H31726399   3.331   1.865   3.927  0.7011  0.8569  0.0441
   82MOL   H31826400   3.260   1.451   4.016  0.7789 -0.3725  1.4035
   82MOL   H31926401   3.442   1.396   3.857  1.3815  1.1923  1.0416
   82MOL   H32026402   3.696   1.457   3.811  1.7689 -4.0055 -0.1632
   82MOL   H32126403   3.606   1.353   3.723  0.7950  0.1623 -0.0630
   82MOL   H32226404   3.745   1.422   3.652 -0.2296  0.7425 -0.3951
   83MOL     C126405   1.994   8.012   3.164  0.3702  1.1533 -0.3225
   83MOL     C226406   2.120   8.089   3.185  0.2176  0.0142 -0.1359
   83MOL     C326407   2.236   8.033   3.132  0.1984  1.0737  0.9592
   83MOL     C426408   2.351   8.106   3.120 -0.1287  0.2824 -0.1129
   83MOL     C526409   2.352   0.010   3.166 -0.7720  0.2410 -0.3118
   83MOL     F626410   2.468   0.088   3.154 -0.0721 -0.0135  0.0278
   83MOL     C726411   2.242   0.065   3.231  0.2910 -0.2455 -0.3494
   83MOL     C826412   2.121   8.222   3.238  0.5205 -0.3469  0.8707
   83MOL     C926413   1.877   8.080   3.081 -0.1349  0.2841 -0.5674
   83MOL    H1026414   1.970   7.990   3.268  0.0634  0.0420 -0.6218
   83MOL    H1126415   2.242   7.933   3.092  0.8303  1.4367  0.1388
   83MOL    H1226416   2.429   8.045   3.077 -1.2301 -1.8736  0.8514
   83MOL    H1326417   2.242   0.168   3.265  1.1289  0.0633 -1.2795
   83MOL    H1426418   2.033   0.039   3.274  0.4896 -1.5466  2.5796
   83MOL    H1526419   1.820   8.150   3.142 -1.9664 -1.2419 -0.5249
   83MOL    H1626420   1.913   8.134   2.993 -1.2573  2.6255  0.3481
   83MOL    H1726421   2.033   7.923   3.114  0.9360  0.4554  1.3259
   83MOL    C1826422   1.793   7.976   3.005 -0.3517 -0.2512 -0.3495
   83MOL    C1926423   1.722   7.869   3.105  0.4637 -1.2054 -0.1750
   83MOL    C2026424   1.674   7.902   3.234  0.1427  0.3247  0.6805
   83MOL    C2126425   1.622   7.790   3.310  0.7001 -0.3948 -0.1180
   83MOL    C2226426   1.609   7.663   3.255  0.3262  0.6327  0.2747
   83MOL    F2326427   1.560   7.562   3.327 -0.2191 -0.7123 -0.5916
   83MOL    C2426428   1.652   7.642   3.124 -1.5651  0.1092 -0.2727
   83MOL    C2526429   1.700   7.747   3.048  0.6057  0.8683  0.3901
   83MOL    C2626430   1.698   8.035   2.901 -0.2646 -0.2464 -1.0823
   83MOL    H2726431   1.868   7.915   2.953 -0.0297 -0.3087  0.1714
   83MOL    H2826432   1.700   8.002   3.266 -1.5518  0.9602  0.1149
   83MOL    H2926433   1.594   7.809   3.413  0.7540 -2.6966  0.3653
   83MOL    H3026434   1.648   7.544   3.079  1.3461  0.1835 -0.7952
   83MOL    H3126435   1.740   7.740   2.948 -0.7103  1.2740 -0.1835
   83MOL    H3226436   1.742   8.122   2.853  2.7029 -2.3125 -2.3166
   83MOL    H3326437   1.692   7.956   2.825  1.7062 -1.5533  0.0657
   83MOL    C3426438   1.551   8.077   2.944 -0.1142  0.0811 -0.0574
   83MOL    C3526439   1.557   8.209   3.023 -0.0083  0.1915  0.2693
   83MOL    C3626440   1.565   0.102   2.953  0.7221 -0.3359  0.1322
   83MOL    C3726441   1.555   0.223   3.022  0.0198 -0.1221 -0.7104
   83MOL    C3826442   1.550   0.211   3.164 -0.3813 -0.4848 -0.1266
   83MOL    F3926443   1.548   0.324   3.239  0.3798 -0.3469 -0.0878
   83MOL    C4026444   1.539   0.085   3.230  0.0487  0.5857 -0.1249
   83MOL    C4126445   1.536   8.199   3.163  0.2898 -0.0227  0.3234
   83MOL    C4226446   1.441   8.089   2.836  0.2672 -0.0135 -0.0691
   83MOL    H4326447   1.512   8.000   3.010  2.4627 -0.3353  1.0424
   83MOL    H4426448   1.582   0.097   2.847  0.9066 -1.5397  0.2099
   83MOL    H4526449   1.565   0.325   2.988  3.5884 -1.4859 -4.2376
   83MOL    H4626450   1.518   0.086   3.336  2.2862 -2.0021  0.4092
   83MOL    H4726451   1.501   8.106   3.206 -0.1321 -0.3539 -0.7254
   83MOL    H4826452   1.361   8.154   2.873 -0.1516 -1.5263  1.7148
   83MOL    H4926453   1.489   8.145   2.755 -1.3389 -1.6171 -2.1783
   83MOL    C5026454   1.382   7.963   2.774  0.2030  0.3153  0.5712
   83MOL    C5126455   1.325   7.865   2.875 -0.5195  0.1661  0.4547
   83MOL    C5226456   1.372   7.735   2.890  0.4124 -0.5694 -0.4012
   83MOL    C5326457   1.337   7.653   3.001  0.1673 -0.0631  0.8314
   83MOL    C5426458   1.246   7.705   3.094 -0.2634 -0.6487 -0.5649
   83MOL    F5526459   1.209   7.625   3.195 -0.1985  0.6241 -0.2774
   83MOL    C5626460   1.202   7.841   3.081  0.5722 -0.5125  0.0216
   83MOL    C5726461   1.235   7.919   2.972  0.0117  0.2205  0.7431
   83MOL    C5826462   1.277   7.973   2.650  0.0730  0.1743 -0.2826
   83MOL    H5926463   1.457   7.901   2.726  0.3783  0.1357  1.0688
   83MOL    H6026464   1.437   7.705   2.810  1.7543  0.8748  0.1041
   83MOL    H6126465   1.383   7.556   3.014 -0.5119 -0.5158 -0.0701
   83MOL    H6226466   1.127   7.892   3.140  0.1922  1.0537 -1.7954
   83MOL    H6326467   1.185   8.014   2.960  0.1727 -0.2134 -4.4374
   83MOL    H6426468   1.212   7.886   2.661 -2.0578  1.5843 -1.3292
   83MOL    H6526469   1.207   8.053   2.676 -2.2278 -1.5566 -0.9419
   83MOL    C6626470   1.331   8.009   2.510 -0.0645 -0.0404  0.0070
   83MOL    C6726471   1.394   7.883   2.443  0.5517 -0.3457 -0.3665
   83MOL    C6826472   1.531   7.873   2.407  0.7800  0.1331  0.2696
   83MOL    C6926473   1.582   7.758   2.344  1.0385  0.6205 -0.0535
   83MOL    C7026474   1.498   7.646   2.347  0.1008  0.5292  0.0284
   83MOL    F7126475   1.550   7.528   2.306  0.5165  0.0507  0.2478
   83MOL    C7226476   1.358   7.649   2.379 -0.6326 -0.5040 -0.6457
   83MOL    C7326477   1.303   7.772   2.422 -0.3295 -0.2360 -0.9512
   83MOL    C7426478   1.216   8.062   2.418  0.4964  0.1313  0.3379
   83MOL    H7526479   1.417   8.075   2.514 -0.4550  0.5198 -0.5761
   83MOL    H7626480   1.590   7.961   2.425 -0.2364  0.5810  1.5293
   83MOL    H7726481   1.686   7.746   2.320  0.6640 -3.2084 -0.1412
   83MOL    H7826482   1.303   7.557   2.373 -1.7979  0.1839 -0.6581
   83MOL    H7926483   1.199   7.775   2.451 -0.1291  3.2081 -0.2660
   83MOL    H8026484   1.245   8.047   2.314  0.2483  3.4973 -0.2854
   83MOL    H8126485   1.134   7.990   2.417  0.4883  0.1084  1.4457
   83MOL    C8226486   1.178   8.218   2.426 -0.9873  0.6042 -0.3932
   83MOL    C8326487   1.177   0.050   2.286  0.2696  0.1362  0.0382
   83MOL    C8426488   1.102   8.232   2.181  0.4836  0.0581  0.4598
   83MOL    C8526489   1.098   0.061   2.053 -0.0852  1.4941  0.2413
   83MOL    C8626490   1.169   0.179   2.032  0.3415  0.8346  0.1793
   83MOL    F8726491   1.167   0.229   1.909  0.0395  0.1336  0.4636
   83MOL    C8826492   1.257   0.230   2.133  0.7043  0.0618  0.4523
   83MOL    C8926493   1.254   0.168   2.261 -0.0200  0.6283  0.7137
   83MOL    C9026494   1.060   0.032   2.511 -0.1173 -0.8230  0.3809
   83MOL    H9126495   1.259   0.034   2.478 -0.1037  1.4228 -2.5008
   83MOL    H9226496   1.047   8.139   2.186  0.0567  0.1041 -2.5412
   83MOL    H9326497   1.040   0.007   1.980  0.5119  0.4527  0.5287
   83MOL    H9426498   1.323   0.313   2.118  1.2115 -0.5401 -0.7187
   83MOL    H9526499   1.319   0.210   2.336  0.4290  0.8988  0.1831
   83MOL    H9626500   1.065   8.207   2.602  1.2526 -1.8277 -0.3206
   83MOL    H9726501   1.073   0.135   2.544  0.2201 -0.8613  0.3713
   83MOL    C9826502   0.914   0.024   2.453  0.1468  0.2941 -0.0799
   83MOL    C9926503   0.869   8.114   2.429 -0.3674 -0.3758  0.0823
   83MOL   C10026504   0.901   8.007   2.516 -0.1559 -0.1156  1.3128
   83MOL   C10126505   0.872   7.878   2.479 -0.4182 -0.4740 -0.2796
   83MOL   C10226506   0.800   7.847   2.358  0.3905 -0.4450  0.6460
   83MOL   F10326507   0.765   7.719   2.333 -0.3322 -0.0341  0.2545
   83MOL   C10426508   0.759   7.954   2.277 -0.0285  0.3897  0.1406
   83MOL   C10526509   0.793   8.084   2.317 -0.7346  0.6657  0.3913
   83MOL   C10626510   0.810   0.095   2.546 -0.2758 -0.5941  0.0681
   83MOL   H10726511   0.917   0.074   2.356  0.2147 -0.8681 -0.6899
   83MOL   H10826512   0.968   8.016   2.601  2.1349  0.6409 -0.5354
   83MOL   H10926513   0.902   7.803   2.550  3.3732  0.5151 -0.7052
   83MOL   H11026514   0.709   7.938   2.182 -1.7085 -1.1489  1.2533
   83MOL   H11126515   0.767   8.170   2.258  0.7316  1.8724  1.4679
   83MOL   H11226516   0.818   0.032   2.634 -1.5909 -0.2861  0.4241
   83MOL   H11326517   0.853   0.192   2.574 -0.3240 -0.0006 -1.8772
   83MOL   C11426518   0.666   0.116   2.500 -0.9915 -0.1069 -1.1826
   83MOL   C11526519   0.587   0.076   2.618 -0.8251  0.4232  0.7182
   83MOL   C11626520   0.524   0.169   2.700  0.1799  0.4012 -0.0501
   83MOL   C11726521   0.439   0.125   2.801 -0.0276 -0.5116  0.4794
   83MOL   C11826522   0.412   8.223   2.820 -0.0910 -0.5330 -0.2506
   83MOL   F11926523   0.324   8.177   2.912 -0.0759  0.3617  0.2460
   83MOL   C12026524   0.476   8.130   2.742  0.2459  0.1205 -0.0309
   83MOL   C12126525   0.567   8.176   2.647 -0.2132  0.2504  0.3139
   83MOL   C12226526   0.618   0.247   2.440  0.6637 -0.3085  1.0769
   83MOL   H12326527   0.648   0.046   2.419  0.6868 -1.9793  0.0271
   83MOL   H12426528   0.531   0.276   2.682  0.4543  0.5109  0.7036
   83MOL   H12526529   0.389   0.195   2.866  0.1430  1.2344 -1.2189
   83MOL   H12626530   0.456   8.025   2.752 -2.9548  0.7842  1.1706
   83MOL   H12726531   0.601   8.106   2.572  1.4322  1.9848 -0.6107
   83MOL   H12826532   0.510   0.235   2.426  1.0447 -2.5449 -0.1378
   83MOL   H12926533   0.620   0.325   2.516 -2.8722  0.5602  0.3781
   83MOL   C13026534   0.697   0.317   2.324 -0.5422 -0.5286  0.2125
   83MOL   C13126535   0.657   0.248   2.193 -0.0676  0.4299  0.4965
   83MOL   C13226536   0.528   0.254   2.136  0.6493  0.4560 -0.1818
   83MOL   C13326537   0.498   0.199   2.013  0.1410  0.0706  0.0161
   83MOL   C13426538   0.593   0.129   1.942 -0.5351  0.3789  0.3188
   83MOL   F13526539   0.566   0.095   1.811  0.4598 -0.1952  0.1731
   83MOL   C13626540   0.720   0.115   1.994 -0.1074  0.6144 -0.1758
   83MOL   C13726541   0.758   0.174   2.120 -0.2053  0.2335  0.3168
   83MOL   C13826542   0.671   0.461   2.294  1.0043  0.5542 -0.9713
   83MOL   H13926543   0.805   0.310   2.338 -0.7518 -0.2074  2.1103
   83MOL   H14026544   0.452   0.313   2.187  2.4359  0.2995  2.7772
   83MOL   H14126545   0.395   0.215   1.983 -0.7508  0.8760  3.3003
   83MOL   H14226546   0.789   0.049   1.944  0.9934  2.5275 -1.2491
   83MOL   H14326547   0.861   0.186   2.151 -0.3919  0.1345  0.9733
   83MOL   H14426548   0.696   0.500   2.195 -0.7699 -0.1143 -1.7127
   83MOL   H14526549   0.563   0.474   2.294  1.0897  1.3723  0.9296
   83MOL   C14626550   0.717   0.563   2.395 -0.4061 -0.6875 -0.1056
   83MOL   C14726551   0.865   0.591   2.388  0.7330 -0.4222 -0.3206
   83MOL   C14826552   0.930   0.650   2.267  0.0468 -0.2605 -0.1903
   83MOL   C14926553   1.069   0.663   2.268  0.7163 -0.2431  0.3834
   83MOL   C15026554   1.141   0.642   2.389 -0.1825  0.3427  0.6104
   83MOL   F15126555   1.270   0.679   2.387  0.0078 -0.5698 -0.1244
   83MOL   C15226556   1.080   0.584   2.500 -0.5678  0.2639 -0.1081
   83MOL   C15326557   0.945   0.558   2.499  0.3604  0.1872  0.2684
   83MOL   C15426558   0.649   0.705   2.394 -0.3542 -0.6230  0.1730
   83MOL   H15526559   0.698   0.526   2.495  1.6130 -1.3944  0.0357
   83MOL   H15626560   0.871   0.681   2.183  0.9172 -0.8255 -1.0196
   83MOL   H15726561   1.122   0.706   2.185  3.0732 -0.6442  1.6452
   83MOL   H15826562   1.132   0.567   2.593 -0.2216  0.0950 -0.3339
   83MOL   H15926563   0.904   0.522   2.592  2.8658  1.4367  1.9080
   83MOL   H16026564   0.680   0.773   2.474  1.6729 -0.3260 -0.8409
   83MOL   H16126565   0.685   0.748   2.301  0.1163 -1.7027 -0.1519
   83MOL   C16226566   0.492   0.708   2.397  0.2935 -0.1918 -0.3886
   83MOL   C16326567   0.430   0.623   2.511  0.3840 -0.4348 -0.5450
   83MOL   C16426568   0.325   0.533   2.478  0.1991 -0.2162 -0.5558
   83MOL   C16526569   0.265   0.453   2.582 -0.0581 -0.0715  0.5363
   83MOL   C16626570   0.301   0.474   2.713 -0.1416 -0.2462 -0.2307
   83MOL   F16726571   0.221   0.409   2.807  0.5747 -0.3301  0.9319
   83MOL   C16826572   0.409   0.562   2.751 -0.0183 -0.8827 -0.0720
   83MOL   C16926573   0.474   0.633   2.648 -0.2321 -0.0614  0.1695
   83MOL   C17026574   0.443   0.857   2.402 -0.2585 -0.0391 -0.6128
   83MOL   H17126575   0.459   0.659   2.306  0.0818 -0.1239 -0.3472
   83MOL   H17226576   0.299   0.518   2.374 -0.6200 -1.5345 -0.1742
   83MOL   H17326577   0.184   0.385   2.562  0.1089  0.0302 -0.5294
   83MOL   H17426578   0.442   0.576   2.853 -0.2661  1.2672 -0.2686
   83MOL   H17526579   0.556   0.699   2.673 -0.3103 -0.2861  1.0281
   83MOL   H17626580   0.483   0.898   2.495  0.1577 -1.3660 -0.1938
   83MOL   H17726581   0.485   0.903   2.312 -0.9587 -0.3097 -1.0857
   83MOL   C17826582   0.293   0.883   2.388 -0.1605  0.3049 -0.5333
   83MOL   C17926583   0.252   1.021   2.427 -0.0390  0.7769 -0.2514
   83MOL   C18026584   0.147   1.039   2.522 -0.6159 -0.4862 -0.2227
   83MOL   C18126585   0.099   1.169   2.551  0.4276 -0.4276 -0.6923
   83MOL   C18226586   0.159   1.281   2.497  0.7667  0.1638 -0.3846
   83MOL   F18326587   0.107   1.408   2.510 -0.3404 -0.0524  0.4330
   83MOL   C18426588   0.276   1.259   2.422 -0.2621 -0.5210  0.4844
   83MOL   C18526589   0.324   1.137   2.391  0.2561 -0.2373 -0.8458
   83MOL   C18626590   0.217   0.830   2.260  0.5719 -0.1745 -0.3524
   83MOL   H18726591   0.257   0.819   2.470  3.2944 -1.6289 -0.4064
   83MOL   H18826592   0.094   0.951   2.557 -2.3448  0.7891  0.4198
   83MOL   H18926593   0.009   1.178   2.610  0.5838 -0.0631 -0.5130
   83MOL   H19026594   0.318   1.348   2.378 -0.9393  0.4507  1.7747
   83MOL   H19126595   0.412   1.125   2.329  2.3007 -1.5810  2.2194
   83MOL   H19226596   0.273   0.744   2.224  0.9874  0.9899 -2.6375
   83MOL   H19326597   0.123   0.790   2.297  0.4909  0.5952  0.2914
   83MOL   C19426598   0.201   0.931   2.148  0.4992  0.9461  0.2966
   83MOL   C19526599   0.202   0.865   2.011  0.2300 -0.1215 -0.3256
   83MOL   C19626600   0.104   0.771   1.970  0.3826 -0.3404  0.3504
   83MOL   C19726601   0.101   0.720   1.836  0.2150 -0.1868  0.2753
   83MOL   C19826602   0.207   0.762   1.750  0.2138 -0.2224  0.0450
   83MOL   F19926603   0.203   0.722   1.620  0.2132 -0.1573 -0.8323
   83MOL   C20026604   0.305   0.854   1.788  0.2403 -0.3421 -0.5289
   83MOL   C20126605   0.299   0.916   1.913 -0.4205 -0.0254  0.1995
   83MOL   C20226606   0.074   1.011   2.162  0.1664 -0.5863  0.3215
   83MOL   H20326607   0.286   0.996   2.166  1.8075 -0.8885  0.8395
   83MOL   H20426608   0.032   0.743   2.046  1.4160 -1.6903  0.8632
   83MOL   H20526609   0.023   0.653   1.804 -1.4059  1.6519  0.3134
   83MOL   H20626610   0.372   0.887   1.709  0.0806 -0.8909 -0.8923
   83MOL   H20726611   0.374   0.992   1.933  0.1288 -0.9769  1.8860
   83MOL   H20826612   8.224   0.944   2.142  0.4296 -0.7302 -0.3225
   83MOL   H20926613   0.061   1.035   2.268 -2.7302 -2.5290  0.4679
   83MOL   C21026614   0.048   1.133   2.068  0.7822 -0.0702 -0.0680
   83MOL   C21126615   8.132   1.167   2.064 -0.6128 -0.9713 -0.0124
   83MOL   C21226616   8.048   1.156   2.181 -0.1843 -0.1803 -0.2280
   83MOL   C21326617   7.907   1.157   2.167  0.0494 -0.7501  0.2767
   83MOL   C21426618   7.850   1.201   2.045 -0.1272  0.1819 -0.5161
   83MOL   F21526619   7.716   1.228   2.036 -0.3783 -0.4770  0.1945
   83MOL   C21626620   7.930   1.227   1.930 -0.0573  1.2464 -0.1740
   83MOL   C21726621   8.068   1.190   1.941 -0.8874 -0.8339  0.3010
   83MOL   C21826622   0.138   1.242   2.110  1.1218  0.1317  0.2594
   83MOL   H21926623   0.066   1.100   1.966  2.1911 -1.0217  0.4754
   83MOL   H22026624   8.089   1.127   2.277  0.2097  0.3293 -0.2374
   83MOL   H22126625   7.855   1.148   2.262 -1.3120  3.3023 -0.0229
   83MOL   H22226626   7.895   1.242   1.829  0.6215  0.5665 -0.5212
   83MOL   H22326627   8.132   1.183   1.854 -0.2763 -0.9806  0.7627
   83MOL   H22426628   0.077   1.289   2.187 -0.7920 -0.0867 -1.0748
   83MOL   H22526629   0.233   1.208   2.151  1.0631 -0.6102 -0.2195
   83MOL   C22626630   0.177   1.347   2.010 -0.4239 -0.0343 -0.2496
   83MOL   C22726631   0.283   1.286   1.909  0.1602 -0.8326 -0.2109
   83MOL   C22826632   0.418   1.290   1.944  0.4190 -0.2753  0.6016
   83MOL   C22926633   0.516   1.228   1.871  0.6260  0.0333 -0.0763
   83MOL   C23026634   0.483   1.168   1.746  0.1303 -0.0473  0.6915
   83MOL   F23126635   0.580   1.113   1.669 -0.8400 -0.0659 -0.3278
   83MOL   C23226636   0.350   1.172   1.704  0.4325  0.3194 -0.4584
   83MOL   C23326637   0.246   1.231   1.786  0.2339 -0.4635 -0.4647
   83MOL   C23426638   0.068   1.435   1.938 -0.9450 -0.2086 -0.2792
   83MOL   H23526639   0.230   1.422   2.069  1.5411 -0.7193 -1.0864
   83MOL   H23626640   0.448   1.334   2.037 -0.7395 -0.8389  1.2526
   83MOL   H23726641   0.618   1.243   1.903  0.3362  3.1199 -0.4211
   83MOL   H23826642   0.317   1.120   1.615 -0.3193  1.7782 -1.0664
   83MOL   H23926643   0.146   1.236   1.746 -0.3099 -0.8832  0.8101
   83MOL   H24026644   0.110   1.504   1.864  1.6770  0.1772  1.4962
   83MOL   H24126645   0.002   1.366   1.887 -1.1675 -1.2387  1.3578
   83MOL   C24226646   8.219   1.527   2.043  0.0054  0.2942 -0.3098
   83MOL   C24326647   0.062   1.651   2.080  0.3066  0.6622 -0.0830
   83MOL   C24426648   0.114   1.675   2.205 -0.1497 -0.3508  0.5699
   83MOL   C24526649   0.189   1.794   2.228  0.4409 -0.4604 -0.1304
   83MOL   C24626650   0.206   1.890   2.122  0.3709  0.9412  0.1186
   83MOL   F24726651   0.271   2.005   2.145 -0.2968  0.0160  0.1572
   83MOL   C24826652   0.143   1.862   2.000 -0.3499  0.0394 -0.1854
   83MOL   C24926653   0.074   1.746   1.977  0.2232  0.2126  0.3703
   83MOL   C25026654   8.072   1.559   2.015  0.0887 -0.2818 -0.2956
   83MOL   H25126655   8.213   1.464   2.132  2.5797 -1.2960 -1.2002
   83MOL   H25226656   0.106   1.594   2.277  1.1683  0.6291  1.8559
   83MOL   H25326657   0.239   1.817   2.321  0.9343 -0.6446 -0.3535
   83MOL   H25426658   0.148   1.929   1.915 -0.6374 -1.0677 -1.0926
   83MOL   H25526659   0.022   1.733   1.883  0.3649  4.1800 -0.3663
   83MOL   H25626660   8.059   1.635   1.938 -3.3319 -2.0312 -1.5663
   83MOL   H25726661   8.023   1.468   1.980  3.0483 -1.0092 -2.7984
   83MOL   C25826662   8.000   1.613   2.141 -0.4593 -0.2108  0.4406
   83MOL   C25926663   7.856   1.656   2.109  0.1792  0.1858  0.1926
   83MOL   C26026664   7.763   1.562   2.057  0.0294 -0.2228 -0.9272
   83MOL   C26126665   7.626   1.598   2.043  0.1222  0.4122 -0.1090
   83MOL   C26226666   7.582   1.725   2.081  0.2645  0.0787  0.6745
   83MOL   F26326667   7.451   1.758   2.071  0.1059 -0.1016 -0.3929
   83MOL   C26426668   7.672   1.821   2.140  0.2111  0.3732  0.3363
   83MOL   C26526669   7.808   1.783   2.157  0.2425  0.2420  0.9031
   83MOL   C26626670   8.001   1.527   2.273  0.0736  0.3165  0.9213
   83MOL   H26726671   8.048   1.705   2.174  1.8211 -0.3105 -2.4587
   83MOL   H26826672   7.796   1.462   2.034  0.0302 -0.5319  0.3892
   83MOL   H26926673   7.559   1.527   1.996 -0.1741  1.1422 -0.8146
   83MOL   H27026674   7.629   1.917   2.164 -0.0258 -0.0066  1.4721
   83MOL   H27126675   7.877   1.847   2.208  0.1984  0.9160  0.1370
   83MOL   H27226676   7.989   1.423   2.241  0.8641  0.5104 -0.0485
   83MOL   H27326677   8.101   1.533   2.316 -0.7905 -0.7863  3.2087
   83MOL   C27426678   7.890   1.557   2.377  0.2862  0.4229 -0.8101
   83MOL   C27526679   7.873   1.426   2.459  0.5982  0.2525  0.0198
   83MOL   C27626680   7.745   1.369   2.472  0.1957  0.3286  0.4121
   83MOL   C27726681   7.729   1.260   2.559 -0.2176 -0.1764  0.0100
   83MOL   C27826682   7.835   1.200   2.632  0.1912  0.2396  0.3536
   83MOL   F27926683   7.815   1.091   2.702 -0.5417 -0.2919  0.0722
   83MOL   C28026684   7.959   1.261   2.615  0.2341  0.6512 -0.1372
   83MOL   C28126685   7.979   1.366   2.530  0.6228 -0.3365 -0.2234
   83MOL   C28226686   7.921   1.683   2.461 -0.3014 -0.7915 -0.2777
   83MOL   H28326687   7.799   1.565   2.318 -0.1993  0.9037 -0.0003
   83MOL   H28426688   7.664   1.408   2.414  1.4655 -1.1236 -2.4600
   83MOL   H28526689   7.632   1.214   2.571  0.3606 -0.9801  1.7907
   83MOL   H28626690   8.047   1.225   2.667 -1.1480 -2.9325 -0.1213
   83MOL   H28726691   8.078   1.409   2.540 -0.5995  2.4085  0.5169
   83MOL   H28826692   8.003   1.675   2.532  1.0717 -0.8220 -1.8368
   83MOL   H28926693   7.981   1.746   2.395  1.1579 -2.0898 -0.2038
   83MOL   C29026694   7.797   1.761   2.511  0.0656 -0.3722 -0.5257
   83MOL   C29126695   7.728   1.682   2.617  0.7389 -0.4282 -0.8467
   83MOL   C29226696   7.778   1.666   2.748 -0.0608  0.1209  0.2387
   83MOL   C29326697   7.713   1.580   2.840 -0.4266  0.2559  0.3276
   83MOL   C29426698   7.588   1.522   2.809 -0.3522  0.3614  0.2552
   83MOL   F29526699   7.531   1.441   2.898 -0.2001  0.3918  0.0421
   83MOL   C29626700   7.533   1.548   2.681 -0.2735  0.5619 -0.1026
   83MOL   C29726701   7.602   1.624   2.588 -0.0180 -0.3768 -0.4093
   83MOL   C29826702   7.830   1.907   2.533 -0.1849  0.7562 -0.7232
   83MOL   H29926703   7.729   1.763   2.426 -2.0692  2.4423  1.1590
   83MOL   H30026704   7.881   1.692   2.765  0.0134  0.0208 -0.0584
   83MOL   H30126705   7.742   1.561   2.942 -0.7642  2.1471  0.7860
   83MOL   H30226706   7.437   1.507   2.654 -0.2813  0.0077  0.7427
   83MOL   H30326707   7.559   1.634   2.489  2.0374  0.0416 -1.2806
   83MOL   H30426708   7.919   1.918   2.594 -1.7702  4.9321  1.0057
   83MOL   H30526709   7.853   1.949   2.435  0.2685 -1.2851 -1.5214
   83MOL   C30626710   7.720   1.989   2.604  0.6089  0.0251  0.2910
   83MOL   C30726711   7.775   2.129   2.641  0.1816  0.0782 -0.3970
   83MOL   C30826712   7.777   2.233   2.549 -0.1652 -0.2663 -0.0811
   83MOL   C30926713   7.835   2.355   2.581  0.9552  0.0144  0.0365
   83MOL   C31026714   7.903   2.378   2.704 -0.3894  0.3581  1.1545
   83MOL   F31126715   7.957   2.500   2.731  0.4017 -0.0345  0.0021
   83MOL   C31226716   7.898   2.276   2.796  0.0704 -0.3119 -0.2974
   83MOL   C31326717   7.842   2.150   2.767  0.0298  0.3519 -0.7402
   83MOL   C31426718   7.587   1.994   2.524 -0.5297  0.9215  0.4263
   83MOL   H31526719   7.689   1.942   2.698  1.0175 -0.5172  0.1610
   83MOL   H31626720   7.734   2.222   2.450 -0.8469 -0.2487  0.2074
   83MOL   H31726721   7.831   2.430   2.503  0.8588 -1.0190 -0.9761
   83MOL   H31826722   7.938   2.298   2.894 -2.1332  0.6362  0.4344
   83MOL   H31926723   7.842   2.077   2.847  0.8181 -0.4275 -1.4406
   83MOL   H32026724   7.615   2.032   2.425  1.9871  0.1775  0.8232
   83MOL   H32126725   7.542   1.897   2.503 -0.7690  0.9870  0.6381
   83MOL   H32226726   7.512   2.062   2.563 -2.0829 -1.3799  1.5400
   84MOL     C126727   5.120   3.936   7.413  0.2718 -0.0877 -0.2636
   84MOL     C226728   5.039   4.068   7.424  0.0128  0.4104 -0.1919
   84MOL     C326729   5.072   4.182   7.491 -0.0033 -0.1998 -0.2411
   84MOL     C426730   4.997   4.300   7.478  0.5428 -0.7351 -0.4479
   84MOL     C526731   4.880   4.293   7.408  0.2584  0.2583  0.3357
   84MOL     F626732   4.800   4.395   7.395 -0.1137 -0.2148  0.5099
   84MOL     C726733   4.840   4.171   7.343 -0.4572 -0.1767 -0.5537
   84MOL     C826734   4.924   4.062   7.341  0.5222 -0.1733 -0.3434
   84MOL     C926735   5.236   3.963   7.318 -0.0859 -0.1838 -0.0020
   84MOL    H1026736   5.059   3.847   7.397  0.3458 -0.1464 -0.2139
   84MOL    H1126737   5.160   4.192   7.553  0.6034 -0.3162 -1.0779
   84MOL    H1226738   5.025   4.395   7.521 -1.8356  0.4622 -1.4614
   84MOL    H1326739   4.744   4.168   7.294 -2.2477 -1.8914  2.8690
   84MOL    H1426740   4.893   3.971   7.290  0.3034 -0.4929  0.3499
   84MOL    H1526741   5.288   4.053   7.349  1.0394 -1.0782  0.7426
   84MOL    H1626742   5.312   3.886   7.332 -1.7157 -1.0988  4.2332
   84MOL    H1726743   5.169   3.920   7.509  1.5867  0.7740 -0.7728
   84MOL    C1826744   5.205   3.985   7.167 -0.1574  0.2376  0.4591
   84MOL    C1926745   5.336   4.012   7.091 -0.2036 -0.5580 -1.0750
   84MOL    C2026746   5.400   4.140   7.103  0.1812  0.9628  0.1499
   84MOL    C2126747   5.520   4.155   7.034 -0.2930  0.1031  0.1927
   84MOL    C2226748   5.586   4.053   6.963  0.5353  0.2771  0.3995
   84MOL    F2326749   5.699   4.075   6.896 -0.1483  0.0841  0.1757
   84MOL    C2426750   5.519   3.929   6.949  0.1763  0.8156 -0.2155
   84MOL    C2526751   5.392   3.910   7.010  0.2427  0.4600 -0.1916
   84MOL    C2626752   5.114   3.872   7.105 -0.2448  0.2949  0.1364
   84MOL    H2726753   5.145   4.073   7.146 -1.4524 -0.4816  1.0630
   84MOL    H2826754   5.356   4.223   7.156  1.6689  3.6061 -2.6556
   84MOL    H2926755   5.577   4.242   7.062  2.5105 -2.1108  1.5766
   84MOL    H3026756   5.569   3.858   6.884  1.1922  0.7375  0.6490
   84MOL    H3126757   5.348   3.813   6.990  0.0795 -0.0732  2.5649
   84MOL    H3226758   5.169   3.779   7.090 -1.0953 -0.2310  0.2425
   84MOL    H3326759   5.039   3.832   7.172  0.7009 -0.0859  0.9710
   84MOL    C3426760   5.056   3.921   6.968  0.0570  0.3240 -0.7032
   84MOL    C3526761   5.042   3.791   6.887 -0.9128  0.6391  0.0656
   84MOL    C3626762   4.947   3.696   6.926  0.7324 -0.5266 -0.1083
   84MOL    C3726763   4.932   3.576   6.864  0.2143 -0.2213  0.0764
   84MOL    C3826764   5.019   3.545   6.758  0.5264 -0.1222  0.1852
   84MOL    F3926765   5.012   3.431   6.686  0.0151 -0.2006  0.1841
   84MOL    C4026766   5.125   3.637   6.718 -0.6013  0.0570 -0.0149
   84MOL    C4126767   5.141   3.759   6.787  1.1650  0.0338 -0.3932
   84MOL    C4226768   4.923   4.000   6.967 -1.0202 -0.4845  0.0863
   84MOL    H4326769   5.123   3.986   6.912 -0.1960  2.4983  1.4095
   84MOL    H4426770   4.870   3.718   6.999 -1.1560  1.4316 -2.6139
   84MOL    H4526771   4.859   3.509   6.907  0.0624  0.7440  1.3647
   84MOL    H4626772   5.198   3.608   6.644 -0.8186 -0.2017 -0.1341
   84MOL    H4726773   5.227   3.819   6.762  1.7087 -0.5234  0.1284
   84MOL    H4826774   4.865   3.931   7.028 -1.1582 -1.7525 -1.4351
   84MOL    H4926775   4.933   4.095   7.020  3.8257  0.5769 -2.4625
   84MOL    C5026776   4.845   4.017   6.842 -0.6647 -0.0672  0.5273
   84MOL    C5126777   4.702   4.057   6.874 -0.0780  0.3706 -0.2934
   84MOL    C5226778   4.661   4.178   6.928  0.4296 -1.0518  0.1251
   84MOL    C5326779   4.529   4.211   6.956  0.7031 -0.1817 -0.4084
   84MOL    C5426780   4.427   4.121   6.921  0.0114 -0.8155  0.2560
   84MOL    F5526781   4.297   4.158   6.934 -0.0072  0.0562 -0.2400
   84MOL    C5626782   4.456   3.994   6.874 -0.0141  0.5391 -0.1332
   84MOL    C5726783   4.594   3.963   6.848 -0.8019 -0.2573  0.2028
   84MOL    C5826784   4.908   4.113   6.734  0.7437  0.0504  0.4685
   84MOL    H5926785   4.845   3.917   6.797  1.1032  0.2486 -0.2342
   84MOL    H6026786   4.745   4.245   6.937 -2.3329  2.2211  2.7849
   84MOL    H6126787   4.507   4.307   7.000  2.4161 -1.1940  2.7850
   84MOL    H6226788   4.377   3.925   6.851  0.5560  0.1828 -1.0439
   84MOL    H6326789   4.605   3.867   6.800 -2.6633 -0.6221  0.4575
   84MOL    H6426790   4.928   4.212   6.774 -1.2433 -0.3876  2.6083
   84MOL    H6526791   5.011   4.082   6.716  0.6894  1.0086 -1.6640
   84MOL    C6626792   4.836   4.136   6.608  0.4787 -0.1857 -0.6570
   84MOL    C6726793   4.878   4.267   6.538 -1.1077  0.0529  0.2642
   84MOL    C6826794   4.801   4.382   6.545 -0.2400  0.0345  0.5457
   84MOL    C6926795   4.851   4.513   6.503  1.1522  0.0347  0.0674
   84MOL    C7026796   4.969   4.517   6.437  0.1007 -0.3815  0.0029
   84MOL    F7126797   5.015   4.634   6.383  0.3126 -0.0784  0.1824
   84MOL    C7226798   5.052   4.401   6.434  0.2501 -0.0613  0.6100
   84MOL    C7326799   5.006   4.279   6.482  0.8391  0.3801  0.4729
   84MOL    C7426800   4.833   4.014   6.516 -0.1441  0.2618 -0.6938
   84MOL    H7526801   4.732   4.145   6.637  0.6801 -1.3817  0.4423
   84MOL    H7626802   4.710   4.372   6.603 -1.6248 -0.2285 -1.6328
   84MOL    H7726803   4.789   4.597   6.531 -0.9360 -1.3772 -0.2056
   84MOL    H7826804   5.143   4.413   6.378 -0.7285 -0.6631 -1.1448
   84MOL    H7926805   5.075   4.196   6.485  1.4018  0.8831  2.4599
   84MOL    H8026806   4.931   4.004   6.470  0.1987 -0.3584  0.1526
   84MOL    H8126807   4.832   3.928   6.583 -0.7942  1.3523  0.7404
   84MOL    C8226808   4.712   3.992   6.418  0.4831  0.8387 -0.0238
   84MOL    C8326809   4.569   4.018   6.470  0.2224  0.1671  0.1796
   84MOL    C8426810   4.514   4.152   6.487 -0.4478  0.4248 -0.4854
   84MOL    C8526811   4.387   4.166   6.537 -0.5250  0.7252 -0.4242
   84MOL    C8626812   4.306   4.058   6.573 -0.0760 -0.7538  0.2177
   84MOL    F8726813   4.188   4.078   6.638  0.0861 -0.0969 -0.3580
   84MOL    C8826814   4.353   3.931   6.556 -0.4053  0.2871 -0.1333
   84MOL    C8926815   4.481   3.907   6.499 -0.1895 -0.1915  0.2830
   84MOL    C9026816   4.732   4.073   6.286 -0.2968  0.0978 -0.7944
   84MOL    H9126817   4.722   3.885   6.404  1.7285  1.0308 -0.6295
   84MOL    H9226818   4.574   4.238   6.462  1.7616 -0.2132  2.3581
   84MOL    H9326819   4.341   4.263   6.554 -1.6972 -0.3757  3.0984
   84MOL    H9426820   4.302   3.840   6.582 -0.0163  0.9599  3.1517
   84MOL    H9526821   4.523   3.809   6.483  1.1359  0.5270 -0.8344
   84MOL    H9626822   4.632   4.082   6.245 -0.5670 -0.5092 -0.2553
   84MOL    H9726823   4.776   4.170   6.310 -0.1433 -0.6776  2.2351
   84MOL    C9826824   4.816   4.001   6.180 -0.7820  0.7602 -0.3301
   84MOL    C9926825   4.756   3.865   6.144 -0.6713  0.0032 -0.7811
   84MOL   C10026826   4.619   3.837   6.123  0.3338  0.2115  0.0330
   84MOL   C10126827   4.571   3.719   6.064 -0.0541  0.1464 -0.1768
   84MOL   C10226828   4.665   3.618   6.034  0.5900  0.4760 -0.0271
   84MOL   F10326829   4.626   3.507   5.972 -0.0363 -0.1939  0.3438
   84MOL   C10426830   4.800   3.640   6.060 -0.4342 -0.5803  0.1373
   84MOL   C10526831   4.844   3.757   6.129  0.3916 -0.1548 -0.2938
   84MOL   C10626832   4.832   4.080   6.047 -0.4654  0.3461  0.2876
   84MOL   H10726833   4.921   3.987   6.209 -0.5762 -1.8626 -2.0733
   84MOL   H10826834   4.545   3.913   6.145  3.2807  2.9207  0.9556
   84MOL   H10926835   4.466   3.706   6.042 -0.2798  3.4695 -1.3657
   84MOL   H11026836   4.866   3.560   6.031  0.2026 -0.6588  1.7680
   84MOL   H11126837   4.947   3.763   6.163  0.0198  1.5992  0.5734
   84MOL   H11226838   4.825   4.007   5.966 -1.1828 -0.7322  1.2988
   84MOL   H11326839   4.743   4.142   6.036  0.7224  1.8124 -1.2810
   84MOL   C11426840   4.953   4.175   6.034  0.5407  0.4257  0.5769
   84MOL   C11526841   5.081   4.097   6.060 -0.7157  0.1639 -0.4940
   84MOL   C11626842   5.174   4.128   6.168 -0.2861 -0.4259  0.3121
   84MOL   C11726843   5.290   4.050   6.194  0.3073  0.5965  0.3271
   84MOL   C11826844   5.309   3.934   6.114 -0.4532  0.1451  0.6136
   84MOL   F11926845   5.418   3.860   6.143  0.2767 -0.2310 -0.2521
   84MOL   C12026846   5.222   3.899   6.007 -0.2862 -0.4691 -0.3555
   84MOL   C12126847   5.110   3.979   5.983 -0.7663  0.2733 -0.0798
   84MOL   C12226848   4.964   4.246   5.894  0.1361 -0.6190  0.8085
   84MOL   H12326849   4.935   4.250   6.110  0.1072 -1.7009  2.6153
   84MOL   H12426850   5.159   4.221   6.220  1.8002  0.8573 -1.2680
   84MOL   H12526851   5.348   4.079   6.281  2.0147  1.2529 -0.9922
   84MOL   H12626852   5.257   3.822   5.940  2.7180  1.2102 -0.7893
   84MOL   H12726853   5.033   3.952   5.913  0.2156  2.4130 -2.0462
   84MOL   H12826854   5.058   4.302   5.898 -0.9773  1.5518 -2.2072
   84MOL   H12926855   4.967   4.174   5.813 -2.7371  0.7984 -0.6297
   84MOL   C13026856   4.851   4.346   5.851  0.2946 -0.6461  0.0241
   84MOL   C13126857   4.766   4.397   5.968 -0.0672  0.4943  0.2527
   84MOL   C13226858   4.819   4.488   6.068  0.4267 -0.1452  0.6239
   84MOL   C13326859   4.731   4.535   6.171 -0.1811  0.2461 -1.0113
   84MOL   C13426860   4.602   4.485   6.187  0.7226  0.0419  0.3584
   84MOL   F13526861   4.525   4.517   6.290  0.0044 -0.0703 -0.2744
   84MOL   C13626862   4.550   4.402   6.082 -0.1879 -0.2948 -0.6625
   84MOL   C13726863   4.636   4.350   5.987  0.6071 -0.4537 -0.4113
   84MOL   C13826864   4.899   4.450   5.750  0.6057  0.1276 -0.0983
   84MOL   H13926865   4.778   4.283   5.800  0.7630  1.2907 -3.1536
   84MOL   H14026866   4.919   4.529   6.071 -0.0551  1.2282 -1.0909
   84MOL   H14126867   4.765   4.597   6.253  0.7062 -1.9057  0.2887
   84MOL   H14226868   4.450   4.363   6.092  0.0804 -0.5244  1.3907
   84MOL   H14326869   4.586   4.283   5.919 -1.3885  0.0395  0.5411
   84MOL   H14426870   4.990   4.483   5.802 -0.6384  1.3178  1.3903
   84MOL   H14526871   4.914   4.406   5.652 -1.2008  0.1772 -0.4015
   84MOL   C14626872   4.824   4.580   5.745  0.6175  1.0930 -0.2554
   84MOL   C14726873   4.906   4.678   5.663 -0.2726  0.2094  0.4190
   84MOL   C14826874   5.002   4.763   5.723  0.2072 -0.1976  0.0442
   84MOL   C14926875   5.088   4.851   5.661 -0.6843 -0.3887  0.7552
   84MOL   C15026876   5.081   4.859   5.522 -0.1885 -0.1504 -0.0294
   84MOL   F15126877   5.167   4.943   5.459 -0.2442 -0.3432 -0.0127
   84MOL   C15226878   4.985   4.780   5.455  0.4909  0.5620 -0.4138
   84MOL   C15326879   4.895   4.692   5.520 -0.2036  0.0122 -0.3358
   84MOL   C15426880   4.684   4.556   5.692  0.2549 -0.5274 -0.5639
   84MOL   H15526881   4.820   4.625   5.844 -3.4648 -0.7404  0.5257
   84MOL   H15626882   5.002   4.747   5.829 -0.8837  0.8280  0.2117
   84MOL   H15726883   5.160   4.904   5.721 -1.3645 -2.7452  3.7826
   84MOL   H15826884   4.980   4.782   5.347  2.1156  1.7017 -0.4923
   84MOL   H15926885   4.814   4.648   5.463 -0.8930  2.3205 -1.1692
   84MOL   H16026886   4.703   4.504   5.598  2.0077 -0.9761  0.0090
   84MOL   H16126887   4.628   4.491   5.759 -2.0663 -0.7978 -2.6834
   84MOL   C16226888   4.605   4.688   5.673 -0.3523 -0.7578  0.1693
   84MOL   C16326889   4.529   4.689   5.536 -0.5226 -0.1559 -0.5513
   84MOL   C16426890   4.427   4.596   5.519  0.0681 -0.0807  0.7909
   84MOL   C16526891   4.352   4.596   5.395 -0.4305 -0.3918 -0.3424
   84MOL   C16626892   4.378   4.689   5.296  0.0589 -0.0988 -0.1413
   84MOL   F16726893   4.294   4.689   5.191 -0.9612 -0.5543 -0.3684
   84MOL   C16826894   4.482   4.783   5.317 -0.2502 -0.0230  0.3419
   84MOL   C16926895   4.557   4.784   5.436 -0.1656 -0.1361  0.2882
   84MOL   C17026896   4.503   4.698   5.791 -0.1775 -0.0314  0.6915
   84MOL   H17126897   4.674   4.770   5.688 -0.3969 -0.4297 -1.3417
   84MOL   H17226898   4.409   4.513   5.586  2.7704 -0.7501  0.7324
   84MOL   H17326899   4.278   4.522   5.368  1.1836 -1.6206 -1.5639
   84MOL   H17426900   4.495   4.861   5.243 -2.4507  0.0124 -0.0277
   84MOL   H17526901   4.621   4.870   5.450 -0.0220 -0.3838  1.1840
   84MOL   H17626902   4.425   4.622   5.793  0.6671 -1.0044 -1.8644
   84MOL   H17726903   4.544   4.693   5.892  1.5643  1.1523  0.0549
   84MOL   C17826904   4.410   4.825   5.789 -0.8987  0.6679  0.4840
   84MOL   C17926905   4.287   4.813   5.884  0.0238  0.3712  1.0266
   84MOL   C18026906   4.291   4.725   5.996  0.2059  0.5373  1.3122
   84MOL   C18126907   4.187   4.722   6.084  0.4389  0.6161 -0.4913
   84MOL   C18226908   4.070   4.800   6.065  0.3022 -0.0141 -0.5240
   84MOL   F18326909   3.960   4.787   6.145 -0.5366 -0.2399  0.1452
   84MOL   C18426910   4.069   4.889   5.954  0.2522 -0.2133 -0.3053
   84MOL   C18526911   4.177   4.895   5.864 -0.6120 -0.2536 -0.0541
   84MOL   C18626912   4.482   4.952   5.829  0.7219  0.7650 -0.2750
   84MOL   H18726913   4.378   4.828   5.685  0.5944 -0.1551 -0.0069
   84MOL   H18826914   4.373   4.659   6.018  1.1776  0.5321 -2.0562
   84MOL   H18926915   4.184   4.659   6.172  1.1630  0.0604 -0.8589
   84MOL   H19026916   3.987   4.957   5.935  0.3072 -0.1342 -0.2593
   84MOL   H19126917   4.174   4.971   5.788 -1.6053  0.5404  0.7717
   84MOL   H19226918   4.561   4.965   5.755 -0.1686 -0.0483 -1.3777
   84MOL   H19326919   4.415   5.034   5.803  1.1546  0.6357 -1.8124
   84MOL   C19426920   4.522   4.965   5.980 -0.0265  0.1950 -0.4960
   84MOL   C19526921   4.674   4.974   5.989  0.0961 -0.1192  0.3129
   84MOL   C19626922   4.742   4.876   6.063  0.3904  0.5557  0.2179
   84MOL   C19726923   4.877   4.867   6.072  0.4139  0.2275 -0.5485
   84MOL   C19826924   4.950   4.968   6.010 -0.1681 -1.3952 -0.4621
   84MOL   F19926925   5.087   4.961   6.029  0.1131 -0.1996  0.1300
   84MOL   C20026926   4.891   5.078   5.942 -0.4215  0.2547  0.3142
   84MOL   C20126927   4.751   5.071   5.922  0.2372 -0.2706  0.4318
   84MOL   C20226928   4.460   5.085   6.049  0.2965 -0.6998 -0.4545
   84MOL   H20326929   4.488   4.881   6.041  2.5729 -1.5454 -1.3620
   84MOL   H20426930   4.679   4.811   6.120 -0.3569  2.0320  1.1114
   84MOL   H20526931   4.920   4.783   6.125  0.8872 -0.6003 -2.2392
   84MOL   H20626932   4.955   5.162   5.920  2.0562 -0.7384  3.2668
   84MOL   H20726933   4.698   5.151   5.873 -0.4726 -1.3779 -0.6244
   84MOL   H20826934   4.523   5.171   6.026 -1.6650  0.5973 -1.0667
   84MOL   H20926935   4.366   5.105   5.998  0.9897  0.7034 -1.2232
   84MOL   C21026936   4.412   5.074   6.200 -0.1411  0.1856  0.5408
   84MOL   C21126937   4.527   5.018   6.284  0.5270 -0.2940 -0.6372
   84MOL   C21226938   4.498   4.890   6.338 -0.6336  0.2892 -0.5778
   84MOL   C21326939   4.587   4.826   6.428 -0.7996 -0.0005  0.5385
   84MOL   C21426940   4.703   4.895   6.473 -0.2260  0.1332  0.1427
   84MOL   F21526941   4.786   4.838   6.565 -0.4955 -0.2197 -0.0578
   84MOL   C21626942   4.728   5.021   6.426  0.2094 -0.3229  0.4144
   84MOL   C21726943   4.644   5.080   6.324  0.3362 -0.1496 -0.0837
   84MOL   C21826944   4.376   5.213   6.241 -0.2421 -0.5597 -0.1368
   84MOL   H21926945   4.324   5.010   6.203  1.6748 -2.3858  0.7917
   84MOL   H22026946   4.402   4.844   6.321 -1.0097  0.4474  1.0260
   84MOL   H22126947   4.563   4.734   6.479 -1.2506  0.6535  1.5314
   84MOL   H22226948   4.812   5.060   6.481 -1.0247 -0.4598  2.4456
   84MOL   H22326949   4.657   5.182   6.291 -1.3669 -0.3126 -1.2933
   84MOL   H22426950   4.454   5.283   6.210 -2.1439  0.9276 -1.6497
   84MOL   H22526951   4.289   5.246   6.184 -0.8612  0.2100  1.2246
   84MOL   C22626952   4.335   5.240   6.393 -0.7088  0.0769 -0.4392
   84MOL   C22726953   4.325   5.391   6.417  0.8602 -0.0365  0.3108
   84MOL   C22826954   4.217   5.465   6.372 -0.3990  0.6144 -0.6337
   84MOL   C22926955   4.219   5.606   6.386 -0.3018  0.1462  0.1701
   84MOL   C23026956   4.320   5.663   6.470 -1.0320 -0.3337  0.8921
   84MOL   F23126957   4.321   5.801   6.489 -0.1141  0.6543 -0.3663
   84MOL   C23226958   4.409   5.583   6.537 -0.4643  0.1586 -0.3404
   84MOL   C23326959   4.421   5.451   6.502 -0.5369  0.3115  0.8794
   84MOL   C23426960   4.209   5.174   6.435  0.0836  0.0309 -0.1801
   84MOL   H23526961   4.414   5.203   6.458  1.1099  1.1511 -1.9743
   84MOL   H23626962   4.138   5.412   6.322  0.5341 -2.0201  0.5775
   84MOL   H23726963   4.145   5.670   6.340  1.1173  0.1862 -2.1269
   84MOL   H23826964   4.479   5.629   6.605 -1.2484  0.5466  0.2167
   84MOL   H23926965   4.502   5.391   6.543  1.1865  2.0715  0.1197
   84MOL   H24026966   4.136   5.243   6.478 -0.1646  0.5089 -1.3621
   84MOL   H24126967   4.159   5.151   6.341  0.5785  3.6520 -1.3735
   84MOL   C24226968   4.229   5.054   6.538 -0.5186  0.6033  0.1301
   84MOL   C24326969   4.282   5.105   6.672 -0.5958  0.1553 -0.5779
   84MOL   C24426970   4.205   5.182   6.756  0.3128 -0.4637  0.1308
   84MOL   C24526971   4.246   5.210   6.890  0.1785  0.5310  0.1734
   84MOL   C24626972   4.363   5.154   6.946 -0.1572  0.7888  0.0926
   84MOL   F24726973   4.387   5.172   7.077 -0.1660 -0.4927  0.0546
   84MOL   C24826974   4.447   5.068   6.859  1.0725  0.0902 -0.0144
   84MOL   C24926975   4.400   5.039   6.732  0.5294 -0.0445  0.6600
   84MOL   C25026976   4.099   4.972   6.556 -0.1659  0.3534 -0.3304
   84MOL   H25126977   4.300   4.980   6.499 -1.9234 -1.9200  2.1926
   84MOL   H25226978   4.113   5.230   6.727  0.8544  1.2618  1.2071
   84MOL   H25326979   4.171   5.247   6.959 -1.2273 -2.3219  0.2390
   84MOL   H25426980   4.538   5.021   6.893  0.8928 -0.6586 -0.5800
   84MOL   H25526981   4.450   4.960   6.677 -0.1168 -0.0596  0.0959
   84MOL   H25626982   4.033   5.036   6.614  2.7890  1.7208  1.6480
   84MOL   H25726983   4.062   4.940   6.459  1.1397 -1.3716 -0.2998
   84MOL   C25826984   4.111   4.837   6.636  0.3114  0.3011  0.3968
   84MOL   C25926985   3.979   4.767   6.648  0.5267  0.4146 -0.4451
   84MOL   C26026986   3.923   4.728   6.775  0.2635 -0.4168  0.1011
   84MOL   C26126987   3.815   4.644   6.792  0.6843  0.3676  0.3906
   84MOL   C26226988   3.739   4.615   6.670 -0.4159 -0.2626  0.0513
   84MOL   F26326989   3.627   4.543   6.675 -0.0612 -0.4714  0.3570
   84MOL   C26426990   3.786   4.657   6.539  0.3041 -0.3510 -0.5986
   84MOL   C26526991   3.909   4.726   6.538  0.1258 -0.0303 -0.5522
   84MOL   C26626992   4.220   4.742   6.584 -0.5157  0.3950 -0.1688
   84MOL   H26726993   4.143   4.863   6.737  0.4127  1.9366 -0.0393
   84MOL   H26826994   3.964   4.760   6.870 -2.2485 -1.4523  1.5722
   84MOL   H26926995   3.771   4.618   6.887 -0.6504 -1.4695 -0.6851
   84MOL   H27026996   3.725   4.649   6.450  0.5680  0.8486 -0.8946
   84MOL   H27126997   3.943   4.752   6.439  2.5510 -0.4338  0.1399
   84MOL   H27226998   4.203   4.735   6.476  0.5808  2.6217 -0.5130
   84MOL   H27326999   4.318   4.785   6.567 -0.1021 -1.0043 -1.4750
   84MOL   C27427000   4.226   4.602   6.647 -0.5973 -0.1185  1.0609
   84MOL   C27527001   4.169   4.498   6.554  1.0054  0.0104 -0.3055
   84MOL   C27627002   4.211   4.488   6.416  0.1596 -0.7478 -0.4778
   84MOL   C27727003   4.144   4.406   6.325  0.8312 -0.3378 -0.0387
   84MOL   C27827004   4.048   4.312   6.377 -0.0597  0.1804 -0.0338
   84MOL   F27927005   3.992   4.218   6.296 -0.2762 -0.2956  0.1807
   84MOL   C28027006   4.015   4.310   6.514 -0.4842 -0.4409  0.7996
   84MOL   C28127007   4.075   4.404   6.603 -0.0834 -1.3831  0.0865
   84MOL   C28227008   4.359   4.551   6.697  0.8610 -0.6637  0.5206
   84MOL   H28327009   4.162   4.580   6.733 -1.2425  0.0469  0.6238
   84MOL   H28427010   4.286   4.553   6.372  2.4473 -1.5293  2.1166
   84MOL   H28527011   4.180   4.407   6.224  0.3674  2.6298 -0.2170
   84MOL   H28627012   3.947   4.234   6.551  0.9030 -1.1850  1.8461
   84MOL   H28727013   4.048   4.405   6.708  0.5302  1.4574  0.2752
   84MOL   H28827014   4.357   4.442   6.710  3.4097 -0.8770 -0.6007
   84MOL   H28927015   4.435   4.563   6.621  0.8250 -1.3640  0.3696
   84MOL   C29027016   4.413   4.619   6.833 -0.2839  0.5016  0.1919
   84MOL   C29127017   4.322   4.586   6.959  0.8385 -0.0456  0.4040
   84MOL   C29227018   4.283   4.694   7.044 -0.3646  0.2392 -0.3495
   84MOL   C29327019   4.215   4.665   7.169  0.7677  0.1129 -0.1749
   84MOL   C29427020   4.180   4.534   7.194  0.3202 -0.3184  0.2598
   84MOL   F29527021   4.110   4.509   7.301  0.2119  0.2314  0.2258
   84MOL   C29627022   4.210   4.428   7.101  0.2122 -0.1977 -0.3886
   84MOL   C29727023   4.286   4.459   6.987 -0.0915 -0.7701 -0.2640
   84MOL   C29827024   4.558   4.557   6.852  0.5647 -0.0410  0.5561
   84MOL   H29927025   4.423   4.726   6.819  0.1635  0.2000 -2.0715
   84MOL   H30027026   4.297   4.797   7.016 -1.5149  0.7202  0.7914
   84MOL   H30127027   4.179   4.740   7.237 -0.2389 -1.8805  1.5511
   84MOL   H30227028   4.181   4.327   7.126 -0.2030  0.2452  0.9335
   84MOL   H30327029   4.315   4.393   6.907 -0.3387  0.6103 -1.5091
   84MOL   H30427030   4.549   4.449   6.847 -1.3811  0.1352 -0.0958
   84MOL   H30527031   4.608   4.592   6.762  2.2455  2.2756  2.3207
   84MOL   C30627032   4.637   4.590   6.983 -0.5064  0.4708  0.5221
   84MOL   C30727033   4.778   4.534   6.967 -0.4872 -0.1681  0.2943
   84MOL   C30827034   4.857   4.563   6.850  0.1967 -0.5237  0.0549
   84MOL   C30927035   4.990   4.516   6.839  0.0297  0.3951  0.2533
   84MOL   C31027036   5.051   4.446   6.943  0.1865 -0.1686  0.0205
   84MOL   F31127037   5.181   4.416   6.937 -0.4559 -0.4627  0.0817
   84MOL   C31227038   4.971   4.415   7.059 -0.0362 -0.1005  0.3423
   84MOL   C31327039   4.835   4.462   7.073  0.1154 -0.3326 -0.7899
   84MOL   C31427040   4.637   4.740   7.009 -0.6407 -0.6384  0.8938
   84MOL   H31527041   4.591   4.537   7.066 -0.0858  0.2845  0.6313
   84MOL   H31627042   4.817   4.633   6.778 -0.1643 -0.5799  0.1995
   84MOL   H31727043   5.049   4.536   6.751  0.7868 -0.2080  0.6111
   84MOL   H31827044   5.014   4.373   7.148 -1.1475 -1.3903  0.2800
   84MOL   H31927045   4.784   4.456   7.168  1.8500 -0.5506  0.1477
   84MOL   H32027046   4.540   4.788   7.023  0.0903  0.9464  0.6218
   84MOL   H32127047   4.686   4.767   7.103  0.6846 -0.0894  0.0569
   84MOL   H32227048   4.684   4.780   6.919 -2.3443  1.3650  0.8721
   85MOL     C127049   4.756   7.940   1.101  0.1096  0.2272 -0.2394
   85MOL     C227050   4.635   7.856   1.134 -0.0818  0.0868 -0.0539
   85MOL     C327051   4.574   7.868   1.262  0.1531  0.0909 -0.4676
   85MOL     C427052   4.460   7.786   1.291  0.3010  0.1710 -0.2277
   85MOL     C527053   4.414   7.690   1.196 -0.5867  0.2979 -1.0254
   85MOL     F627054   4.314   7.613   1.220  0.4039 -0.4682  0.0377
   85MOL     C727055   4.477   7.680   1.075  0.3830  0.0165 -0.4985
   85MOL     C827056   4.591   7.757   1.042  0.2346 -1.0410  0.2964
   85MOL     C927057   4.745   8.037   0.982  0.3179 -0.1721  0.1171
   85MOL    H1027058   4.850   7.891   1.076 -0.3655 -0.5744 -0.4887
   85MOL    H1127059   4.608   7.934   1.340  0.2687 -0.7719  0.2226
   85MOL    H1227060   4.401   7.795   1.380  2.2496  1.4074  0.9694
   85MOL    H1327061   4.439   7.613   0.999  2.2664 -0.1627 -1.3104
   85MOL    H1427062   4.644   7.736   0.950  0.7937  1.6307 -0.0582
   85MOL    H1527063   4.704   7.994   0.891 -2.4909  1.5072  0.5158
   85MOL    H1627064   4.668   8.110   1.008  1.4442  0.8557  0.6004
   85MOL    H1727065   4.782   7.998   1.189 -3.3106  0.1892  0.8672
   85MOL    C1827066   4.875   8.120   0.959  0.6330  0.1829 -0.3583
   85MOL    C1927067   5.001   8.042   0.916 -0.2388  0.3922 -0.1210
   85MOL    C2027068   4.999   7.955   0.799  1.0819 -0.4503 -0.0308
   85MOL    C2127069   5.118   7.890   0.763 -0.5584 -0.2837 -0.5932
   85MOL    C2227070   5.230   7.900   0.842 -0.1684 -0.1579  0.2941
   85MOL    F2327071   5.340   7.820   0.811  0.4119 -0.0348 -0.4028
   85MOL    C2427072   5.229   7.980   0.954  0.4860  0.4944  0.0602
   85MOL    C2527073   5.118   8.059   0.989  0.0756  0.2477 -0.3504
   85MOL    C2627074   4.838   0.002   0.855  0.7845 -0.4128 -0.7624
   85MOL    H2727075   4.892   8.169   1.055  0.7623  0.2843 -0.4336
   85MOL    H2827076   4.917   7.943   0.730  1.7269 -3.2883 -0.3387
   85MOL    H2927077   5.122   7.832   0.672  1.6168  1.5922 -1.7171
   85MOL    H3027078   5.318   7.992   1.014  0.3332 -0.0792  0.4086
   85MOL    H3127079   5.136   8.128   1.071  1.3717  1.0083 -1.2633
   85MOL    H3227080   4.814   8.215   0.751  0.4065  1.4084 -1.0773
   85MOL    H3327081   4.743   0.040   0.893  1.5429  0.6194  0.1412
   85MOL    C3427082   4.940   0.126   0.867 -0.8022 -0.9424  0.3704
   85MOL    C3527083   5.071   0.103   0.792  0.3435  0.2725  0.5152
   85MOL    C3627084   5.193   0.100   0.862 -0.0616 -0.3220 -1.3594
   85MOL    C3727085   5.316   0.105   0.794  0.6273 -0.1771  0.4811
   85MOL    C3827086   5.317   0.112   0.656  0.0230  0.0660 -0.0865
   85MOL    F3927087   5.436   0.103   0.592 -0.3959 -0.0176 -0.3604
   85MOL    C4027088   5.195   0.110   0.585  0.3178  0.1363  0.0307
   85MOL    C4127089   5.069   0.102   0.650 -0.6851  0.1683  0.1916
   85MOL    C4227090   4.870   0.264   0.840 -0.1574  0.4479 -0.4478
   85MOL    H4327091   4.950   0.133   0.976  1.9292 -0.5815  0.1216
   85MOL    H4427092   5.193   0.098   0.970 -0.2503 -1.4741 -1.3692
   85MOL    H4527093   5.411   0.093   0.846  0.5586  0.8275  0.8469
   85MOL    H4627094   5.206   0.112   0.478  1.2417 -0.8068  0.1037
   85MOL    H4727095   4.971   0.095   0.605 -2.2204 -1.7952  3.5951
   85MOL    H4827096   4.824   0.253   0.742 -0.1260 -1.3613 -0.2647
   85MOL    H4927097   4.786   0.276   0.909 -0.2803 -0.3401 -0.4590
   85MOL    C5027098   4.970   0.388   0.833  0.1556 -0.0834 -0.0576
   85MOL    C5127099   4.880   0.510   0.802 -0.0826  0.1376  0.6251
   85MOL    C5227100   4.759   0.548   0.868  1.0191 -0.0850 -0.6298
   85MOL    C5327101   4.701   0.674   0.840  0.2721  0.3841  0.3287
   85MOL    C5427102   4.757   0.756   0.746  0.0186 -0.5362  0.4990
   85MOL    F5527103   4.707   0.879   0.727 -0.1316  0.3860  0.0045
   85MOL    C5627104   4.871   0.721   0.675  0.6173  0.1902 -0.6296
   85MOL    C5727105   4.936   0.601   0.702 -0.1501  0.2105 -0.4681
   85MOL    C5827106   5.053   0.425   0.960  0.3889 -0.4411  0.4495
   85MOL    H5927107   5.040   0.365   0.752 -1.2389 -2.1262 -0.7366
   85MOL    H6027108   4.708   0.475   0.929 -0.0716 -0.5572 -2.0701
   85MOL    H6127109   4.620   0.701   0.905 -1.5665  0.8127 -2.0895
   85MOL    H6227110   4.910   0.782   0.594  3.0725  0.7470  0.9332
   85MOL    H6327111   5.019   0.583   0.636 -0.1800  1.7935 -0.9489
   85MOL    H6427112   4.991   0.447   1.046 -0.8874 -2.6956  0.1492
   85MOL    H6527113   5.111   0.340   0.998  1.1641 -0.5513 -0.9522
   85MOL    C6627114   5.164   0.535   0.941  0.1599 -0.1368  0.1229
   85MOL    C6727115   5.209   0.587   1.077  0.4210  0.3002  0.0878
   85MOL    C6827116   5.257   0.495   1.176 -0.2533 -0.0278 -0.7512
   85MOL    C6927117   5.281   0.540   1.303  0.2721 -0.0356  0.3812
   85MOL    C7027118   5.283   0.677   1.334  0.1336 -0.6304 -0.2595
   85MOL    F7127119   5.312   0.731   1.454  0.6079 -0.1411 -0.3724
   85MOL    C7227120   5.243   0.771   1.240 -0.1951  0.6117 -0.6389
   85MOL    C7327121   5.193   0.725   1.117  0.3418  0.4232  0.3509
   85MOL    C7427122   5.286   0.492   0.847  0.8772  0.8566 -0.8354
   85MOL    H7527123   5.104   0.615   0.898 -0.1154 -0.9282 -0.9584
   85MOL    H7627124   5.266   0.389   1.157 -2.9629 -0.1649 -1.5685
   85MOL    H7727125   5.319   0.474   1.380  2.9370 -1.8554 -2.3969
   85MOL    H7827126   5.249   0.876   1.264  0.5627  0.5358 -0.4928
   85MOL    H7927127   5.156   0.796   1.045 -0.9835 -1.5380 -0.9798
   85MOL    H8027128   5.365   0.437   0.898 -0.2184 -0.4143 -0.4865
   85MOL    H8127129   5.246   0.410   0.787  2.9945 -0.1449 -0.9179
   85MOL    C8227130   5.339   0.606   0.758 -0.0854  0.8964 -0.4080
   85MOL    C8327131   5.411   0.716   0.840  0.1633  1.0777 -0.5570
   85MOL    C8427132   5.347   0.837   0.864 -0.3068 -0.2614  1.0426
   85MOL    C8527133   5.416   0.942   0.923 -0.1067 -0.4362 -0.4211
   85MOL    C8627134   5.555   0.931   0.959  0.1832 -0.0669 -0.0286
   85MOL    F8727135   5.613   1.038   1.021 -0.1319 -0.2389  0.3705
   85MOL    C8827136   5.623   0.809   0.934  0.4997 -0.0707 -0.6747
   85MOL    C8927137   5.552   0.703   0.874  0.1263  0.4682 -0.0088
   85MOL    C9027138   5.420   0.531   0.637 -0.1075  0.1229  0.7653
   85MOL    H9127139   5.247   0.636   0.707 -1.2975 -0.7142  0.7469
   85MOL    H9227140   5.243   0.848   0.839 -0.2504  1.6103  1.5771
   85MOL    H9327141   5.358   1.033   0.935  1.1031  0.3523 -0.3911
   85MOL    H9427142   5.725   0.799   0.967 -0.5507 -0.8558  2.5830
   85MOL    H9527143   5.613   0.617   0.851 -1.9220 -1.1939  0.6036
   85MOL    H9627144   5.502   0.474   0.679 -0.7791 -0.7325  0.9190
   85MOL    H9727145   5.353   0.458   0.591  2.1208 -0.6971 -1.2545
   85MOL    C9827146   5.491   0.616   0.518  0.2646  0.0217  0.2586
   85MOL    C9927147   5.433   0.756   0.507 -0.3097 -0.1937  0.2445
   85MOL   C10027148   5.505   0.872   0.543  0.3616 -1.1054  0.5211
   85MOL   C10127149   5.446   0.999   0.533 -0.3342  0.2784 -0.6777
   85MOL   C10227150   5.312   1.008   0.503  0.4289 -0.6358 -0.5357
   85MOL   F10327151   5.246   1.126   0.508  0.4171  0.2128  0.1070
   85MOL   C10427152   5.235   0.891   0.472  0.6126  0.5330  0.1387
   85MOL   C10527153   5.296   0.764   0.467  0.3585 -0.1617 -0.1024
   85MOL   C10627154   5.643   0.617   0.529 -0.2636  0.2414  0.1145
   85MOL   H10727155   5.468   0.557   0.430  0.0798  1.1116 -0.4343
   85MOL   H10827156   5.606   0.866   0.580  0.6080 -2.4248 -0.3208
   85MOL   H10927157   5.498   1.086   0.569 -0.5119 -0.0579  0.4133
   85MOL   H11027158   5.130   0.908   0.456  0.2823 -1.8393 -0.3213
   85MOL   H11127159   5.237   0.677   0.441  0.0106 -0.4490  1.6210
   85MOL   H11227160   5.689   0.697   0.471  0.2181  1.1424  1.7329
   85MOL   H11327161   5.661   0.643   0.633 -0.3007  0.2186  0.1268
   85MOL   C11427162   5.717   0.480   0.510 -0.7445  0.1680 -0.3304
   85MOL   C11527163   5.687   0.428   0.362 -0.0316  0.2633 -0.4704
   85MOL   C11627164   5.710   0.505   0.244 -0.0015  0.0944 -0.6090
   85MOL   C11727165   5.680   0.451   0.114 -0.3719  0.1636 -0.0281
   85MOL   C11827166   5.632   0.321   0.105  0.2995 -0.1885 -0.1006
   85MOL   F11927167   5.609   0.258   8.223  0.0806  0.1046 -0.0971
   85MOL   C12027168   5.607   0.248   0.221 -0.0915  0.2741  0.7928
   85MOL   C12127169   5.622   0.304   0.350 -0.2066  0.3608  0.7039
   85MOL   C12227170   5.871   0.503   0.521 -0.2181 -0.2592  0.5216
   85MOL   H12327171   5.691   0.406   0.585 -0.8366  0.9705  0.4329
   85MOL   H12427172   5.761   0.600   0.246  2.6455 -1.2337 -2.5054
   85MOL   H12527173   5.709   0.508   0.027 -0.4202 -1.3773 -1.0841
   85MOL   H12627174   5.569   0.148   0.215 -1.4795  0.6766  2.3955
   85MOL   H12727175   5.588   0.252   0.438  0.9226 -0.2058  0.8060
   85MOL   H12827176   5.911   0.408   0.487 -1.7090 -1.6404  2.4983
   85MOL   H12927177   5.901   0.590   0.462 -2.5250 -0.1042 -0.5017
   85MOL   C13027178   5.923   0.537   0.664  0.7334  0.1508  0.3042
   85MOL   C13127179   5.905   0.422   0.766 -0.4458  0.4483  1.8098
   85MOL   C13227180   5.952   0.294   0.737  0.1415  0.0712 -0.2084
   85MOL   C13327181   5.941   0.195   0.830  0.4703  0.3907  0.0876
   85MOL   C13427182   5.890   0.226   0.958 -0.4092 -1.2077  0.3803
   85MOL   F13527183   5.873   0.130   1.049  0.0852 -0.3231  0.1388
   85MOL   C13627184   5.837   0.346   0.984  0.2494 -0.2916 -0.4296
   85MOL   C13727185   5.839   0.442   0.886 -0.4048  0.0775  0.5487
   85MOL   C13827186   6.079   0.578   0.670 -0.0256  0.0060  0.0078
   85MOL   H13927187   5.873   0.630   0.695 -0.1504 -0.5751  1.0927
   85MOL   H14027188   5.997   0.276   0.640 -0.7721  1.7314 -0.9710
   85MOL   H14127189   5.981   0.098   0.805 -1.1518 -0.1552 -0.4510
   85MOL   H14227190   5.801   0.373   1.082  2.8442  1.1427  0.1796
   85MOL   H14327191   5.812   0.543   0.913  0.1738  0.8114 -1.5044
   85MOL   H14427192   6.136   0.511   0.606 -0.0199 -1.5701  1.6380
   85MOL   H14527193   6.090   0.672   0.616 -1.1143  1.3776  2.0827
   85MOL   C14627194   6.143   0.590   0.810  0.2298 -0.5237 -0.1053
   85MOL   C14727195   6.294   0.566   0.807 -0.1362 -0.2194  0.7533
   85MOL   C14827196   6.375   0.667   0.760 -0.9079  0.0053  0.2798
   85MOL   C14927197   6.515   0.669   0.785  0.6186 -0.2769 -0.0119
   85MOL   C15027198   6.577   0.570   0.862  0.2629  0.4570  0.3763
   85MOL   F15127199   6.707   0.566   0.893 -0.3373  0.0293 -0.1861
   85MOL   C15227200   6.496   0.469   0.911  0.4290 -0.1477  0.0623
   85MOL   C15327201   6.355   0.467   0.883 -0.4877 -0.2865  0.5472
   85MOL   C15427202   6.099   0.729   0.859 -0.8259  0.1228 -0.2277
   85MOL   H15527203   6.109   0.515   0.880 -0.9749  1.4159  1.4536
   85MOL   H15627204   6.334   0.755   0.713  0.8471  0.7997  0.1662
   85MOL   H15727205   6.567   0.750   0.735  0.0989 -1.4549 -2.5626
   85MOL   H15827206   6.538   0.388   0.968 -0.6579 -2.5759 -2.4770
   85MOL   H15927207   6.300   0.384   0.924 -0.6720 -1.1290 -1.3689
   85MOL   H16027208   6.121   0.807   0.787 -1.1555  1.2576  0.8891
   85MOL   H16127209   5.991   0.733   0.869 -0.9145  1.0228 -1.5926
   85MOL   C16227210   6.168   0.791   0.984 -0.1306  0.2840  0.1984
   85MOL   C16327211   6.137   0.935   0.975  0.3143 -0.4295  0.1937
   85MOL   C16427212   6.240   1.034   0.942 -0.2688  0.1077  0.5696
   85MOL   C16527213   6.210   1.174   0.940  0.2085 -0.2410  0.4554
   85MOL   C16627214   6.082   1.214   0.973 -0.3012  0.1610 -0.0556
   85MOL   F16727215   6.063   1.351   0.971 -0.3506  0.0255  0.2280
   85MOL   C16827216   5.982   1.119   1.001  0.0285 -0.5105 -0.7346
   85MOL   C16927217   6.005   0.981   1.006  0.9383 -0.9199 -0.6498
   85MOL   C17027218   6.126   0.723   1.118 -0.3141  0.2486 -0.3063
   85MOL   H17127219   6.277   0.786   0.978 -0.0758  1.3590  0.1960
   85MOL   H17227220   6.341   1.004   0.920 -0.8391 -1.5151  0.0067
   85MOL   H17327221   6.284   1.251   0.927  0.0390 -0.0970  0.3357
   85MOL   H17427222   5.885   1.163   1.019  0.8785  1.8691 -1.7188
   85MOL   H17527223   5.919   0.919   1.022 -0.8016  1.6237  0.2308
   85MOL   H17627224   6.038   0.781   1.145 -0.3311  0.3530 -0.5838
   85MOL   H17727225   6.103   0.617   1.108  0.8112 -0.1144  0.9331
   85MOL   C17827226   6.230   0.741   1.246 -0.5231 -0.0450  0.7367
   85MOL   C17927227   6.274   0.884   1.272  0.1825 -0.8932 -0.3357
   85MOL   C18027228   6.183   0.976   1.323 -0.0153 -0.4240 -0.1824
   85MOL   C18127229   6.218   1.111   1.359  0.3117  0.3320 -0.0441
   85MOL   C18227230   6.357   1.148   1.338  0.4981 -0.3004  0.7301
   85MOL   F18327231   6.392   1.279   1.351 -0.3795  0.1471  0.2183
   85MOL   C18427232   6.447   1.057   1.285  0.0116 -0.3937  0.1382
   85MOL   C18527233   6.405   0.925   1.248  0.1484 -0.4528  0.4715
   85MOL   C18627234   6.192   0.671   1.379  0.3352  0.0073 -0.3791
   85MOL   H18727235   6.323   0.697   1.211  0.1051  1.5376  0.3623
   85MOL   H18827236   6.082   0.942   1.337  0.3583 -0.5904  2.4295
   85MOL   H18927237   6.152   1.183   1.405  0.1500 -0.5129  1.0582
   85MOL   H19027238   6.545   1.099   1.268  0.7159 -1.1392  2.2019
   85MOL   H19127239   6.476   0.862   1.197  0.3021  0.0912  0.0143
   85MOL   H19227240   6.274   0.686   1.449  0.3299 -3.0276  0.3627
   85MOL   H19327241   6.104   0.721   1.418 -0.1444 -0.4801 -0.8203
   85MOL   C19427242   6.152   0.524   1.362  0.7115 -0.0459 -0.0231
   85MOL   C19527243   6.259   0.438   1.296 -0.1200 -0.1365 -0.0047
   85MOL   C19627244   6.217   0.341   1.199 -0.0730 -0.0657  0.1334
   85MOL   C19727245   6.309   0.251   1.146 -0.1539  0.8651 -0.0944
   85MOL   C19827246   6.438   0.256   1.189 -0.6355 -0.5231 -0.4052
   85MOL   F19927247   6.526   0.170   1.130  0.2204  0.0878 -0.7017
   85MOL   C20027248   6.479   0.350   1.286  0.2622  0.3599 -0.1845
   85MOL   C20127249   6.389   0.439   1.348  0.3374 -0.9087  0.4743
   85MOL   C20227250   6.112   0.484   1.508  0.2945 -0.5231 -0.0254
   85MOL   H20327251   6.062   0.526   1.301 -0.0031  2.6808  1.0326
   85MOL   H20427252   6.111   0.340   1.178 -0.5689 -1.7606  2.5181
   85MOL   H20527253   6.275   0.174   1.078 -0.2438 -0.4215  1.3985
   85MOL   H20627254   6.580   0.348   1.324 -0.5660 -0.5915  2.0484
   85MOL   H20727255   6.418   0.518   1.416 -0.3585  1.6349 -2.0975
   85MOL   H20827256   6.197   0.491   1.576  0.1906  1.0146 -0.0294
   85MOL   H20927257   6.029   0.546   1.543 -0.5024 -1.0606 -0.9305
   85MOL   C21027258   6.056   0.339   1.530  0.2381  0.3541  0.0355
   85MOL   C21127259   6.069   0.283   1.671  0.0799 -0.4146 -0.1323
   85MOL   C21227260   6.009   0.340   1.783  0.4013 -0.0600  0.3275
   85MOL   C21327261   6.019   0.277   1.911  0.2659  0.3071  0.3089
   85MOL   C21427262   6.091   0.156   1.923  0.7760  0.1470 -0.7061
   85MOL   F21527263   6.114   0.109   2.041 -0.0972 -0.2095 -0.1344
   85MOL   C21627264   6.131   0.085   1.807  0.0159 -0.4019  0.4870
   85MOL   C21727265   6.127   0.155   1.684  0.4009 -0.0246 -0.3236
   85MOL   C21827266   5.908   0.319   1.481  0.0142 -0.0692  0.2757
   85MOL   H21927267   6.131   0.279   1.478  0.5986 -2.2063  3.3164
   85MOL   H22027268   5.953   0.431   1.768  2.0701  1.1407  1.1004
   85MOL   H22127269   5.978   0.324   1.999 -1.1555  1.2633 -0.8504
   85MOL   H22227270   6.190   8.229   1.813  0.0399 -0.3034  1.7843
   85MOL   H22327271   6.178   0.117   1.597  0.5160 -1.7252  0.4696
   85MOL   H22427272   5.847   0.394   1.531  1.8279  0.5597  1.5675
   85MOL   H22527273   5.899   0.352   1.377  0.8397  2.3805  0.9465
   85MOL   C22627274   5.857   0.171   1.498  0.3546  0.3258 -0.4810
   85MOL   C22727275   5.705   0.168   1.494 -0.8490 -0.8174 -0.3387
   85MOL   C22827276   5.633   0.121   1.607  0.1072  0.8929 -0.6953
   85MOL   C22927277   5.494   0.109   1.601  0.2703 -0.1749  0.3600
   85MOL   C23027278   5.428   0.145   1.482  1.0272  0.4692  0.3497
   85MOL   F23127279   5.297   0.115   1.470  0.5018 -0.4377  0.0388
   85MOL   C23227280   5.493   0.206   1.373 -0.1253  0.2711 -0.0345
   85MOL   C23327281   5.632   0.207   1.376 -0.4533 -0.6502 -0.1808
   85MOL   C23427282   5.921   0.079   1.401 -0.2201  0.6074 -0.4140
   85MOL   H23527283   5.885   0.144   1.600  0.1512 -0.1930 -0.5608
   85MOL   H23627284   5.684   0.088   1.696  1.2627 -1.0492 -2.0137
   85MOL   H23727285   5.430   0.069   1.678 -1.6334  0.3867 -0.9068
   85MOL   H23827286   5.436   0.241   1.288  0.5274  0.6918 -0.3010
   85MOL   H23927287   5.689   0.243   1.292  0.1664  0.2067  0.5999
   85MOL   H24027288   5.862   0.083   1.309 -0.5639 -2.0118 -0.3449
   85MOL   H24127289   6.019   0.118   1.376  0.3173  0.2962  1.1631
   85MOL   C24227290   5.938   8.162   1.437 -0.2296 -0.1592  0.3647
   85MOL   C24327291   5.812   8.085   1.391 -0.3772 -0.3757  0.2049
   85MOL   C24427292   5.718   8.041   1.484  0.2818 -0.5763 -0.0907
   85MOL   C24527293   5.597   7.983   1.441  0.7934 -0.0447 -0.5735
   85MOL   C24627294   5.576   7.961   1.306  0.2720  0.3038 -0.0369
   85MOL   F24727295   5.458   7.911   1.254  0.2681 -0.7807 -0.0734
   85MOL   C24827296   5.676   7.990   1.215 -0.2413 -0.4810 -0.1969
   85MOL   C24927297   5.794   8.058   1.254  0.1337 -0.3315  0.5676
   85MOL   C25027298   6.060   8.085   1.390  0.3001  0.6863  0.0687
   85MOL   H25127299   5.936   8.145   1.545 -0.3972  1.2455  0.5988
   85MOL   H25227300   5.737   8.046   1.591  0.4961 -0.9944 -0.1100
   85MOL   H25327301   5.526   7.952   1.516 -0.3970  0.8279 -1.3091
   85MOL   H25427302   5.662   7.974   1.109  3.3984  3.0179 -1.3214
   85MOL   H25527303   5.862   8.069   1.171 -1.2995  1.4530 -0.3951
   85MOL   H25627304   6.049   8.090   1.282  2.0489  0.0836 -0.1663
   85MOL   H25727305   6.161   8.124   1.402  0.3528  0.1160  1.7443
   85MOL   C25827306   6.076   7.934   1.446  0.3266 -0.5350 -0.5817
   85MOL   C25927307   6.186   7.860   1.371 -0.3548 -0.2038 -0.2376
   85MOL   C26027308   6.160   7.734   1.312 -0.5919  0.2061 -0.4641
   85MOL   C26127309   6.263   7.666   1.241  0.5795  0.2918  0.9794
   85MOL   C26227310   6.394   7.724   1.237  0.0942 -0.1436  0.2499
   85MOL   F26327311   6.501   7.659   1.175  0.0532 -0.3483  0.6215
   85MOL   C26427312   6.414   7.851   1.292 -0.2791 -0.2391 -0.8179
   85MOL   C26527313   6.313   7.922   1.357  0.5230 -0.2735  0.0989
   85MOL   C26627314   6.104   7.933   1.604  0.1250 -0.6099 -0.7911
   85MOL   H26727315   5.985   7.881   1.418 -0.2345  0.8306 -1.4063
   85MOL   H26827316   6.067   7.680   1.322  0.7243 -1.7359  2.1606
   85MOL   H26927317   6.244   7.572   1.192 -0.3000  0.8935  0.1470
   85MOL   H27027318   6.512   7.898   1.292 -1.2834  1.9139 -1.3246
   85MOL   H27127319   6.332   8.014   1.410  0.6461 -0.9748  1.2866
   85MOL   H27227320   6.157   8.021   1.640 -0.3497 -0.4829 -0.3760
   85MOL   H27327321   6.012   7.950   1.661  0.6685 -1.2438  0.2845
   85MOL   C27427322   6.181   7.813   1.659 -0.5772  0.4823  0.0793
   85MOL   C27527323   6.334   7.828   1.664 -0.0019  0.2559 -0.0001
   85MOL   C27627324   6.385   7.938   1.726 -0.4587 -0.1611  0.1127
   85MOL   C27727325   6.525   7.956   1.744 -0.1201 -0.1313  0.5522
   85MOL   C27827326   6.616   7.861   1.690  0.4726  0.6348  0.3938
   85MOL   F27927327   6.748   7.879   1.685 -0.1025 -0.1489 -0.4352
   85MOL   C28027328   6.563   7.752   1.621  0.1515  0.3323  0.2422
   85MOL   C28127329   6.424   7.721   1.613  0.2958  0.1298  1.0814
   85MOL   C28227330   6.130   7.760   1.800 -0.5263 -0.5455 -0.2590
   85MOL   H28327331   6.169   7.732   1.587  1.4987  0.3438 -0.1433
   85MOL   H28427332   6.316   8.013   1.761 -0.7634 -0.5324  0.3186
   85MOL   H28527333   6.569   8.045   1.787 -0.5123  0.3449 -0.0315
   85MOL   H28627334   6.640   7.695   1.571  1.2643 -1.0295  3.3824
   85MOL   H28727335   6.391   7.635   1.555 -1.3449 -1.1901  3.8807
   85MOL   H28827336   6.185   7.672   1.830 -0.3711  0.2406  1.8470
   85MOL   H28927337   6.157   7.837   1.872  0.3364  0.2375 -1.3898
   85MOL   C29027338   5.984   7.716   1.802  0.8884  0.8120 -0.8811
   85MOL   C29127339   5.934   7.633   1.689 -0.3242 -0.1781  0.6450
   85MOL   C29227340   5.824   7.665   1.600 -0.1500  0.3385  0.3485
   85MOL   C29327341   5.797   7.590   1.482  0.5174 -0.6049  0.1618
   85MOL   C29427342   5.869   7.477   1.451  0.0462 -0.2526  0.5952
   85MOL   F29527343   5.832   7.403   1.344 -0.0642  0.1274 -0.2815
   85MOL   C29627344   5.981   7.443   1.530 -0.0486 -0.3505  0.4546
   85MOL   C29727345   6.014   7.524   1.646  0.2698  0.4894 -0.6466
   85MOL   C29827346   5.941   7.656   1.939 -0.7829 -0.5691  0.2736
   85MOL   H29927347   5.925   7.806   1.783 -1.4494 -0.4692  0.1108
   85MOL   H30027348   5.750   7.737   1.631  0.3343  0.5891  0.9445
   85MOL   H30127349   5.714   7.627   1.426  0.8593 -0.6582 -0.3836
   85MOL   H30227350   6.035   7.351   1.512 -0.7840 -0.5098 -1.0418
   85MOL   H30327351   6.091   7.493   1.715 -0.8689 -0.6561  0.1496
   85MOL   H30427352   5.844   7.605   1.931 -0.9636 -0.4171  1.4435
   85MOL   H30527353   6.008   7.577   1.974  0.3836 -0.4161 -1.5331
   85MOL   C30627354   5.917   7.762   2.049  0.0703  0.1083  0.2980
   85MOL   C30727355   5.810   7.866   2.016  0.3853  0.3088 -0.6629
   85MOL   C30827356   5.672   7.831   2.030  0.0922  0.1826 -0.2849
   85MOL   C30927357   5.578   7.926   2.006  0.1066 -0.5870  0.3962
   85MOL   C31027358   5.618   8.061   1.966  0.1480 -0.4943  0.0817
   85MOL   F31127359   5.529   8.151   1.941 -0.1948  0.7781 -0.0699
   85MOL   C31227360   5.752   8.095   1.955 -0.5303 -0.3087 -0.6136
   85MOL   C31327361   5.848   7.997   1.971 -0.1351  0.4143 -0.2149
   85MOL   C31427362   5.896   7.678   2.175  0.5432 -0.0110 -0.1798
   85MOL   H31527363   6.001   7.830   2.065 -0.1942  0.6397 -0.5616
   85MOL   H31627364   5.643   7.731   2.060  1.0630  0.0257  0.1359
   85MOL   H31727365   5.472   7.909   2.010  0.2591 -2.1448 -1.6608
   85MOL   H31827366   5.777   8.198   1.932  1.1726 -0.4312  0.5949
   85MOL   H31927367   5.954   8.014   1.975  0.3898 -2.7316  0.9774
   85MOL   H32027368   5.821   7.601   2.157 -0.0551  0.5866 -0.2332
   85MOL   H32127369   5.992   7.640   2.211  0.8769  1.8244  0.8932
   85MOL   H32227370   5.856   7.742   2.253  2.9788  0.0478  1.0693
   86MOL     C127371   4.205   4.178   5.332  0.5179  0.2528  0.0802
   86MOL     C227372   4.274   4.149   5.459  0.0941  0.6670 -1.1584
   86MOL     C327373   4.273   4.243   5.559 -0.5832 -0.4526 -0.1692
   86MOL     C427374   4.336   4.213   5.683 -0.5017 -0.1378 -0.3951
   86MOL     C527375   4.398   4.087   5.710  0.0812  0.2972  0.3546
   86MOL     F627376   4.448   4.053   5.834 -0.0468  0.4407  0.1270
   86MOL     C727377   4.399   3.996   5.606  0.5276 -0.5023 -0.2818
   86MOL     C827378   4.334   4.019   5.481  0.1038 -0.9233  0.4994
   86MOL     C927379   4.294   4.172   5.212  0.8639 -0.2510 -0.5356
   86MOL    H1027380   4.165   4.279   5.330  1.3773  0.5830 -0.7865
   86MOL    H1127381   4.230   4.341   5.548  1.1334  0.4374  0.9029
   86MOL    H1227382   4.322   4.283   5.764 -1.1505 -1.4451  0.6484
   86MOL    H1327383   4.446   3.900   5.619  1.7198 -0.0940 -1.5289
   86MOL    H1427384   4.337   3.946   5.401 -2.9335  0.6714 -1.1494
   86MOL    H1527385   4.370   4.249   5.221  0.1805  0.3984 -0.2391
   86MOL    H1627386   4.352   4.080   5.223 -1.1367 -1.3591  1.1241
   86MOL    H1727387   4.115   4.118   5.325 -0.5683  1.9399 -0.7050
   86MOL    C1827388   4.233   4.175   5.071 -0.9788 -0.4720  0.2316
   86MOL    C1927389   4.122   4.284   5.053 -0.1155 -0.8874  0.3367
   86MOL    C2027390   4.006   4.263   4.976 -0.1818 -0.5432  0.3168
   86MOL    C2127391   3.911   4.362   4.956  0.2887  0.6216 -0.4376
   86MOL    C2227392   3.926   4.481   5.020 -0.6963  0.3259 -0.2468
   86MOL    F2327393   3.839   4.583   4.999  0.4789  0.3153  0.4726
   86MOL    C2427394   4.040   4.509   5.102  0.4437  0.1597  0.0263
   86MOL    C2527395   4.141   4.412   5.106 -0.9064 -0.9033  0.7953
   86MOL    C2627396   4.339   4.188   4.955 -0.6738 -0.1284  0.3509
   86MOL    H2727397   4.174   4.085   5.053 -2.4374  0.4893  0.1467
   86MOL    H2827398   3.996   4.166   4.929 -3.1504  0.6391 -1.6751
   86MOL    H2927399   3.827   4.349   4.890 -0.4718 -1.0085  0.8423
   86MOL    H3027400   4.050   4.604   5.152  0.5840 -0.0263  0.3488
   86MOL    H3127401   4.235   4.425   5.159 -0.2371  1.8478 -0.9997
   86MOL    H3227402   4.285   4.231   4.870 -0.7354  2.6895  1.7561
   86MOL    H3327403   4.399   4.268   4.999 -1.8174 -1.3626  4.3753
   86MOL    C3427404   4.421   4.058   4.936 -0.1055 -0.6539 -0.2296
   86MOL    C3527405   4.331   3.953   4.865  0.0324 -0.6358  0.2483
   86MOL    C3627406   4.284   3.837   4.934  0.0820  0.0459 -0.1363
   86MOL    C3727407   4.189   3.748   4.878  0.0503 -0.5992 -0.9815
   86MOL    C3827408   4.153   3.768   4.749 -0.0865  0.0118 -0.2934
   86MOL    F3927409   4.070   3.677   4.690 -0.0528 -0.1552 -0.3942
   86MOL    C4027410   4.204   3.872   4.670  0.2066 -0.4172  0.6689
   86MOL    C4127411   4.288   3.963   4.732 -0.3438 -0.1446 -0.6449
   86MOL    C4227412   4.561   4.088   4.867  0.4862  0.0347  0.4629
   86MOL    H4327413   4.445   4.009   5.030 -0.0092 -2.1646 -1.0164
   86MOL    H4427414   4.320   3.833   5.036 -1.0694  1.7766  0.3700
   86MOL    H4527415   4.154   3.661   4.932 -2.2580  1.3799  0.8220
   86MOL    H4627416   4.178   3.885   4.566 -0.2853  1.2135  0.9853
   86MOL    H4727417   4.326   4.045   4.672  0.2179 -0.9737 -1.4314
   86MOL    H4827418   4.620   3.997   4.856 -0.5202 -0.4377 -1.2064
   86MOL    H4927419   4.536   4.121   4.766  0.2131 -1.3358  0.0789
   86MOL    C5027420   4.649   4.196   4.937  0.6673  0.1862 -0.2381
   86MOL    C5127421   4.654   4.186   5.089  0.2390  0.2078  0.6505
   86MOL    C5227422   4.667   4.306   5.161  0.1049  0.3762 -0.1678
   86MOL    C5327423   4.695   4.302   5.300  0.6072 -0.5842 -0.7809
   86MOL    C5427424   4.704   4.186   5.370 -0.2657  0.5266  0.3641
   86MOL    F5527425   4.725   4.192   5.504  0.4084  0.1938  0.0725
   86MOL    C5627426   4.698   4.065   5.297 -0.7066 -0.5305 -0.2518
   86MOL    C5727427   4.675   4.056   5.155 -0.3437 -0.2653  0.1847
   86MOL    C5827428   4.797   4.194   4.886  0.0949 -0.1802 -0.3144
   86MOL    H5927429   4.598   4.291   4.921 -0.4570 -0.3128  0.3582
   86MOL    H6027430   4.667   4.407   5.121  1.6494 -0.2824 -1.8816
   86MOL    H6127431   4.705   4.397   5.349 -0.2794 -1.1158  0.4542
   86MOL    H6227432   4.708   3.975   5.355  1.6272 -0.9714 -1.2639
   86MOL    H6327433   4.674   3.966   5.095 -0.0332  0.2171 -0.5512
   86MOL    H6427434   4.859   4.265   4.942  0.2708 -0.9389  0.4708
   86MOL    H6527435   4.854   4.107   4.919  3.0404  1.5435 -0.6780
   86MOL    C6627436   4.835   4.217   4.739  0.4292  0.1269  0.1594
   86MOL    C6727437   4.744   4.311   4.664 -0.2558  0.1700  0.5489
   86MOL    C6827438   4.688   4.431   4.718  0.5750  0.2356 -0.2696
   86MOL    C6927439   4.601   4.511   4.646 -0.2396  0.1983  1.0410
   86MOL    C7027440   4.574   4.478   4.513 -0.8264 -0.2550  0.4081
   86MOL    F7127441   4.501   4.558   4.433 -0.2818  0.0752  0.5874
   86MOL    C7227442   4.632   4.364   4.453 -0.4053  0.4398 -0.7015
   86MOL    C7327443   4.706   4.276   4.530 -0.2314 -0.2056  0.2818
   86MOL    C7427444   4.984   4.243   4.710  0.1539 -0.2281 -0.3104
   86MOL    H7527445   4.811   4.121   4.693 -1.4487  1.7437 -2.3732
   86MOL    H7627446   4.710   4.453   4.821  0.8447 -0.1187 -0.2491
   86MOL    H7727447   4.569   4.604   4.691 -0.7768 -0.4080  1.9138
   86MOL    H7827448   4.608   4.335   4.352 -0.1982 -2.7301  0.1030
   86MOL    H7927449   4.747   4.194   4.473 -2.7139 -0.6070 -0.9783
   86MOL    H8027450   5.005   4.350   4.715  1.8385 -0.4947 -1.3275
   86MOL    H8127451   5.034   4.187   4.789 -0.7144 -0.6542 -0.0592
   86MOL    C8227452   5.045   4.185   4.586 -0.6701 -0.5748  0.3871
   86MOL    C8327453   5.185   4.249   4.564 -0.0421  0.1518  0.2807
   86MOL    C8427454   5.286   4.258   4.663  0.5227 -0.2492 -0.5001
   86MOL    C8527455   5.414   4.318   4.642  0.8116 -0.3228  0.6691
   86MOL    C8627456   5.436   4.375   4.514 -0.4152 -0.8906 -0.0431
   86MOL    F8727457   5.559   4.419   4.497  0.0583  0.4815 -0.2145
   86MOL    C8827458   5.334   4.369   4.415 -0.2869  0.3069  0.2190
   86MOL    C8927459   5.210   4.309   4.436  0.5193 -0.7709 -0.1666
   86MOL    C9027460   5.063   4.033   4.604 -0.0489  0.8877  0.1763
   86MOL    H9127461   4.989   4.195   4.493 -1.8009 -0.3214  1.0954
   86MOL    H9227462   5.260   4.221   4.761  1.6122  1.3289  0.4032
   86MOL    H9327463   5.495   4.308   4.713  1.4647 -0.5655 -0.1044
   86MOL    H9427464   5.364   4.418   4.324  1.8901 -1.3003  0.0336
   86MOL    H9527465   5.151   4.303   4.345  2.7238  1.1131 -1.8009
   86MOL    H9627466   5.163   4.002   4.634  0.8476  1.3742 -2.2232
   86MOL    H9727467   5.007   4.008   4.694 -0.3943  0.7425 -0.0790
   86MOL    C9827468   5.031   3.937   4.483  0.0874 -0.5695 -0.7512
   86MOL    C9927469   4.887   3.948   4.447 -0.0049  0.0238  0.0828
   86MOL   C10027470   4.832   4.007   4.330  0.2344  0.3681 -0.3077
   86MOL   C10127471   4.699   3.994   4.296  0.1575 -0.1624  0.2318
   86MOL   C10227472   4.612   3.948   4.397  0.1804 -0.1794 -0.6370
   86MOL   F10327473   4.480   3.962   4.373 -0.6957  0.3316 -0.0224
   86MOL   C10427474   4.662   3.896   4.518 -0.3606  0.4129 -0.2035
   86MOL   C10527475   4.795   3.887   4.538  0.3652  0.0945 -0.3291
   86MOL   C10627476   5.129   3.951   4.369  0.2560  0.3245  0.1325
   86MOL   H10727477   5.043   3.832   4.510  1.6644  0.2294  1.8317
   86MOL   H10827478   4.900   4.063   4.267 -0.8303  2.1980  0.1485
   86MOL   H10927479   4.666   4.039   4.203  0.1007  0.7648  0.6876
   86MOL   H11027480   4.589   3.855   4.587 -1.0202 -0.4099 -1.3851
   86MOL   H11127481   4.832   3.840   4.628  0.7148  1.3756  0.1993
   86MOL   H11227482   5.124   4.055   4.337 -1.1401  0.7842  1.7650
   86MOL   H11327483   5.233   3.950   4.402  0.6285 -0.8932 -1.0674
   86MOL   C11427484   5.108   3.847   4.249 -0.2223  0.3275 -0.2395
   86MOL   C11527485   5.172   3.902   4.120  1.0218 -0.0329  0.1447
   86MOL   C11627486   5.313   3.908   4.100 -0.9097 -0.0741  0.6942
   86MOL   C11727487   5.368   3.950   3.974  0.3742 -0.1090 -0.2135
   86MOL   C11827488   5.278   4.005   3.884  0.2224 -0.1616 -0.2085
   86MOL   F11927489   5.323   4.056   3.762 -0.1155 -0.0375  0.9490
   86MOL   C12027490   5.140   4.011   3.905  0.8149  0.2505 -0.5155
   86MOL   C12127491   5.086   3.949   4.017 -0.1353 -0.2443  0.7217
   86MOL   C12227492   5.155   3.706   4.292 -0.7539 -0.0731 -0.3596
   86MOL   H12327493   5.001   3.842   4.230  0.1382  1.2194 -2.7056
   86MOL   H12427494   5.388   3.877   4.171  2.3797  0.6918 -2.3476
   86MOL   H12527495   5.473   3.957   3.953  0.4762  1.5458  0.8134
   86MOL   H12627496   5.083   4.050   3.822  2.0945  4.3365  0.4132
   86MOL   H12727497   4.978   3.939   4.021 -0.3610 -0.0601 -2.6799
   86MOL   H12827498   5.198   3.666   4.200  0.0087  1.8798 -0.8768
   86MOL   H12927499   5.237   3.725   4.361  2.3067  0.1519 -3.9075
   86MOL   C13027500   5.067   3.586   4.341  0.2867  0.3873  0.2331
   86MOL   C13127501   4.953   3.566   4.239  0.0492  0.4882  0.2186
   86MOL   C13227502   4.974   3.512   4.109  0.7427 -0.6629  0.7858
   86MOL   C13327503   4.861   3.500   4.023  0.4635 -0.6298 -0.1380
   86MOL   C13427504   4.731   3.526   4.066  0.0878  0.3877  0.1151
   86MOL   F13527505   4.630   3.505   3.984  0.3386  0.3104  0.3660
   86MOL   C13627506   4.713   3.574   4.194 -0.2813  0.6015  0.8877
   86MOL   C13727507   4.822   3.600   4.279 -0.1704 -0.6872  0.2178
   86MOL   C13827508   5.146   3.453   4.360 -0.3549  0.7926  0.1982
   86MOL   H13927509   5.029   3.617   4.439  0.4148  1.3327 -0.0153
   86MOL   H14027510   5.074   3.493   4.072  0.7138  0.9027 -0.1962
   86MOL   H14127511   4.865   3.469   3.920 -0.9524  1.7259 -0.9438
   86MOL   H14227512   4.614   3.605   4.225 -1.1812  0.1961 -1.4445
   86MOL   H14327513   4.811   3.638   4.379 -0.3833 -0.6808  0.1917
   86MOL   H14427514   5.070   3.378   4.379 -1.0754  1.7926  1.3308
   86MOL   H14527515   5.194   3.423   4.266 -1.5477  0.2278 -0.2315
   86MOL   C14627516   5.249   3.459   4.475 -0.3434 -0.3654  0.5412
   86MOL   C14727517   5.188   3.474   4.613  0.2420 -0.0173 -0.0734
   86MOL   C14827518   5.238   3.573   4.702 -0.0762 -0.7216  0.0399
   86MOL   C14927519   5.174   3.584   4.829  0.4095  0.5573 -1.1112
   86MOL   C15027520   5.070   3.498   4.873  0.0459  0.7611 -0.1358
   86MOL   F15127521   5.012   3.517   4.996 -0.5462 -0.2390 -0.4896
   86MOL   C15227522   5.033   3.392   4.786 -0.2374 -0.3791  0.0733
   86MOL   C15327523   5.096   3.379   4.662 -0.2019 -0.6685 -0.0934
   86MOL   C15427524   5.339   3.335   4.485 -0.2880 -0.1077 -0.5893
   86MOL   H15527525   5.314   3.545   4.459 -1.4463  0.2071 -1.0045
   86MOL   H15627526   5.311   3.646   4.672 -1.0235  0.6479  1.0438
   86MOL   H15727527   5.212   3.654   4.901  0.3241 -0.0855 -0.4259
   86MOL   H15827528   4.956   3.326   4.825 -0.5364  0.2849  0.6181
   86MOL   H15927529   5.067   3.299   4.596  0.9628 -0.1400 -1.2874
   86MOL   H16027530   5.401   3.345   4.574  0.2990  0.8116 -1.0896
   86MOL   H16127531   5.279   3.244   4.493  0.6475 -0.5414  1.7887
   86MOL   C16227532   5.434   3.304   4.369 -0.0559  0.3086 -0.3952
   86MOL   C16327533   5.531   3.418   4.321 -0.3323 -0.1099  0.0614
   86MOL   C16427534   5.568   3.431   4.190 -1.0070  0.4472  0.7169
   86MOL   C16527535   5.644   3.542   4.153  0.2195 -0.5619 -0.5366
   86MOL   C16627536   5.686   3.642   4.236  0.7872 -0.3419 -0.2084
   86MOL   F16727537   5.766   3.742   4.187 -0.0410  0.0925  0.6821
   86MOL   C16827538   5.654   3.633   4.377 -0.3321  0.7000 -0.0451
   86MOL   C16927539   5.586   3.513   4.415 -0.0278 -0.2277 -0.0732
   86MOL   C17027540   5.526   3.187   4.405 -0.5497  0.3229  0.2950
   86MOL   H17127541   5.370   3.276   4.285  0.0671 -1.4179  0.0606
   86MOL   H17227542   5.545   3.360   4.112  1.6292  1.8649 -1.4610
   86MOL   H17327543   5.677   3.556   4.051  2.3697  1.4753  0.3852
   86MOL   H17427544   5.678   3.706   4.454  3.4324 -0.6547  0.1905
   86MOL   H17527545   5.554   3.494   4.516 -1.3558  1.4180 -0.1453
   86MOL   H17627546   5.625   3.199   4.361  0.3006 -0.4679  1.9213
   86MOL   H17727547   5.538   3.177   4.513 -0.5148 -0.4809  0.2198
   86MOL   C17827548   5.481   3.047   4.346  0.8807  0.7066  0.3226
   86MOL   C17927549   5.354   2.995   4.413 -0.0987 -0.1952 -0.0928
   86MOL   C18027550   5.236   2.940   4.347 -0.2037 -0.8224  0.1499
   86MOL   C18127551   5.128   2.896   4.427 -0.2778  0.0083  0.6541
   86MOL   C18227552   5.136   2.903   4.567 -0.1755  0.2212  1.0235
   86MOL   F18327553   5.031   2.865   4.633 -0.6962  0.1083  0.4730
   86MOL   C18427554   5.252   2.942   4.636 -0.3740 -0.9099 -0.3915
   86MOL   C18527555   5.360   2.981   4.556 -0.0785  0.6437  0.1791
   86MOL   C18627556   5.468   3.053   4.194  0.1246 -0.2554  0.0164
   86MOL   H18727557   5.559   2.977   4.374  1.4158  0.5416 -1.4985
   86MOL   H18827558   5.238   2.924   4.240  2.9054 -1.0566  0.1765
   86MOL   H18927559   5.056   2.834   4.375  0.5252 -1.6125  1.4362
   86MOL   H19027560   5.247   2.953   4.743  0.6295 -0.6793 -0.3608
   86MOL   H19127561   5.455   3.004   4.603  0.7162 -1.2578 -0.4111
   86MOL   H19227562   5.365   3.084   4.173  0.6060  0.4883 -1.2632
   86MOL   H19327563   5.532   3.130   4.152 -1.1217  1.3470  1.0065
   86MOL   C19427564   5.506   2.922   4.126  0.0999 -0.0134  0.4969
   86MOL   C19527565   5.436   2.900   3.985  0.5780 -0.3351  0.0904
   86MOL   C19627566   5.349   2.790   3.968  0.1277 -0.3726 -0.9541
   86MOL   C19727567   5.284   2.765   3.846  0.0897  1.0772 -0.0822
   86MOL   C19827568   5.320   2.843   3.732 -0.2636  0.0583  0.5654
   86MOL   F19927569   5.260   2.810   3.615  0.0712 -0.0019 -0.1596
   86MOL   C20027570   5.412   2.947   3.749  0.2811  0.4358  0.5820
   86MOL   C20127571   5.465   2.975   3.869 -0.5498  0.1292  0.3469
   86MOL   C20227572   5.658   2.893   4.129  0.5690  0.1734  0.3448
   86MOL   H20327573   5.468   2.854   4.203  0.1314 -0.4893  0.0903
   86MOL   H20427574   5.331   2.726   4.053  2.5828  0.5595  0.3091
   86MOL   H20527575   5.215   2.683   3.831  0.2887  1.0386 -0.8124
   86MOL   H20627576   5.434   3.010   3.663 -0.8769  1.0253  0.7037
   86MOL   H20727577   5.547   3.045   3.877 -0.9923  0.7186 -0.2444
   86MOL   H20827578   5.723   2.976   4.106  0.4523 -0.6559 -3.2657
   86MOL   H20927579   5.689   2.897   4.233 -2.9217  1.4377  1.4183
   86MOL   C21027580   5.710   2.766   4.058  1.3418 -0.3876 -0.3367
   86MOL   C21127581   5.855   2.788   4.020 -0.4581 -0.0191  0.4321
   86MOL   C21227582   5.950   2.803   4.118  0.7898 -0.0430  0.2929
   86MOL   C21327583   6.086   2.820   4.088 -0.2341 -0.0752  0.2269
   86MOL   C21427584   6.129   2.842   3.953  0.5163 -0.0446 -0.0963
   86MOL   F21527585   6.260   2.862   3.932  0.6386 -0.2762  0.0467
   86MOL   C21627586   6.032   2.820   3.847 -0.5090 -0.2795 -0.2549
   86MOL   C21727587   5.895   2.793   3.887 -0.1740 -0.0035  0.1721
   86MOL   C21827588   5.687   2.633   4.135 -0.1728  0.4581 -0.2585
   86MOL   H21927589   5.654   2.757   3.966  0.1818 -0.5645  0.3741
   86MOL   H22027590   5.908   2.788   4.216 -0.3421 -3.6079 -0.6318
   86MOL   H22127591   6.165   2.820   4.161  0.1022  0.9032 -0.1252
   86MOL   H22227592   6.054   2.820   3.742  0.0220  1.0099 -0.1520
   86MOL   H22327593   5.815   2.778   3.816  0.3603  2.4834 -1.0164
   86MOL   H22427594   5.777   2.612   4.194 -0.3928  2.0424  0.6727
   86MOL   H22527595   5.615   2.648   4.215  0.9795  1.4624  0.6104
   86MOL   C22627596   5.638   2.503   4.061  0.1250  0.1503 -0.6858
   86MOL   C22727597   5.703   2.494   3.923 -0.0451 -0.0205 -0.3491
   86MOL   C22827598   5.839   2.479   3.901 -0.0743 -0.3963 -0.6375
   86MOL   C22927599   5.900   2.478   3.781  0.0503  0.1406 -0.7985
   86MOL   C23027600   5.817   2.479   3.666  0.5007  0.1250 -0.2255
   86MOL   F23127601   5.856   2.457   3.537 -0.3107 -0.0940 -0.1353
   86MOL   C23227602   5.677   2.501   3.682 -0.1096 -0.7481  0.0939
   86MOL   C23327603   5.622   2.518   3.805 -0.3976  0.6727 -0.2873
   86MOL   C23427604   5.663   2.368   4.133  0.7652  0.4391  0.8427
   86MOL   H23527605   5.530   2.511   4.051  0.2087  1.9073 -0.2857
   86MOL   H23627606   5.902   2.461   3.987 -0.6918 -1.3241 -0.3638
   86MOL   H23727607   6.007   2.463   3.778  0.1007  0.6204 -1.6377
   86MOL   H23827608   5.623   2.504   3.589  0.9175  0.4330 -0.4874
   86MOL   H23927609   5.521   2.554   3.816 -0.7604  0.2722 -2.2466
   86MOL   H24027610   5.640   2.291   4.059  0.0904  2.3216 -0.9679
   86MOL   H24127611   5.770   2.357   4.150  1.2980  2.4471 -0.8274
   86MOL   C24227612   5.583   2.326   4.258 -0.8337  0.1212 -0.6304
   86MOL   C24327613   5.444   2.389   4.275 -0.2760 -0.5085  0.3769
   86MOL   C24427614   5.329   2.338   4.206 -0.4237  0.1547 -0.1569
   86MOL   C24527615   5.206   2.403   4.226 -0.1760  0.7966 -1.0283
   86MOL   C24627616   5.193   2.516   4.304 -0.4408  0.2232 -0.3026
   86MOL   F24727617   5.072   2.584   4.307 -0.6812  0.4331  0.5297
   86MOL   C24827618   5.304   2.565   4.376  0.1571  0.1524 -0.3501
   86MOL   C24927619   5.431   2.506   4.356  0.1105  0.2007  0.8238
   86MOL   C25027620   5.585   2.172   4.280 -0.0179  0.0834  0.1966
   86MOL   H25127621   5.632   2.372   4.345 -2.4465 -0.5702  0.6713
   86MOL   H25227622   5.342   2.248   4.149 -0.0543  0.3194 -0.3362
   86MOL   H25327623   5.117   2.357   4.184  0.0583 -2.7511  2.1155
   86MOL   H25427624   5.291   2.652   4.438 -0.6076  0.6433 -1.1891
   86MOL   H25527625   5.520   2.546   4.402  0.7139  0.6020 -0.6489
   86MOL   H25627626   5.527   2.136   4.365 -0.3186  0.9386  0.3591
   86MOL   H25727627   5.535   2.134   4.192  0.3795 -1.4129  0.6095
   86MOL   C25827628   5.726   2.102   4.296 -0.7621 -0.6830  0.3150
   86MOL   C25927629   5.804   2.145   4.421 -0.0434 -0.1190 -0.1272
   86MOL   C26027630   5.922   2.216   4.422  0.1586 -0.5087  0.0998
   86MOL   C26127631   5.996   2.238   4.542 -0.1653  0.8204  0.3483
   86MOL   C26227632   5.936   2.205   4.668 -0.0292 -0.2971  0.3429
   86MOL   F26327633   5.993   2.248   4.781 -0.2660  0.0555 -0.6429
   86MOL   C26427634   5.812   2.135   4.666  0.6928 -0.2733 -0.1120
   86MOL   C26527635   5.742   2.109   4.546  0.3849 -0.5344 -0.7308
   86MOL   C26627636   5.723   1.942   4.291 -0.2905 -0.7983  0.8482
   86MOL   H26727637   5.782   2.144   4.213 -1.8357  3.3226  1.5244
   86MOL   H26827638   5.979   2.227   4.331 -0.4507  0.9411 -0.1175
   86MOL   H26927639   6.096   2.279   4.539 -0.3454  1.1353 -2.1748
   86MOL   H27027640   5.766   2.106   4.759 -2.0052 -1.3575 -1.7168
   86MOL   H27127641   5.645   2.063   4.557  1.3305 -2.1686  1.1389
   86MOL   H27227642   5.820   1.901   4.316 -0.0179 -1.4367 -1.2077
   86MOL   H27327643   5.664   1.910   4.377 -1.8583 -1.6826 -0.5322
   86MOL   C27427644   5.679   1.874   4.162 -0.9817 -0.2059  0.4039
   86MOL   C27527645   5.750   1.936   4.040 -0.0088  0.0496  0.2136
   86MOL   C27627646   5.888   1.909   4.017  0.2957 -1.2322  0.2281
   86MOL   C27727647   5.952   1.979   3.913  0.3691  0.2188  0.3712
   86MOL   C27827648   5.888   2.077   3.835  0.4550 -0.8394  0.2231
   86MOL   F27927649   5.948   2.143   3.736  0.6472  0.2654  0.0025
   86MOL   C28027650   5.752   2.102   3.863  0.2182  0.1224 -0.1195
   86MOL   C28127651   5.673   2.027   3.958  0.3253  0.4504 -0.4255
   86MOL   C28227652   5.693   1.723   4.168 -0.3779  0.8174 -0.3117
   86MOL   H28327653   5.575   1.906   4.154 -1.2108 -1.6694 -3.0753
   86MOL   H28427654   5.941   1.831   4.069  1.7121 -0.3675  0.1159
   86MOL   H28527655   6.055   1.966   3.881  0.7206  2.6014  0.4746
   86MOL   H28627656   5.705   2.177   3.801  0.1580  2.5840  2.8318
   86MOL   H28727657   5.568   2.040   3.976 -0.1577 -4.2549  0.9255
   86MOL   H28827658   5.723   1.693   4.068 -0.5487  1.3770 -0.5347
   86MOL   H28927659   5.749   1.686   4.253 -0.8079  0.8180 -0.0235
   86MOL   C29027660   5.554   1.656   4.181  0.0616 -0.1744  0.4009
   86MOL   C29127661   5.580   1.497   4.182  0.0122 -0.3286 -0.1029
   86MOL   C29227662   5.651   1.439   4.289 -0.3321 -0.2384 -0.1686
   86MOL   C29327663   5.668   1.296   4.284 -0.3554 -0.1285 -0.1912
   86MOL   C29427664   5.621   1.208   4.177  0.4203  0.2856 -0.4804
   86MOL   F29527665   5.651   1.076   4.171  0.0501 -0.0234  0.0908
   86MOL   C29627666   5.547   1.274   4.081  0.1674 -0.5510 -0.6304
   86MOL   C29727667   5.537   1.415   4.082  0.9349 -0.1222 -0.1076
   86MOL   C29827668   5.478   1.693   4.316  0.3223 -0.3369 -0.8528
   86MOL   H29927669   5.495   1.681   4.093 -0.0017  1.3576  0.8496
   86MOL   H30027670   5.700   1.486   4.373  0.3434  0.4583 -0.9470
   86MOL   H30127671   5.724   1.256   4.368 -2.5603 -2.9426  0.0100
   86MOL   H30227672   5.519   1.216   3.994 -0.2940 -3.2398  1.2719
   86MOL   H30327673   5.495   1.463   3.995 -0.4752 -0.7422  0.2035
   86MOL   H30427674   5.540   1.658   4.399  1.4818  1.7039 -0.8262
   86MOL   H30527675   5.460   1.800   4.323 -0.5170 -0.6353  2.5683
   86MOL   C30627676   5.335   1.641   4.335 -0.3342  0.4121 -0.5233
   86MOL   C30727677   5.270   1.682   4.467 -0.1361  0.2949  0.2839
   86MOL   C30827678   5.186   1.799   4.482  0.3550 -0.4463  0.0537
   86MOL   C30927679   5.114   1.817   4.604  0.5590  0.0331  0.5609
   86MOL   C31027680   5.131   1.736   4.712 -0.2614  0.0406 -1.0433
   86MOL   F31127681   5.062   1.754   4.831 -0.1677  0.4762 -0.0369
   86MOL   C31227682   5.214   1.622   4.700  0.4706 -0.1522 -0.2273
   86MOL   C31327683   5.276   1.596   4.578  0.2897 -0.5458  0.3852
   86MOL   C31427684   5.248   1.663   4.212  0.4703 -0.6355 -0.1916
   86MOL   H31527685   5.342   1.532   4.344  2.0258  0.5381 -0.6015
   86MOL   H31627686   5.165   1.877   4.410  0.0118 -0.2392  0.3724
   86MOL   H31727687   5.043   1.897   4.620 -0.1424 -0.4895  0.0998
   86MOL   H31827688   5.224   1.542   4.772 -1.0685  0.2998  0.5218
   86MOL   H31927689   5.329   1.503   4.560  1.6306  0.5233 -1.4087
   86MOL   H32027690   5.250   1.763   4.170 -1.1512  0.0062  1.1951
   86MOL   H32127691   5.292   1.602   4.132 -1.1636 -0.6657 -1.0913
   86MOL   H32227692   5.143   1.634   4.201 -0.0887  0.7638  1.3479
   87MOL     C127693   2.769   7.663   2.212 -0.6790 -0.4372 -0.5849
   87MOL     C227694   2.903   7.723   2.173  0.0451  0.1404  0.1215
   87MOL     C327695   3.014   7.702   2.256  0.0011 -1.4390 -0.5300
   87MOL     C427696   3.138   7.757   2.222 -0.0647  0.3469  0.0931
   87MOL     C527697   3.144   7.837   2.109 -0.5727 -0.1279  0.5774
   87MOL     F627698   3.258   7.899   2.085  0.6311 -0.0974 -0.4499
   87MOL     C727699   3.042   7.841   2.013  0.2512  0.6267 -0.2509
   87MOL     C827700   2.916   7.794   2.051  0.0427  0.5251  0.2840
   87MOL     C927701   2.725   7.542   2.141 -0.2401  0.0067 -0.1219
   87MOL    H1027702   2.689   7.737   2.214  0.7082  1.0808  0.7130
   87MOL    H1127703   3.006   7.651   2.351 -1.6714  0.4736  0.4008
   87MOL    H1227704   3.223   7.755   2.289 -1.1803 -1.8501  1.4963
   87MOL    H1327705   3.071   7.905   1.930  0.5068 -0.8886 -1.3430
   87MOL    H1427706   2.832   7.809   1.985 -0.4955 -0.5573  0.7022
   87MOL    H1527707   2.728   7.572   2.036  1.8042  0.2828 -0.0135
   87MOL    H1627708   2.800   7.464   2.144 -0.6848 -0.4310 -0.3049
   87MOL    H1727709   2.780   7.657   2.321  0.4693 -0.7811 -0.7182
   87MOL    C1827710   2.591   7.480   2.201 -0.3716  0.0077 -0.4213
   87MOL    C1927711   2.483   7.576   2.240  1.0068  0.1977  0.6354
   87MOL    C2027712   2.419   7.653   2.138 -0.7916 -0.0234  0.6023
   87MOL    C2127713   2.308   7.736   2.167  0.1548  0.1873  0.1521
   87MOL    C2227714   2.264   7.753   2.298  1.1865  1.1734  0.2032
   87MOL    F2327715   2.160   7.831   2.321  0.1388  0.3524  0.4555
   87MOL    C2427716   2.326   7.675   2.402 -0.0832 -0.1417 -0.0284
   87MOL    C2527717   2.429   7.586   2.373  0.4441 -0.1398 -0.2104
   87MOL    C2627718   2.541   7.363   2.110 -0.3300 -0.3682 -0.3403
   87MOL    H2727719   2.621   7.431   2.294 -4.2169 -0.2609  0.7461
   87MOL    H2827720   2.455   7.643   2.036 -0.4024 -2.2531  0.9294
   87MOL    H2927721   2.259   7.781   2.082  1.2130  1.2126  0.0646
   87MOL    H3027722   2.288   7.684   2.502 -2.4442  2.4184 -1.0916
   87MOL    H3127723   2.457   7.524   2.456 -1.7524  2.0452  2.2405
   87MOL    H3227724   2.527   7.402   2.009  0.4105  1.8919  0.4036
   87MOL    H3327725   2.619   7.289   2.096 -1.9713 -2.2165  0.0973
   87MOL    C3427726   2.409   7.295   2.168  0.0626 -0.4770  0.1971
   87MOL    C3527727   2.364   7.174   2.079  0.6535 -0.1333 -0.3914
   87MOL    C3627728   2.453   7.064   2.065  0.5237  0.3845  0.4174
   87MOL    C3727729   2.404   6.952   1.996  0.0182  0.5711 -0.1500
   87MOL    C3827730   2.274   6.946   1.949 -0.0806 -0.3328 -0.6299
   87MOL    F3927731   2.228   6.839   1.883  0.2536  0.2904  0.1100
   87MOL    C4027732   2.184   7.052   1.968 -0.4850  0.6822 -0.3361
   87MOL    C4127733   2.230   7.167   2.033  1.3318 -0.2379  0.0210
   87MOL    C4227734   2.427   7.243   2.315  0.3780 -0.2897  0.4477
   87MOL    H4327735   2.324   7.363   2.167 -0.6009 -1.3033 -1.2818
   87MOL    H4427736   2.552   7.079   2.105  0.4580  1.2636  0.2699
   87MOL    H4527737   2.462   6.863   1.975  0.8390  1.4448 -1.6968
   87MOL    H4627738   2.079   7.052   1.942 -0.3281  0.3661 -0.9857
   87MOL    H4727739   2.157   7.246   2.044  1.2343 -0.4598  0.9947
   87MOL    H4827740   2.494   7.156   2.313  1.1826  0.3295  0.4239
   87MOL    H4927741   2.479   7.310   2.383  0.8714 -0.7156  0.5015
   87MOL    C5027742   2.295   7.208   2.375 -0.1797 -0.2989  0.0319
   87MOL    C5127743   2.312   7.089   2.470  0.5502 -0.1786  0.3330
   87MOL    C5227744   2.241   6.972   2.450 -0.3554 -0.4452  0.1721
   87MOL    C5327745   2.244   6.867   2.540  0.7201 -0.1946 -0.1979
   87MOL    C5427746   2.313   6.876   2.666  0.5380  0.4457  0.2976
   87MOL    F5527747   2.326   6.765   2.750 -0.2158  0.1822 -0.0149
   87MOL    C5627748   2.390   6.992   2.687  0.0873 -0.2624  0.2429
   87MOL    C5727749   2.376   7.100   2.592 -0.1824  0.2285 -0.6809
   87MOL    C5827750   2.222   7.328   2.437  0.0503  0.2682 -0.1154
   87MOL    H5927751   2.227   7.175   2.296  0.3520 -4.1700  1.0879
   87MOL    H6027752   2.171   6.953   2.370 -0.0094  2.1178 -0.7899
   87MOL    H6127753   2.189   6.780   2.506 -2.7993  2.6613 -2.1734
   87MOL    H6227754   2.462   6.992   2.768  1.1583  0.7139 -0.6805
   87MOL    H6327755   2.422   7.197   2.604  2.9497 -1.2888 -0.0175
   87MOL    H6427756   2.277   7.354   2.527 -1.6453 -2.1033  1.6554
   87MOL    H6527757   2.222   7.414   2.370  1.6052 -0.3591 -0.9614
   87MOL    C6627758   2.084   7.311   2.497 -0.1078  0.4789  0.4311
   87MOL    C6727759   2.041   7.443   2.568  0.5737  0.0998  0.5320
   87MOL    C6827760   2.010   7.435   2.704  0.3033 -0.0631  0.2554
   87MOL    C6927761   1.957   7.550   2.769 -0.5418  0.8074  0.1013
   87MOL    C7027762   1.938   7.671   2.700 -0.4308 -0.3929  0.4141
   87MOL    F7127763   1.904   7.791   2.759  0.2162  0.2161 -0.2809
   87MOL    C7227764   1.972   7.676   2.561  0.0441 -0.1946  0.0033
   87MOL    C7327765   2.017   7.562   2.496 -0.8712 -0.4234  0.4166
   87MOL    C7427766   1.976   7.252   2.403 -0.1219 -0.2713 -0.1444
   87MOL    H7527767   2.097   7.235   2.574  1.3555 -1.9603 -2.1423
   87MOL    H7627768   2.023   7.349   2.768 -0.4032 -0.0652  0.3952
   87MOL    H7727769   1.952   7.549   2.877 -2.2205 -0.6747  0.0436
   87MOL    H7827770   1.980   7.770   2.509 -0.1628  0.9132  1.9432
   87MOL    H7927771   2.044   7.559   2.392 -1.4048  0.0869  0.2572
   87MOL    H8027772   1.941   7.325   2.330 -3.7529 -2.7324 -1.0203
   87MOL    H8127773   2.025   7.175   2.343 -2.0167 -0.9879 -0.8032
   87MOL    C8227774   1.862   7.178   2.472  0.4032  0.2482 -0.8063
   87MOL    C8327775   1.767   7.262   2.567 -0.2066 -0.1176 -0.2944
   87MOL    C8427776   1.685   7.364   2.519  0.9185 -0.1822 -0.1619
   87MOL    C8527777   1.599   7.427   2.612 -0.2818 -0.1292 -0.0060
   87MOL    C8627778   1.597   7.386   2.749 -0.3463 -0.2704 -0.1888
   87MOL    F8727779   1.523   7.452   2.838 -0.0004  0.1292 -0.6589
   87MOL    C8827780   1.673   7.272   2.788  0.4335 -0.9671  0.2946
   87MOL    C8927781   1.749   7.206   2.694 -0.1536 -0.0224 -0.1886
   87MOL    C9027782   1.779   7.091   2.370 -0.0716 -0.5348 -0.1529
   87MOL    H9127783   1.914   7.097   2.523 -1.3240 -0.3335  0.0771
   87MOL    H9227784   1.681   7.402   2.418 -1.4459 -2.9650 -1.1577
   87MOL    H9327785   1.541   7.510   2.573  1.3917  1.3867  0.6564
   87MOL    H9427786   1.671   7.240   2.891 -0.5322 -1.4749  0.1199
   87MOL    H9527787   1.797   7.122   2.742  0.7002  1.4548  1.6179
   87MOL    H9627788   1.725   7.156   2.300 -2.0416 -1.9427  0.0203
   87MOL    H9727789   1.852   7.046   2.303 -0.6263 -3.3207  1.0669
   87MOL    C9827790   1.690   6.984   2.429 -0.2838 -0.1641  0.1506
   87MOL    C9927791   1.576   6.959   2.329  0.4471  0.9520 -0.2493
   87MOL   C10027792   1.442   6.997   2.360 -0.0945  0.0638 -0.6152
   87MOL   C10127793   1.334   6.971   2.269 -0.5119  0.5526 -0.0704
   87MOL   C10227794   1.356   6.908   2.149  0.4975 -0.2009 -0.4656
   87MOL   F10327795   1.250   6.878   2.071 -0.2671 -0.0066  0.0768
   87MOL   C10427796   1.484   6.863   2.114 -0.0598  1.2907 -0.0349
   87MOL   C10527797   1.594   6.890   2.211 -0.3255  0.6442  0.1833
   87MOL   C10627798   1.770   6.857   2.468 -0.0373  0.5590  0.2435
   87MOL   H10727799   1.643   7.027   2.518  2.9704  1.8955  0.9577
   87MOL   H10827800   1.420   7.065   2.441  0.2913 -0.4284 -0.0900
   87MOL   H10927801   1.236   7.002   2.303 -0.6124 -0.3236  0.4566
   87MOL   H11027802   1.495   6.801   2.026 -0.8689 -4.2070  3.4947
   87MOL   H11127803   1.694   6.858   2.187 -1.2484 -1.9517 -0.3725
   87MOL   H11227804   1.835   6.835   2.383 -0.7303  0.7277 -0.3393
   87MOL   H11327805   1.841   6.883   2.546  0.9235  0.1789 -0.4853
   87MOL   C11427806   1.698   6.732   2.510  0.2945  0.3915  0.1860
   87MOL   C11527807   1.781   6.609   2.486 -0.0886  0.2036  0.4637
   87MOL   C11627808   1.913   6.603   2.530 -0.6189  0.5562  0.3898
   87MOL   C11727809   1.997   6.490   2.504 -0.6850  0.0876  0.3371
   87MOL   C11827810   1.943   6.380   2.436 -0.3712 -0.4411 -0.1710
   87MOL   F11927811   2.009   6.262   2.424  0.4119  0.1033  0.6039
   87MOL   C12027812   1.810   6.385   2.390 -0.4255 -0.9925  0.2314
   87MOL   C12127813   1.727   6.498   2.414 -0.3898 -0.1269 -0.2189
   87MOL   C12227814   1.668   6.757   2.662 -0.1879  0.5428  0.2199
   87MOL   H12327815   1.609   6.724   2.447  0.4936 -0.8730  0.0501
   87MOL   H12427816   1.957   6.687   2.581  1.6932 -1.0680  1.1526
   87MOL   H12527817   2.098   6.483   2.543 -0.4034  1.5112 -0.0862
   87MOL   H12627818   1.766   6.307   2.330  0.4048 -2.5244  1.5560
   87MOL   H12727819   1.626   6.514   2.381  0.2264  0.6731 -1.7425
   87MOL   H12827820   1.762   6.730   2.710  0.3273  0.6350 -0.7056
   87MOL   H12927821   1.654   6.864   2.677 -2.1032  0.2878  0.3548
   87MOL   C13027822   1.549   6.685   2.721 -0.1315  0.2189 -0.2612
   87MOL   C13127823   1.585   6.648   2.862 -0.3779  0.0668  0.3795
   87MOL   C13227824   1.580   6.515   2.902 -0.0051  0.0808 -0.0324
   87MOL   C13327825   1.630   6.486   3.031  0.2005  0.4513  0.0044
   87MOL   C13427826   1.696   6.580   3.118  0.2211 -0.1617  0.2612
   87MOL   F13527827   1.743   6.540   3.235  0.1314 -0.1088  0.4843
   87MOL   C13627828   1.692   6.713   3.071 -0.0944  0.1227 -0.6106
   87MOL   C13727829   1.640   6.750   2.947  0.0232 -0.6308 -0.4872
   87MOL   C13827830   1.420   6.770   2.716 -0.5574 -0.6180  0.0978
   87MOL   H13927831   1.544   6.590   2.667  1.4480  1.1568 -2.1600
   87MOL   H14027832   1.533   6.438   2.842 -1.1750 -0.7669  1.9163
   87MOL   H14127833   1.618   6.385   3.069  0.1576  0.5745  0.3232
   87MOL   H14227834   1.747   6.787   3.127 -0.7827  0.4986 -0.4252
   87MOL   H14327835   1.624   6.853   2.918  0.9089 -0.2274  0.4277
   87MOL   H14427836   1.419   6.855   2.784  1.5403 -0.0046 -0.5908
   87MOL   H14527837   1.414   6.819   2.618 -0.7513  1.4076  1.1009
   87MOL   C14627838   1.285   6.693   2.709 -0.1975  0.0674 -0.3964
   87MOL   C14727839   1.240   6.629   2.840 -0.2484 -0.1478 -0.0469
   87MOL   C14827840   1.205   6.496   2.839 -0.0552 -0.3551  0.1403
   87MOL   C14927841   1.151   6.443   2.959  0.3134  0.2451  0.0959
   87MOL   C15027842   1.136   6.520   3.074  0.1583 -0.1131 -0.4222
   87MOL   F15127843   1.078   6.463   3.182 -0.0252  0.1838  0.0006
   87MOL   C15227844   1.177   6.654   3.074 -0.1821 -0.1627 -0.7774
   87MOL   C15327845   1.235   6.708   2.953  0.3422 -0.1284  0.0732
   87MOL   C15427846   1.172   6.765   2.620  0.4904 -0.4444 -0.1390
   87MOL   H15527847   1.312   6.615   2.637  0.4210 -0.4227  0.3612
   87MOL   H15627848   1.227   6.442   2.748 -0.4910 -0.3608  0.0408
   87MOL   H15727849   1.115   6.342   2.966 -0.3733  0.4886  0.0506
   87MOL   H15827850   1.178   6.716   3.162 -0.1118 -3.9574  1.9930
   87MOL   H15927851   1.277   6.805   2.934  2.5175 -1.0247  0.2418
   87MOL   H16027852   1.221   6.817   2.538 -1.7752  0.6901 -0.8204
   87MOL   H16127853   1.123   6.686   2.563  0.2066 -1.3326  1.3174
   87MOL   C16227854   1.063   6.856   2.689 -0.0557  0.3710  1.0451
   87MOL   C16327855   1.119   6.993   2.720 -0.4978  1.2022 -0.7032
   87MOL   C16427856   1.121   7.042   2.857 -1.4369  0.4157  0.1865
   87MOL   C16527857   1.160   7.172   2.878  0.2590 -0.0446  0.1665
   87MOL   C16627858   1.222   7.248   2.775 -0.2192  0.1794 -0.0281
   87MOL   F16727859   1.263   7.378   2.800  0.2072 -0.1607  0.3446
   87MOL   C16827860   1.216   7.200   2.644 -0.0321  0.6433  0.0584
   87MOL   C16927861   1.173   7.072   2.617  0.2325 -0.0056 -0.1406
   87MOL   C17027862   0.940   6.874   2.597 -0.3483  0.0727  0.4974
   87MOL   H17127863   1.032   6.810   2.783  1.5299  0.9904  1.8807
   87MOL   H17227864   1.074   6.987   2.937 -1.2780  0.1204  0.0784
   87MOL   H17327865   1.146   7.219   2.975 -0.2096 -2.3085  1.2301
   87MOL   H17427866   1.252   7.259   2.561  2.8409 -1.5193 -0.3376
   87MOL   H17527867   1.178   7.032   2.516  1.7024  2.7451 -1.2334
   87MOL   H17627868   0.901   6.972   2.626  0.0034  0.3463  0.0289
   87MOL   H17727869   0.974   6.886   2.495 -0.1398  1.9831  0.7760
   87MOL   C17827870   0.828   6.763   2.599  0.0925 -0.5158  0.2750
   87MOL   C17927871   0.800   6.705   2.736 -0.8258 -0.2962  0.2249
   87MOL   C18027872   0.814   6.568   2.760  0.4485  0.1808 -0.9026
   87MOL   C18127873   0.800   6.513   2.894  0.0951  0.0434 -0.2491
   87MOL   C18227874   0.767   6.597   2.999 -0.3060 -0.1223 -0.6813
   87MOL   F18327875   0.745   6.552   3.126  0.1316  0.5387 -0.2593
   87MOL   C18427876   0.747   6.729   2.970 -0.3491 -0.0290 -0.3753
   87MOL   C18527877   0.767   6.786   2.845 -0.3765 -0.4054  0.0944
   87MOL   C18627878   0.693   6.795   2.536 -0.3769  0.3260  0.3309
   87MOL   H18727879   0.876   6.681   2.544 -3.3607 -1.9301 -0.7596
   87MOL   H18827880   0.839   6.500   2.680  4.2462  0.3425  0.0777
   87MOL   H18927881   0.812   6.409   2.923 -0.4450  0.3162  0.9803
   87MOL   H19027882   0.726   6.799   3.050 -1.4822 -0.2959 -0.4257
   87MOL   H19127883   0.754   6.892   2.830  0.7538  0.0502  2.1109
   87MOL   H19227884   0.637   6.702   2.546  0.1341  0.2471  2.7469
   87MOL   H19327885   0.639   6.876   2.584 -0.9435  1.4770 -2.1426
   87MOL   C19427886   0.687   6.848   2.389 -0.2910 -0.4901  0.0781
   87MOL   C19527887   0.772   6.763   2.292 -0.1452 -0.3295  0.4336
   87MOL   C19627888   0.874   6.829   2.217 -0.5103 -0.3547 -0.1333
   87MOL   C19727889   0.939   6.760   2.116  0.1559  0.4071  0.3298
   87MOL   C19827890   0.894   6.630   2.081  0.0257 -0.3663 -0.4042
   87MOL   F19927891   0.932   6.565   1.969 -0.5410 -0.0843  0.0775
   87MOL   C20027892   0.794   6.566   2.157 -0.7374  0.0084 -0.1752
   87MOL   C20127893   0.728   6.633   2.263 -0.5540  0.0241 -0.7997
   87MOL   C20227894   0.537   6.864   2.340 -0.0178  0.0029 -0.6233
   87MOL   H20327895   0.738   6.944   2.388 -2.9752  0.9738 -1.5907
   87MOL   H20427896   0.902   6.927   2.253  1.8427 -1.1393  0.2983
   87MOL   H20527897   1.017   6.810   2.060 -0.8167 -1.1496 -2.5395
   87MOL   H20627898   0.769   6.466   2.124  0.4144 -0.4296  0.2464
   87MOL   H20727899   0.658   6.586   2.330 -0.9926  4.3267  1.9308
   87MOL   H20827900   0.498   6.762   2.337 -2.9166  0.9849  1.6001
   87MOL   H20927901   0.494   6.923   2.421 -0.0438 -0.3887 -0.3490
   87MOL   C21027902   0.516   6.940   2.205  0.0062 -0.4018  0.1190
   87MOL   C21127903   0.368   6.945   2.160 -1.1738  0.0627  0.8512
   87MOL   C21227904   0.339   6.983   2.029 -0.1248  0.4230  0.6988
   87MOL   C21327905   0.210   6.997   1.980 -0.3596 -0.3203 -0.2352
   87MOL   C21427906   0.103   6.964   2.066 -0.3665  0.8478 -0.0444
   87MOL   F21527907   8.206   6.961   2.031  0.2919 -0.0793  0.9448
   87MOL   C21627908   0.126   6.922   2.202 -0.6220 -0.1528 -0.1543
   87MOL   C21727909   0.261   6.918   2.252 -0.6571  0.0166 -0.0126
   87MOL   C21827910   0.588   7.079   2.186  0.2510 -0.2230 -0.2835
   87MOL   H21927911   0.557   6.873   2.130  1.5778  0.4440  0.2139
   87MOL   H22027912   0.421   7.002   1.961  1.0424 -3.2257  0.9404
   87MOL   H22127913   0.197   7.026   1.877  0.0489  1.9522  0.3285
   87MOL   H22227914   0.045   6.887   2.265 -1.3374  2.2369  0.2797
   87MOL   H22327915   0.270   6.890   2.356  2.4237 -1.0793 -0.5389
   87MOL   H22427916   0.697   7.075   2.186  0.2390 -0.8568 -1.4887
   87MOL   H22527917   0.567   7.124   2.090 -0.8991 -1.5090 -0.6493
   87MOL   C22627918   0.560   7.181   2.297 -0.8598 -0.6327  0.5023
   87MOL   C22727919   0.685   7.270   2.318  0.4605  0.0745  0.1320
   87MOL   C22827920   0.767   7.261   2.435  0.0356 -0.1938 -0.6327
   87MOL   C22927921   0.880   7.343   2.449 -0.4316  0.2289 -0.9146
   87MOL   C23027922   0.913   7.429   2.348 -0.7579 -0.2406  0.4411
   87MOL   F23127923   1.010   7.515   2.363 -0.3773  0.1659 -0.3297
   87MOL   C23227924   0.838   7.434   2.232  0.3273 -0.2962  0.0813
   87MOL   C23327925   0.725   7.349   2.213  0.1297 -0.1402 -0.7910
   87MOL   C23427926   0.438   7.264   2.265  0.4129 -0.8735  0.3893
   87MOL   H23527927   0.550   7.131   2.393  0.0248 -0.8787  0.4731
   87MOL   H23627928   0.748   7.200   2.522 -0.1692  0.1100 -0.4644
   87MOL   H23727929   0.947   7.316   2.530  0.6381  2.3672 -1.0509
   87MOL   H23827930   0.875   7.506   2.160  0.2767 -0.1014  0.2508
   87MOL   H23927931   0.662   7.355   2.125 -0.7891 -0.0740 -0.1328
   87MOL   H24027932   0.461   7.318   2.173  2.7535 -0.4795  1.1831
   87MOL   H24127933   0.352   7.199   2.247  1.0059 -1.6270  0.2807
   87MOL   C24227934   0.396   7.377   2.355 -0.3387 -0.4907 -0.4413
   87MOL   C24327935   0.322   7.492   2.277  0.1862  0.4774  0.4244
   87MOL   C24427936   0.376   7.623   2.261  0.0657 -0.3483  0.6570
   87MOL   C24527937   0.314   7.722   2.185  0.8440  0.3386  0.5252
   87MOL   C24627938   0.188   7.683   2.120 -0.3091  0.0309 -0.1019
   87MOL   F24727939   0.117   7.779   2.055  0.0153  0.7338  0.1211
   87MOL   C24827940   0.139   7.556   2.132 -0.2578  0.0875  0.7819
   87MOL   C24927941   0.205   7.457   2.207  0.3716 -0.4393 -0.7939
   87MOL   C25027942   0.308   7.338   2.471 -0.1530 -0.6596  0.1999
   87MOL   H25127943   0.480   7.413   2.414 -2.8996  0.3454  2.8114
   87MOL   H25227944   0.473   7.652   2.300  0.9934 -0.2635 -1.5986
   87MOL   H25327945   0.345   7.825   2.181 -0.6159  0.7900  0.3429
   87MOL   H25427946   0.045   7.520   2.094 -0.3754  1.3483 -0.1502
   87MOL   H25527947   0.149   7.365   2.219  0.3692 -0.2744  0.6436
   87MOL   H25627948   0.201   7.342   2.450  0.0926 -0.6991 -1.1490
   87MOL   H25727949   0.311   7.231   2.493 -4.5407 -1.1836 -1.2603
   87MOL   C25827950   0.320   7.417   2.606 -0.6747  0.1869 -0.4970
   87MOL   C25927951   0.438   7.360   2.691 -0.9642  0.0491  0.5973
   87MOL   C26027952   0.571   7.390   2.664 -0.2169 -1.0906 -0.7035
   87MOL   C26127953   0.666   7.328   2.749 -0.5324  0.2463  0.3783
   87MOL   C26227954   0.633   7.243   2.857  0.4404 -0.6123  0.2035
   87MOL   F26327955   0.736   7.182   2.920  0.1661  0.2202  0.0460
   87MOL   C26427956   0.497   7.211   2.878 -0.0985  0.5126 -0.1851
   87MOL   C26527957   0.405   7.274   2.797 -0.6189  0.1636  0.1035
   87MOL   C26627958   0.321   7.570   2.575  0.1350 -0.5093 -0.1757
   87MOL   H26727959   0.234   7.399   2.670  0.7601 -1.5710  0.9972
   87MOL   H26827960   0.606   7.454   2.584 -0.3956 -0.8904 -0.6233
   87MOL   H26927961   0.770   7.348   2.728 -0.3977 -0.7366  0.0578
   87MOL   H27027962   0.472   7.138   2.953  0.2833 -0.5593 -1.0737
   87MOL   H27127963   0.301   7.263   2.825 -0.5550  3.5344  1.9592
   87MOL   H27227964   0.398   7.597   2.502 -0.6475 -0.9625 -1.1908
   87MOL   H27327965   0.224   7.581   2.527 -0.7941 -1.0346  1.5686
   87MOL   C27427966   0.318   7.657   2.703  0.2599 -0.2001 -0.1767
   87MOL   C27527967   0.447   7.679   2.770  0.3586 -0.6249  0.4041
   87MOL   C27627968   0.467   7.629   2.903 -0.1682  0.9071  0.1761
   87MOL   C27727969   0.595   7.614   2.958 -1.0748  0.1786  0.2125
   87MOL   C27827970   0.703   7.668   2.887 -0.0420 -0.2184 -0.2934
   87MOL   F27927971   0.828   7.651   2.944 -0.1444  0.3058 -0.2447
   87MOL   C28027972   0.683   7.728   2.764 -0.3493 -0.3714  1.0248
   87MOL   C28127973   0.560   7.726   2.699  0.3045 -0.2740 -0.2621
   87MOL   C28227974   0.253   7.794   2.678  0.6372  1.4627 -0.7404
   87MOL   H28327975   0.269   7.598   2.780 -0.8088  0.7717 -0.0951
   87MOL   H28427976   0.384   7.591   2.960 -0.1803 -0.8039 -0.9466
   87MOL   H28527977   0.615   7.558   3.048 -0.1025  1.3014  0.7120
   87MOL   H28627978   0.761   7.774   2.705 -1.2720 -0.1459 -0.0170
   87MOL   H28727979   0.542   7.763   2.599 -0.4087  3.1573  1.0605
   87MOL   H28827980   0.255   7.856   2.767  0.2069 -1.1241  1.1425
   87MOL   H28927981   0.323   7.841   2.608  2.5032  1.2660  0.9658
   87MOL   C29027982   0.110   7.798   2.612 -0.0476  0.0110  0.3142
   87MOL   C29127983   0.012   7.693   2.650  0.9002  0.0542  0.4638
   87MOL   C29227984   8.192   7.612   2.552 -0.9541  0.3110 -0.5314
   87MOL   C29327985   8.116   7.506   2.599 -0.2488 -0.2965  0.3194
   87MOL   C29427986   8.094   7.484   2.739 -0.3448 -0.5278  0.1085
   87MOL   F29527987   8.012   7.382   2.787 -0.1185 -0.3251 -0.5339
   87MOL   C29627988   8.147   7.569   2.835  0.1059  0.5830  0.2638
   87MOL   C29727989   8.231   7.672   2.786 -0.5293 -0.1549 -0.2912
   87MOL   C29827990   0.039   7.938   2.627 -0.2005 -0.3314 -0.1656
   87MOL   H29927991   0.133   7.792   2.506 -0.3748  2.6687  0.0461
   87MOL   H30027992   8.228   7.638   2.453 -2.8635 -2.1682 -1.9598
   87MOL   H30127993   8.068   7.440   2.527 -1.8918 -0.3953  1.4767
   87MOL   H30227994   8.130   7.551   2.940  1.9204 -0.5897  0.3762
   87MOL   H30327995   0.057   7.737   2.847  0.5685 -0.2236 -1.2859
   87MOL   H30427996   8.190   7.940   2.556  1.7759  0.1027 -2.5665
   87MOL   H30527997   0.000   7.946   2.728 -2.0866  5.2745 -1.1408
   87MOL   C30627998   0.113   8.073   2.608  0.3195 -0.1197  0.2120
   87MOL   C30727999   0.169   8.093   2.465  0.9898  0.0137 -0.4283
   87MOL   C30828000   0.106   8.032   2.352 -0.6296 -0.4904 -0.5397
   87MOL   C30928001   0.147   8.063   2.223 -0.4813 -0.0517 -0.7947
   87MOL   C31028002   0.253   8.154   2.208  0.0651 -0.0994 -0.6496
   87MOL   F31128003   0.285   8.187   2.080 -0.4755  0.6378 -0.1510
   87MOL   C31228004   0.328   8.206   2.314 -0.1789  0.5499 -1.3961
   87MOL   C31328005   0.283   8.170   2.443  0.0428 -0.1619 -0.0802
   87MOL   C31428006   0.023   8.187   2.642 -0.3467  0.0419  0.1441
   87MOL   H31528007   0.190   8.064   2.684  0.0863 -0.4835  0.4094
   87MOL   H31628008   0.020   7.968   2.360 -1.6685  1.0765  1.2270
   87MOL   H31728009   0.102   8.034   2.129 -0.6998 -1.7839 -0.1632
   87MOL   H31828010   0.411   0.037   2.295 -1.5508  2.7365  0.0355
   87MOL   H31928011   0.339   8.219   2.521  0.1605  1.5969 -1.2337
   87MOL   H32028012   8.178   8.211   2.571 -0.6554 -1.6321 -0.0862
   87MOL   H32128013   8.205   8.174   2.736 -1.7663 -0.0505 -0.6445
   87MOL   H32228014   0.084   0.041   2.662  1.5622 -1.3530  0.5988
   88MOL     C128015   1.089   6.715   4.387 -0.1989 -0.0723 -0.0815
   88MOL     C228016   1.214   6.673   4.313 -0.5989 -0.4573 -0.0901
   88MOL     C328017   1.284   6.759   4.227 -0.4583 -0.6657  0.4904
   88MOL     C428018   1.405   6.715   4.172 -0.6470  0.2691  0.0314
   88MOL     C528019   1.459   6.592   4.192 -0.4391  0.6959 -0.3133
   88MOL     F628020   1.575   6.566   4.133  0.2419  0.1140  0.1664
   88MOL     C728021   1.392   6.504   4.280 -0.3643 -0.0969  0.4955
   88MOL     C828022   1.269   6.543   4.339  0.5979  0.2866  0.0122
   88MOL     C928023   0.955   6.695   4.318 -0.3413  0.1075 -0.2735
   88MOL    H1028024   1.107   6.811   4.437 -0.1697 -2.3141  4.4549
   88MOL    H1128025   1.236   6.855   4.215 -1.4762 -1.2286  0.0021
   88MOL    H1228026   1.460   6.777   4.103 -0.3043  1.7127  1.5514
   88MOL    H1328027   1.427   6.403   4.298 -1.2443 -0.8931 -2.0745
   88MOL    H1428028   1.207   6.471   4.390  1.5219  0.1702  0.9793
   88MOL    H1528029   0.975   6.747   4.224  3.1171  1.9590  1.3901
   88MOL    H1628030   0.940   6.589   4.297  0.2551 -0.1701  0.6519
   88MOL    H1728031   1.082   6.649   4.473 -2.5479  0.6328  0.3091
   88MOL    C1828032   0.838   6.759   4.391 -0.0781 -0.3172  0.2770
   88MOL    C1928033   0.876   6.903   4.419  0.8458 -0.5322  0.0906
   88MOL    C2028034   0.899   7.002   4.319  0.0317 -0.5270  0.0596
   88MOL    C2128035   0.921   7.138   4.356 -0.2174  0.6487 -0.5511
   88MOL    C2228036   0.924   7.174   4.493  0.3591 -0.0291 -0.0060
   88MOL    F2328037   0.924   7.310   4.520 -0.6425 -0.5852  0.1193
   88MOL    C2428038   0.903   7.075   4.592  0.2798 -0.6977 -0.1710
   88MOL    C2528039   0.875   6.943   4.554 -0.3355 -0.5104  0.6380
   88MOL    C2628040   0.704   6.750   4.320 -0.1144 -0.0791 -0.2051
   88MOL    H2728041   0.847   6.698   4.481 -1.3139 -0.9483 -0.0155
   88MOL    H2828042   0.873   6.991   4.215 -3.8143  3.3630  0.4199
   88MOL    H2928043   0.923   7.221   4.287 -0.0769 -0.2424 -1.6390
   88MOL    H3028044   0.886   7.105   4.694 -1.7769 -2.3561 -0.0048
   88MOL    H3128045   0.843   6.877   4.634 -1.5186 -1.2755 -0.4464
   88MOL    H3228046   0.713   6.812   4.230  2.0253 -0.3407 -0.2080
   88MOL    H3328047   0.689   6.649   4.283  1.0617 -0.8974  1.5203
   88MOL    C3428048   0.578   6.797   4.407  0.7548  0.2627 -0.0291
   88MOL    C3528049   0.465   6.847   4.312 -0.5429  0.1734  0.8659
   88MOL    C3628050   0.372   6.765   4.247  0.7074 -0.1276  0.6282
   88MOL    C3728051   0.267   6.817   4.172 -0.2263 -0.4654  0.4159
   88MOL    C3828052   0.251   6.957   4.166  0.2816 -0.4961  0.1720
   88MOL    F3928053   0.141   7.016   4.099 -0.1861  0.7558  0.3388
   88MOL    C4028054   0.336   7.041   4.241 -0.2138  0.1038  0.8392
   88MOL    C4128055   0.440   6.988   4.316  0.6068 -0.5674 -1.0030
   88MOL    C4228056   0.528   6.694   4.507 -0.0117  0.9864 -0.1771
   88MOL    H4328057   0.612   6.878   4.470  0.8590 -1.2510  1.8997
   88MOL    H4428058   0.370   6.657   4.248  2.1727 -0.1708  0.4255
   88MOL    H4528059   0.194   6.743   4.142  1.0581 -1.1120 -1.1780
   88MOL    H4628060   0.322   7.148   4.233 -2.0996 -0.0830  1.4042
   88MOL    H4728061   0.502   7.050   4.379  1.6429 -2.8460  0.3020
   88MOL    H4828062   0.494   6.603   4.457  1.0887  0.4824 -0.0098
   88MOL    H4928063   0.621   6.670   4.558 -1.0211 -0.0120  1.2763
   88MOL    C5028064   0.414   6.749   4.599  0.0900  0.5375 -0.0067
   88MOL    C5128065   0.328   6.631   4.656  0.7175 -0.4487  0.1277
   88MOL    C5228066   0.196   6.605   4.609  0.6160  0.3818  0.8635
   88MOL    C5328067   0.119   6.505   4.674 -0.1499 -0.5048 -0.2967
   88MOL    C5428068   0.174   6.423   4.774 -0.7100  0.3272 -0.3010
   88MOL    F5528069   0.096   6.321   4.827  0.2540 -0.5455  0.2929
   88MOL    C5628070   0.306   6.444   4.813 -0.1064  0.2131 -1.0099
   88MOL    C5728071   0.387   6.548   4.762  0.4365 -0.4047 -0.1704
   88MOL    C5828072   0.461   6.853   4.711 -0.2434  0.3101  0.2356
   88MOL    H5928073   0.348   6.797   4.527 -1.4400 -1.8495 -0.2494
   88MOL    H6028074   0.154   6.672   4.536 -3.4097 -0.4904  2.2446
   88MOL    H6128075   0.021   6.492   4.630 -0.7085 -1.8396  1.2913
   88MOL    H6228076   0.336   6.375   4.891  1.1597  1.6895 -0.1489
   88MOL    H6328077   0.486   6.566   4.801  0.6389 -0.9952 -0.4031
   88MOL    H6428078   0.517   6.810   4.793 -0.3611 -0.0801  0.1108
   88MOL    H6528079   0.539   6.923   4.679  0.5874 -0.7443 -0.0762
   88MOL    C6628080   0.339   6.945   4.756 -0.0995 -0.2567 -0.8434
   88MOL    C6728081   0.274   6.899   4.885 -0.0571 -0.2315 -0.4081
   88MOL    C6828082   0.135   6.876   4.884 -0.3930 -0.1172 -0.1349
   88MOL    C6928083   0.075   6.817   4.999  0.1373 -0.3379  0.1670
   88MOL    C7028084   0.152   6.783   5.114 -0.3606  0.3479 -0.0086
   88MOL    F7128085   0.100   6.724   5.223 -0.4983 -0.1135 -0.1441
   88MOL    C7228086   0.284   6.819   5.116 -0.2082  1.3950  0.3684
   88MOL    C7328087   0.352   6.863   5.000  0.5197  0.0353  0.3260
   88MOL    C7428088   0.376   7.094   4.772 -0.0829 -0.4262  0.0061
   88MOL    H7528089   0.274   6.948   4.668 -1.2276  0.9137  0.0151
   88MOL    H7628090   0.069   6.887   4.799  0.2587  0.4640 -0.5708
   88MOL    H7728091   8.210   6.775   4.992  0.4329 -0.7382 -2.2948
   88MOL    H7828092   0.352   6.794   5.197  0.9805 -0.0426 -1.0611
   88MOL    H7928093   0.457   6.885   5.015  0.9322 -1.1821 -0.6557
   88MOL    H8028094   0.436   7.084   4.862 -1.1075 -1.3904  0.5869
   88MOL    H8128095   0.450   7.117   4.695 -1.6432  2.9393 -0.5862
   88MOL    C8228096   0.266   7.196   4.801 -0.3305  0.1057  0.6283
   88MOL    C8328097   0.291   7.280   4.924 -0.8817  0.4411 -0.0449
   88MOL    C8428098   0.367   7.394   4.934 -0.1846 -0.3573 -0.2729
   88MOL    C8528099   0.389   7.461   5.060  0.0503 -0.2600  0.6753
   88MOL    C8628100   0.338   7.390   5.174 -0.4411 -0.3447  0.1902
   88MOL    F8728101   0.363   7.437   5.299 -0.3647 -0.4804 -0.1624
   88MOL    C8828102   0.261   7.270   5.165 -0.6198  0.3518  0.0957
   88MOL    C8928103   0.229   7.222   5.035 -0.3165 -0.3270  0.0749
   88MOL    C9028104   0.258   7.286   4.679  0.3558 -0.4189  0.8022
   88MOL    H9128105   0.171   7.145   4.811  0.2085 -0.6603  2.1380
   88MOL    H9228106   0.412   7.444   4.850  2.6359  0.5125  1.6819
   88MOL    H9328107   0.444   7.554   5.063 -1.9800  0.9689  0.9385
   88MOL    H9428108   0.231   7.214   5.253 -1.3025  0.2650 -0.1874
   88MOL    H9528109   0.170   7.133   5.024 -0.5284  0.0998 -2.6124
   88MOL    H9628110   0.197   7.375   4.690  0.4599 -0.0938 -1.2162
   88MOL    H9728111   0.356   7.333   4.671 -0.5208  1.1675 -0.6799
   88MOL    C9828112   0.212   7.223   4.543 -0.0560  0.9695 -0.4143
   88MOL    C9928113   0.087   7.131   4.556 -0.1325  0.3840 -0.0097
   88MOL   C10028114   0.080   7.005   4.489 -0.2099 -0.3349  0.4936
   88MOL   C10128115   8.203   6.924   4.511 -0.7701 -0.1286  0.7898
   88MOL   C10228116   8.093   6.972   4.595 -0.7551 -0.1951  0.2611
   88MOL   F10328117   7.987   6.893   4.622 -0.3087 -0.1122 -0.1113
   88MOL   C10428118   8.097   7.101   4.649  0.4576 -0.0378  0.1597
   88MOL   C10528119   8.213   7.178   4.628 -0.3583 -0.3449 -0.3024
   88MOL   C10628120   0.184   7.339   4.434  0.7614 -0.2132 -0.4495
   88MOL   H10728121   0.292   7.162   4.500 -0.8152  0.5477 -1.2504
   88MOL   H10828122   0.167   6.980   4.429  0.0952 -1.0016  1.2138
   88MOL   H10928123   8.202   6.821   4.478  2.1304 -0.1109  0.5158
   88MOL   H11028124   8.007   7.138   4.696  0.0456  0.3436 -0.8980
   88MOL   H11128125   8.213   7.280   4.662 -0.6766 -0.3275 -0.3480
   88MOL   H11228126   0.180   7.300   4.332 -0.6862 -1.4400  0.0477
   88MOL   H11328127   0.086   7.380   4.459  0.1911 -0.6588 -1.8741
   88MOL   C11428128   0.283   7.461   4.425  0.7025 -0.2660  0.6888
   88MOL   C11528129   0.405   7.417   4.345 -0.4168  0.9841 -0.1448
   88MOL   C11628130   0.413   7.408   4.210 -0.3254  0.5075  0.4071
   88MOL   C11728131   0.535   7.392   4.142  0.8117 -0.7084 -0.0194
   88MOL   C11828132   0.650   7.381   4.219  0.2751 -0.1011  0.4777
   88MOL   F11928133   0.769   7.375   4.167  0.0021  0.2392  0.5553
   88MOL   C12028134   0.645   7.386   4.359 -0.1406  0.3752 -0.6184
   88MOL   C12128135   0.522   7.404   4.423 -0.4086 -0.1968 -0.1877
   88MOL   C12228136   0.224   7.594   4.369 -0.4376 -0.1141  0.2985
   88MOL   H12328137   0.315   7.492   4.524 -0.4994  0.1869  0.9377
   88MOL   H12428138   0.320   7.401   4.155 -0.9150 -2.2028  1.6529
   88MOL   H12528139   0.537   7.393   4.034  0.7570  0.8055 -0.0114
   88MOL   H12628140   0.741   7.384   4.409  1.0661  2.9736 -2.6589
   88MOL   H12728141   0.523   7.418   4.530 -0.9161 -0.8585 -0.0913
   88MOL   H12828142   0.296   7.652   4.312 -1.4636 -0.7196 -1.6734
   88MOL   H12928143   0.149   7.564   4.296  0.3664 -0.4813 -0.3765
   88MOL   C13028144   0.164   7.693   4.477 -0.3781 -0.2188  0.2702
   88MOL   C13128145   0.281   7.768   4.540  0.1672 -0.3228 -1.0056
   88MOL   C13228146   0.350   7.880   4.478 -0.2822  0.0613 -0.0993
   88MOL   C13328147   0.470   7.922   4.540 -0.0545  0.2799  0.0294
   88MOL   C13428148   0.515   7.869   4.663  0.1314 -0.9704 -0.0855
   88MOL   F13528149   0.629   7.913   4.721 -0.4044 -0.3187 -0.2347
   88MOL   C13628150   0.443   7.769   4.722 -0.1087  0.3168 -0.0514
   88MOL   C13728151   0.323   7.716   4.661  0.0295  0.1605  0.6815
   88MOL   C13828152   0.055   7.788   4.419  0.5617 -0.2457 -0.2040
   88MOL   H13928153   0.103   7.636   4.547  0.0028  1.5662  2.0741
   88MOL   H14028154   0.308   7.934   4.395  1.1039  2.4766  0.7280
   88MOL   H14128155   0.523   8.003   4.492  0.2904  0.1791  0.2373
   88MOL   H14228156   0.484   7.715   4.806 -0.2751  1.6781  0.9271
   88MOL   H14328157   0.269   7.637   4.709  0.6869  0.9100  2.6971
   88MOL   H14428158   0.024   7.847   4.505 -1.7422  0.0219 -1.1901
   88MOL   H14528159   0.103   7.867   4.361  0.6031 -1.4108 -1.7802
   88MOL   C14628160   8.175   7.746   4.337  0.3896  0.5507 -0.4210
   88MOL   C14728161   8.079   7.667   4.426  1.0326  0.2705  1.2665
   88MOL   C14828162   8.001   7.731   4.518 -0.2914  0.0945 -0.1264
   88MOL   C14928163   7.918   7.648   4.597  0.9885  1.2119 -0.7782
   88MOL   C15028164   7.923   7.508   4.600 -0.6607  0.2652 -0.3861
   88MOL   F15128165   7.856   7.441   4.694  0.2439 -0.3454 -0.4955
   88MOL   C15228166   7.989   7.446   4.494  0.8895  0.0589  0.6599
   88MOL   C15328167   8.078   7.524   4.415 -0.1906 -0.3342 -1.1996
   88MOL   C15428168   8.106   7.859   4.260  0.0631  0.0866  0.6499
   88MOL   H15528169   8.204   7.674   4.261 -2.5838 -0.5301 -0.5938
   88MOL   H15628170   7.994   7.838   4.532  0.6348 -0.0557  1.5873
   88MOL   H15728171   7.848   7.688   4.669  1.3418 -1.3721  1.0558
   88MOL   H15828172   7.994   7.340   4.476  0.8485  0.3587 -1.2878
   88MOL   H15928173   8.138   7.471   4.342  1.3322  0.0548 -0.2523
   88MOL   H16028174   8.061   7.915   4.342  1.1315 -0.1372  1.3998
   88MOL   H16128175   8.181   7.919   4.207  1.5947 -0.9905  1.5581
   88MOL   C16228176   8.000   7.810   4.158  0.0265 -0.0825  0.2672
   88MOL   C16328177   7.899   7.921   4.145 -0.3522 -0.5956  0.0104
   88MOL   C16428178   7.774   7.908   4.203  0.0015 -0.2939  0.3161
   88MOL   C16528179   7.687   8.018   4.203  0.3880  0.3390 -0.0317
   88MOL   C16628180   7.717   8.139   4.140 -0.2162  0.3033  0.7445
   88MOL   F16728181   7.635   0.015   4.152  0.0771 -0.2780 -0.2421
   88MOL   C16828182   7.843   8.155   4.080 -0.2879  0.7142  0.9577
   88MOL   C16928183   7.931   8.049   4.089 -0.1403  0.1052 -0.4758
   88MOL   C17028184   8.054   7.771   4.013 -0.8428 -0.5952 -0.3986
   88MOL   H17128185   7.937   7.728   4.195 -0.3329 -0.0711 -0.3172
   88MOL   H17228186   7.735   7.820   4.250  1.3650 -0.6398  0.8268
   88MOL   H17328187   7.594   8.005   4.256 -0.3666  1.4482 -1.0566
   88MOL   H17428188   7.873   0.013   4.033  0.1477  0.9682  1.7263
   88MOL   H17528189   8.032   8.071   4.056 -0.1762  0.2684 -0.4741
   88MOL   H17628190   8.075   7.857   3.950 -0.8304 -1.4281 -1.5460
   88MOL   H17728191   8.148   7.719   4.032 -1.7551 -1.8577  0.7873
   88MOL   C17828192   7.957   7.678   3.932  0.5503 -0.2260 -0.0901
   88MOL   C17928193   7.989   7.687   3.789  0.4803  0.3218  0.3616
   88MOL   C18028194   7.941   7.800   3.717 -0.2832 -0.0001  0.0257
   88MOL   C18128195   7.980   7.830   3.586  0.0970 -0.3093  0.2848
   88MOL   C18228196   8.056   7.730   3.511 -0.6755 -0.0638  0.5296
   88MOL   F18328197   8.083   7.748   3.382  0.6798  0.3429  0.2774
   88MOL   C18428198   8.102   7.613   3.576  0.2319 -0.0666  0.3486
   88MOL   C18528199   8.068   7.599   3.721  0.0982 -0.0387  1.0130
   88MOL   C18628200   7.965   7.530   3.991 -0.1746 -0.3911 -0.9022
   88MOL   H18728201   7.857   7.720   3.942  0.3489 -0.8710  0.6243
   88MOL   H18828202   7.872   7.863   3.771  0.9340  1.9809 -0.6586
   88MOL   H18928203   7.950   7.918   3.530  0.5139  0.4915  1.2941
   88MOL   H19028204   8.167   7.541   3.528 -1.1856  0.0232 -1.7444
   88MOL   H19128205   8.119   7.518   3.771  0.2126  0.7243  2.1578
   88MOL   H19228206   8.064   7.489   3.972 -0.5711 -1.7185 -0.1778
   88MOL   H19328207   7.959   7.522   4.099  0.8651  0.6461 -0.7645
   88MOL   C19428208   7.860   7.424   3.931  0.0525  0.2988  0.1155
   88MOL   C19528209   7.924   7.284   3.941  1.2953  0.0552 -0.7593
   88MOL   C19628210   7.955   7.234   4.072 -0.7911  0.4478 -0.0067
   88MOL   C19728211   8.026   7.111   4.088  0.2929 -0.6422 -0.3050
   88MOL   C19828212   8.051   7.030   3.973  0.3039  0.0291 -0.1122
   88MOL   F19928213   8.113   6.910   3.989  0.9862 -0.3259  0.1747
   88MOL   C20028214   8.024   7.082   3.845  0.1869 -0.0040 -0.0247
   88MOL   C20128215   7.961   7.208   3.832 -0.4914 -0.3121  0.5978
   88MOL   C20228216   7.719   7.408   3.988 -0.2424  0.5097 -0.7314
   88MOL   H20328217   7.839   7.444   3.826 -0.1029  1.2703  0.3278
   88MOL   H20428218   7.921   7.287   4.160  0.3353 -1.0262  1.3340
   88MOL   H20528219   8.057   7.073   4.184 -0.3941 -1.0305 -0.2353
   88MOL   H20628220   8.060   7.032   3.757 -0.7939 -0.7632 -0.0047
   88MOL   H20728221   7.941   7.240   3.731  0.6684 -0.2226  0.3892
   88MOL   H20828222   7.665   7.333   3.930  1.8125 -0.7749 -1.0182
   88MOL   H20928223   7.720   7.364   4.088  1.1209  1.7945 -0.1831
   88MOL   C21028224   7.649   7.544   4.006  0.1568 -0.3524 -0.6272
   88MOL   C21128225   7.612   7.615   3.874  0.1740 -0.0547 -0.0273
   88MOL   C21228226   7.582   7.538   3.758  1.0275  0.0109  0.5703
   88MOL   C21328227   7.554   7.611   3.645  0.2710  0.0817  0.3458
   88MOL   C21428228   7.552   7.754   3.645  0.0614  0.3797  0.3553
   88MOL   F21528229   7.528   7.821   3.533 -0.1098  0.1350 -0.2194
   88MOL   C21628230   7.587   7.824   3.759 -0.9540 -0.9745 -0.0339
   88MOL   C21728231   7.622   7.757   3.877  0.8135 -0.5470  0.4080
   88MOL   C21828232   7.537   7.548   4.112 -0.0349  0.2072  0.5946
   88MOL   H21928233   7.723   7.607   4.056 -1.5053  0.2496  1.1497
   88MOL   H22028234   7.586   7.431   3.744  1.4827 -0.5237  4.2368
   88MOL   H22128235   7.540   7.569   3.546 -0.1002  2.6734 -0.7302
   88MOL   H22228236   7.579   7.932   3.754 -0.1009 -0.8244  1.4752
   88MOL   H22328237   7.646   7.806   3.971 -2.0295 -1.9502  1.9122
   88MOL   H22428238   7.587   7.529   4.207  1.7723 -0.4839 -0.4631
   88MOL   H22528239   7.511   7.654   4.119  0.4185  0.8678 -5.1456
   88MOL   C22628240   7.402   7.476   4.081  0.0981  0.2686  0.3300
   88MOL   C22728241   7.424   7.326   4.065  0.1211  0.3518  0.9889
   88MOL   C22828242   7.478   7.253   4.170 -0.9140  0.1182  0.6251
   88MOL   C22928243   7.508   7.118   4.154 -0.7535  0.7953 -0.3756
   88MOL   C23028244   7.496   7.053   4.032  0.1776  0.7814  0.3418
   88MOL   F23128245   7.541   6.920   4.022  0.0290  0.0173  0.6979
   88MOL   C23228246   7.442   7.128   3.923  0.3089 -0.1151  0.3124
   88MOL   C23328247   7.404   7.262   3.939 -0.1100  0.5966  0.1398
   88MOL   C23428248   7.303   7.497   4.194 -0.2069  0.3137 -0.0937
   88MOL   H23528249   7.369   7.511   3.984  2.7278 -0.6232 -0.9488
   88MOL   H23628250   7.500   7.299   4.265  4.4463  1.4417 -1.0519
   88MOL   H23728251   7.544   7.053   4.233  1.6357  0.3229 -1.8103
   88MOL   H23828252   7.416   7.069   3.836 -0.0735  0.3668  0.0956
   88MOL   H23928253   7.357   7.308   3.853  2.1970  0.7762 -1.0589
   88MOL   H24028254   7.215   7.433   4.183 -1.5130  1.5678  2.4300
   88MOL   H24128255   7.344   7.454   4.286 -0.6316  0.2815  0.0846
   88MOL   C24228256   7.253   7.638   4.234  0.1345 -0.1682  0.0899
   88MOL   C24328257   7.206   7.712   4.117  0.3023 -0.0301 -0.2154
   88MOL   C24428258   7.268   7.838   4.087  0.1424 -0.1978 -0.9147
   88MOL   C24528259   7.229   7.914   3.975  0.1336 -0.0486 -0.0170
   88MOL   C24628260   7.138   7.862   3.885  0.0652 -0.2145 -0.2165
   88MOL   F24728261   7.118   7.921   3.767  0.1528  0.2951 -0.6273
   88MOL   C24828262   7.075   7.741   3.916  0.3649  0.4820  0.4525
   88MOL   C24928263   7.094   7.673   4.037  0.3473 -0.1995 -0.5443
   88MOL   C25028264   7.142   7.635   4.337  0.2569  0.2763  0.6792
   88MOL   H25128265   7.339   7.698   4.264  0.8891 -0.7226 -0.9228
   88MOL   H25228266   7.342   7.881   4.153 -1.5516  1.5472 -0.0796
   88MOL   H25328267   7.283   8.004   3.948  1.0828 -0.8308 -0.7529
   88MOL   H25428268   7.010   7.701   3.840  1.0631  0.2533 -0.0382
   88MOL   H25528269   7.041   7.581   4.057  1.7254 -0.7769  0.6158
   88MOL   H25628270   7.096   7.733   4.341  4.9024  2.5907  0.2005
   88MOL   H25728271   7.065   7.569   4.295  3.0043 -0.8372 -2.8521
   88MOL   C25828272   7.194   7.599   4.475 -1.2381 -0.0541  0.5399
   88MOL   C25928273   7.305   7.685   4.528 -0.8625 -0.3188 -0.2280
   88MOL   C26028274   7.433   7.625   4.526  0.6825 -0.1525  0.9231
   88MOL   C26128275   7.539   7.692   4.587  0.0959  0.1348 -0.4132
   88MOL   C26228276   7.518   7.822   4.638  0.2904 -0.0168 -0.0455
   88MOL   F26328277   7.625   7.886   4.696  0.3622  0.9476  0.2727
   88MOL   C26428278   7.392   7.888   4.629  0.2867 -0.2104  0.0313
   88MOL   C26528279   7.281   7.816   4.581 -0.1729 -0.0460  0.1633
   88MOL   C26628280   7.079   7.599   4.572  0.5358  0.3982  0.0467
   88MOL   H26728281   7.223   7.498   4.450 -2.3300 -0.1794 -0.2784
   88MOL   H26828282   7.436   7.522   4.497  1.0473  0.1059  0.0315
   88MOL   H26928283   7.637   7.648   4.590  0.4132  0.9453  1.3894
   88MOL   H27028284   7.383   7.988   4.668  0.6911  0.5047 -1.6667
   88MOL   H27128285   7.185   7.867   4.576 -0.5453 -0.8839 -1.8712
   88MOL   H27228286   7.040   7.698   4.595 -0.1154  0.2212 -0.2960
   88MOL   H27328287   6.993   7.543   4.536 -0.3252  2.1372 -0.6275
   88MOL   C27428288   7.120   7.538   4.711 -0.2711  0.1118  0.2616
   88MOL   C27528289   7.092   7.642   4.822 -0.5346 -0.5915 -0.8924
   88MOL   C27628290   7.206   7.705   4.892  0.1366  0.6608  0.0059
   88MOL   C27728291   7.179   7.793   5.001  0.3806 -0.6516 -0.3950
   88MOL   C27828292   7.046   7.819   5.041  0.1714  0.6988 -0.3546
   88MOL   F27928293   7.024   7.878   5.166 -0.4379 -0.1034  0.1330
   88MOL   C28028294   6.938   7.765   4.971 -1.2628  0.0247  0.2365
   88MOL   C28128295   6.962   7.678   4.860  0.0218  0.2912 -0.0903
   88MOL   C28228296   7.049   7.403   4.732  0.4961  0.3911 -0.2565
   88MOL   H28328297   7.228   7.521   4.707 -0.0977  0.4088  2.5730
   88MOL   H28428298   7.308   7.678   4.870  0.4978 -0.4972  2.7910
   88MOL   H28528299   7.259   7.845   5.051  1.5915 -1.3448 -1.5673
   88MOL   H28628300   6.840   7.790   5.008 -0.6352  1.6086  0.8743
   88MOL   H28728301   6.883   7.618   4.816  1.6464 -0.6184 -1.8909
   88MOL   H28828302   6.941   7.419   4.734  0.2533 -0.6894 -3.0049
   88MOL   H28928303   7.067   7.342   4.643  0.0735  1.4535 -1.0844
   88MOL   C29028304   7.096   7.324   4.861  0.3503 -0.8097  0.1110
   88MOL   C29128305   7.017   7.371   4.988  0.0358 -0.3308 -0.0504
   88MOL   C29228306   7.090   7.431   5.094 -0.0892  0.1921 -0.5125
   88MOL   C29328307   7.024   7.469   5.214 -0.7315 -0.0822 -0.2295
   88MOL   C29428308   6.880   7.460   5.216  0.1193 -0.0867 -0.4761
   88MOL   F29528309   6.820   7.499   5.332 -0.1145 -0.0775 -0.2378
   88MOL   C29628310   6.810   7.407   5.105 -0.1961  0.0176  0.0179
   88MOL   C29728311   6.881   7.361   4.995 -0.1476  0.3456  0.0521
   88MOL   C29828312   7.090   7.169   4.831 -0.2046  0.0138 -0.3757
   88MOL   H29928313   7.202   7.345   4.877  0.1338  0.8332 -0.4891
   88MOL   H30028314   7.198   7.433   5.088  0.1344  0.5645  2.6011
   88MOL   H30128315   7.083   7.504   5.298 -1.1358  3.1344 -1.2156
   88MOL   H30228316   6.702   7.399   5.110 -0.1356 -1.1688 -0.3958
   88MOL   H30328317   6.831   7.314   4.912  0.3380  1.0225 -0.6357
   88MOL   H30428318   6.991   7.160   4.786 -0.0474  0.1117 -0.7425
   88MOL   H30528319   7.158   7.130   4.757 -0.5021 -0.9200 -0.1656
   88MOL   C30628320   7.094   7.079   4.957 -0.7693 -0.1525 -0.1932
   88MOL   C30728321   7.086   6.935   4.923 -0.2550 -0.0222  1.0860
   88MOL   C30828322   6.988   6.893   4.827  0.2662  0.1333  0.1004
   88MOL   C30928323   6.984   6.762   4.781 -0.0740 -0.0505 -0.2930
   88MOL   C31028324   7.073   6.662   4.828 -0.9037  0.3218  0.0983
   88MOL   F31128325   7.070   6.535   4.783  0.4314  0.1932 -0.0730
   88MOL   C31228326   7.171   6.701   4.923  0.4950  0.3655 -0.0869
   88MOL   C31328327   7.177   6.836   4.965  0.1265 -0.5535  0.3263
   88MOL   C31428328   7.218   7.106   5.040  0.1485  0.2420 -0.0728
   88MOL   H31528329   7.018   7.108   5.030  0.2632  0.3278  0.7033
   88MOL   H31628330   6.915   6.960   4.783 -0.1542 -0.3181  0.1045
   88MOL   H31728331   6.903   6.739   4.713 -1.5441 -0.1789  1.4622
   88MOL   H31828332   7.236   6.629   4.970  2.3473  0.8608 -1.8027
   88MOL   H31928333   7.242   6.855   5.050  0.1320  0.4342  0.1055
   88MOL   H32028334   7.226   7.208   5.076 -2.2800  0.6723 -0.6913
   88MOL   H32128335   7.212   7.055   5.136  1.6052  0.3333  0.0749
   88MOL   H32228336   7.313   7.071   4.999 -0.2876 -0.9572 -0.0895
   89MOL     C128337   4.602   3.962   1.033  0.3786  0.2472 -0.1421
   89MOL     C228338   4.573   4.111   1.040 -0.6921  0.4983  0.2069
   89MOL     C328339   4.669   4.207   1.059  0.0136 -0.1302 -0.4612
   89MOL     C428340   4.640   4.342   1.069  0.1388  0.4627  1.0604
   89MOL     C528341   4.506   4.384   1.051  0.0079 -0.2533 -0.2451
   89MOL     F628342   4.474   4.517   1.051 -0.2968 -0.5050 -0.0811
   89MOL     C728343   4.410   4.294   1.011 -0.0285  0.5702 -0.0309
   89MOL     C828344   4.440   4.155   1.019 -0.1453  0.7046 -0.3280
   89MOL     C928345   4.665   3.916   0.902 -0.7618  0.1342 -0.2379
   89MOL    H1028346   4.506   3.910   1.031 -0.0247  0.9909  0.0338
   89MOL    H1128347   4.774   4.193   1.080  0.2113  3.4705  1.3290
   89MOL    H1228348   4.717   4.413   1.092  1.0492  0.4376 -1.6578
   89MOL    H1328349   4.310   4.332   0.995 -1.0903 -1.4951  1.5249
   89MOL    H1428350   4.362   4.084   0.997  0.0245  0.4644 -0.1664
   89MOL    H1528351   4.595   3.960   0.831 -1.6060  1.2780  1.2752
   89MOL    H1628352   4.763   3.958   0.876 -0.6934  0.0289 -0.1450
   89MOL    H1728353   4.658   3.930   1.121  1.8739  0.6507 -0.9182
   89MOL    C1828354   4.671   3.768   0.876 -0.0819  0.0457  0.1694
   89MOL    C1928355   4.685   3.746   0.726  0.4292 -1.0739 -0.2045
   89MOL    C2028356   4.582   3.690   0.646  0.2651  0.0852  0.1317
   89MOL    C2128357   4.593   3.681   0.505 -0.5491 -0.2739  0.0542
   89MOL    C2228358   4.702   3.746   0.438 -0.4592 -0.6171  0.2450
   89MOL    F2328359   4.710   3.747   0.299  0.1876 -0.2548 -0.4372
   89MOL    C2428360   4.806   3.805   0.515  0.3771 -0.3786 -0.3805
   89MOL    C2528361   4.798   3.799   0.656  0.2914 -0.4671 -0.5727
   89MOL    C2628362   4.785   3.700   0.956  0.2971  0.3530 -0.1318
   89MOL    H2728363   4.575   3.725   0.907 -0.8885  1.7916  0.1494
   89MOL    H2828364   4.492   3.651   0.690  0.4625 -0.9370 -0.3490
   89MOL    H2928365   4.517   3.640   0.439 -0.4397  1.4550 -1.2133
   89MOL    H3028366   4.891   3.859   0.476 -0.0487  1.0017  0.5525
   89MOL    H3128367   4.880   3.850   0.705 -0.1244 -1.3805  1.0831
   89MOL    H3228368   4.801   3.604   0.907 -1.2545 -0.3447  0.6837
   89MOL    H3328369   4.876   3.761   0.952 -0.0629  0.8377 -0.9523
   89MOL    C3428370   4.767   3.649   1.103  0.3514  0.2517  0.0431
   89MOL    C3528371   4.629   3.588   1.128 -0.3087  0.4436 -1.1212
   89MOL    C3628372   4.577   3.487   1.046 -0.0107 -0.0841 -0.4682
   89MOL    C3728373   4.451   3.444   1.050  0.8292  0.3061  0.8264
   89MOL    C3828374   4.365   3.500   1.143 -0.7051 -0.0246 -0.0514
   89MOL    F3928375   4.245   3.448   1.158 -0.1776 -0.0632 -0.2165
   89MOL    C4028376   4.410   3.601   1.232 -0.7702 -0.3696  0.2331
   89MOL    C4128377   4.541   3.648   1.221  0.2590 -0.4664 -0.0509
   89MOL    C4228378   4.878   3.550   1.140 -0.0778 -0.1461  0.3819
   89MOL    H4328379   4.783   3.740   1.160  1.5945 -0.5476  1.0018
   89MOL    H4428380   4.640   3.443   0.970  1.8975  0.3592  0.8065
   89MOL    H4528381   4.420   3.361   0.988 -1.4379  1.3129  0.5601
   89MOL    H4628382   4.360   3.644   1.318  0.6563 -0.4696  1.1351
   89MOL    H4728383   4.566   3.738   1.274 -2.9972  1.0022 -0.9041
   89MOL    H4828384   4.843   3.488   1.223 -3.7106  1.0119 -0.1740
   89MOL    H4928385   4.880   3.483   1.054  1.2399  2.4573 -1.7018
   89MOL    C5028386   5.015   3.608   1.169 -0.0108 -0.2469  0.0946
   89MOL    C5128387   5.011   3.692   1.294 -0.0352 -0.3570 -0.7995
   89MOL    C5228388   5.072   3.823   1.299  0.2885 -0.1664 -0.4338
   89MOL    C5328389   5.077   3.904   1.415  0.4858 -0.6657  0.2745
   89MOL    C5428390   5.018   3.858   1.533 -0.6111  0.2380  0.4425
   89MOL    F5528391   5.024   3.938   1.645 -0.1082  0.3136 -0.0361
   89MOL    C5628392   4.963   3.729   1.532 -0.0065 -0.1793  0.1671
   89MOL    C5728393   4.960   3.644   1.418 -0.8900 -0.0851 -0.1785
   89MOL    C5828394   5.131   3.507   1.179  0.4324 -0.2784 -0.3920
   89MOL    H5928395   5.031   3.683   1.092  0.5812 -0.6606 -0.1924
   89MOL    H6028396   5.118   3.851   1.205  1.2441 -1.8240 -0.4703
   89MOL    H6128397   5.130   3.997   1.401 -1.8870  0.6909  0.0009
   89MOL    H6228398   4.929   3.677   1.620  0.7137 -0.8210  0.0680
   89MOL    H6328399   4.926   3.541   1.429  1.7992 -1.0031 -0.2218
   89MOL    H6428400   5.228   3.555   1.192  0.1022  0.4659 -0.6290
   89MOL    H6528401   5.115   3.444   1.267 -4.6079  1.3451  0.0007
   89MOL    C6628402   5.148   3.411   1.057 -0.4659  0.0656  0.3525
   89MOL    C6728403   5.295   3.416   1.015 -0.7927  0.2886  0.5634
   89MOL    C6828404   5.397   3.388   1.102 -0.2038 -0.0462 -0.1041
   89MOL    C6928405   5.531   3.403   1.066  0.6617 -0.6201  0.1174
   89MOL    C7028406   5.566   3.446   0.938  0.9056 -0.2949  0.0129
   89MOL    F7128407   5.696   3.457   0.892  0.1920 -0.2331 -0.2018
   89MOL    C7228408   5.461   3.474   0.851  0.0494 -0.2149  0.6612
   89MOL    C7328409   5.328   3.469   0.887  1.0095 -0.1626  0.5504
   89MOL    C7428410   5.094   3.261   1.084  0.4557 -0.5484  0.6952
   89MOL    H7528411   5.091   3.457   0.976 -1.1305  0.0523  0.8073
   89MOL    H7628412   5.376   3.364   1.205 -2.8212  0.2317 -0.5517
   89MOL    H7728413   5.622   3.397   1.124  0.0608 -1.9665  0.9446
   89MOL    H7828414   5.495   3.504   0.753 -2.0836  1.7858  0.4589
   89MOL    H7928415   5.253   3.496   0.815  0.3394 -0.9971  0.9269
   89MOL    H8028416   5.177   3.201   1.120  1.1766  0.2585  0.3786
   89MOL    H8128417   5.015   3.277   1.157  2.1133 -0.6728  2.5533
   89MOL    C8228418   5.027   3.199   0.960  0.1704 -0.2844 -0.4280
   89MOL    C8328419   5.105   3.202   0.832 -0.3734 -0.6563 -0.0080
   89MOL    C8428420   5.219   3.119   0.832 -0.4163 -0.4515 -0.4151
   89MOL    C8528421   5.297   3.110   0.721 -0.8530 -0.4922  0.5662
   89MOL    C8628422   5.260   3.182   0.600 -0.0089 -0.3837  0.1948
   89MOL    F8728423   5.332   3.162   0.480  0.4398 -0.2476 -0.1701
   89MOL    C8828424   5.151   3.268   0.600 -0.7932 -0.4767  0.1378
   89MOL    C8928425   5.069   3.275   0.714  0.8988 -0.2744  0.3927
   89MOL    C9028426   4.959   3.066   0.995  0.0968 -0.0587 -0.0835
   89MOL    H9128427   4.944   3.268   0.949  0.3628 -0.1887 -1.2860
   89MOL    H9228428   5.242   3.061   0.921  1.2697 -2.3610 -2.0562
   89MOL    H9328429   5.386   3.050   0.721 -0.5631 -0.0872  2.7225
   89MOL    H9428430   5.125   3.330   0.515  0.4835  2.0550  1.5598
   89MOL    H9528431   4.985   3.342   0.707 -0.0773 -1.5858 -0.5797
   89MOL    H9628432   5.029   2.999   1.045  1.7967  1.4370 -0.4312
   89MOL    H9728433   4.890   3.092   1.075  0.0999 -1.6903  0.4679
   89MOL    C9828434   4.890   2.991   0.872 -0.3038  0.4408  0.1974
   89MOL    C9928435   4.844   2.857   0.906 -0.1625 -0.1009 -0.3459
   89MOL   C10028436   4.888   2.748   0.820  0.0590 -0.1961 -0.1785
   89MOL   C10128437   4.856   2.616   0.853 -0.3560  0.4581 -0.1300
   89MOL   C10228438   4.786   2.591   0.970  0.1024 -0.1494  0.1726
   89MOL   F10328439   4.752   2.462   1.005 -0.1013  0.0366 -0.0765
   89MOL   C10428440   4.739   2.699   1.049 -0.0930 -0.2084  0.2634
   89MOL   C10528441   4.765   2.834   1.017 -0.1440 -0.4267 -0.0985
   89MOL   C10628442   4.766   3.077   0.824 -0.4908 -0.2325  0.1759
   89MOL   H10728443   4.955   2.976   0.786 -0.8379 -0.9673  0.0391
   89MOL   H10828444   4.946   2.770   0.731 -0.4790 -0.0762 -0.4982
   89MOL   H10928445   4.887   2.531   0.794 -2.5345 -0.5166  0.0590
   89MOL   H11028446   4.667   2.674   1.125 -0.7583  0.4903 -0.1312
   89MOL   H11128447   4.733   2.910   1.087  0.7193  0.7881 -1.0049
   89MOL   H11228448   4.695   3.079   0.907 -1.0617  0.1759 -0.3192
   89MOL   H11328449   4.788   3.181   0.800 -0.6795 -0.3313 -0.4306
   89MOL   C11428450   4.705   3.024   0.687 -0.2565  0.8419  0.2636
   89MOL   C11528451   4.560   3.079   0.684 -0.4224  0.1630 -0.0676
   89MOL   C11628452   4.457   2.985   0.659  0.3126  0.2529 -0.1494
   89MOL   C11728453   4.318   3.030   0.655 -0.7439 -0.5192 -0.3721
   89MOL   C11828454   4.291   3.163   0.683  0.1558  0.1684  0.9117
   89MOL   F11928455   4.169   3.203   0.669  0.0685  0.2682  0.1215
   89MOL   C12028456   4.396   3.251   0.713 -0.1819  0.1340 -0.4534
   89MOL   C12128457   4.529   3.214   0.714  0.0846  0.4273 -0.6347
   89MOL   C12228458   4.787   3.080   0.566 -0.3405 -0.2178  0.2095
   89MOL   H12328459   4.707   2.915   0.683  2.1536  0.9310 -2.3097
   89MOL   H12428460   4.481   2.882   0.636  1.5463  0.2906  0.8857
   89MOL   H12528461   4.246   2.960   0.615 -0.0071 -1.0828 -0.7284
   89MOL   H12628462   4.369   3.356   0.720  2.4740  0.8142  0.1037
   89MOL   H12728463   4.606   3.291   0.720  0.4929 -0.1551  2.2817
   89MOL   H12828464   4.737   3.172   0.534 -0.5499 -0.7246 -0.9329
   89MOL   H12928465   4.885   3.112   0.601 -0.4998 -0.3298  0.7619
   89MOL   C13028466   4.793   2.981   0.450 -0.2935 -0.2930  0.2915
   89MOL   C13128467   4.656   2.953   0.387  0.5010  0.7115  0.5665
   89MOL   C13228468   4.620   2.816   0.353  0.0441 -1.0956  0.6635
   89MOL   C13328469   4.494   2.785   0.296  0.1465  0.8319  0.4876
   89MOL   C13428470   4.418   2.891   0.243  0.0262  0.3658  0.2947
   89MOL   F13528471   4.296   2.870   0.190  0.0945 -0.0819  0.0461
   89MOL   C13628472   4.466   3.022   0.260  1.2660  0.1988 -0.4133
   89MOL   C13728473   4.576   3.055   0.339  0.2434  0.0694 -0.7529
   89MOL   C13828474   4.904   3.027   0.345 -0.0665 -0.3927 -0.4633
   89MOL   H13928475   4.825   2.887   0.495 -0.2236  0.4178  1.7839
   89MOL   H14028476   4.687   2.741   0.391  1.8459  0.9837  1.7282
   89MOL   H14128477   4.467   2.683   0.276 -0.4344  0.9024  0.9142
   89MOL   H14228478   4.411   3.106   0.219  1.4394 -0.5961 -2.3277
   89MOL   H14328479   4.595   3.159   0.359 -2.5625  0.3779  0.6580
   89MOL   H14428480   4.888   3.134   0.333 -1.5752 -0.6120 -0.4753
   89MOL   H14528481   4.997   3.012   0.400 -0.4127 -1.2252 -0.0928
   89MOL   C14628482   4.911   2.958   0.204  0.2155  0.1046 -0.1814
   89MOL   C14728483   5.002   3.043   0.113  0.5900 -0.2797 -0.5579
   89MOL   C14828484   4.960   3.112   8.231 -0.8472 -0.0075  0.3917
   89MOL   C14928485   5.052   3.207   8.170 -0.3456  0.4896 -0.3885
   89MOL   C15028486   5.184   3.228   8.223 -0.0284  0.4117  0.3382
   89MOL   F15128487   5.263   3.329   8.180  0.2007  0.8500 -0.5893
   89MOL   C15228488   5.227   3.137   0.087 -0.2145 -0.1878  0.2279
   89MOL   C15328489   5.136   3.062   0.162 -0.1144 -0.3160  0.8126
   89MOL   C15428490   4.961   2.812   0.218 -0.0814  0.0614 -0.1150
   89MOL   H15528491   4.813   2.970   0.157  0.3506 -0.4346 -0.6077
   89MOL   H15628492   4.862   3.103   8.188 -1.1542 -1.4049  1.3504
   89MOL   H15728493   5.033   3.267   8.082  0.8852  0.7424 -0.4968
   89MOL   H15828494   5.329   3.153   0.120  0.4135 -0.1240 -1.6795
   89MOL   H15928495   5.172   3.000   0.243  3.3288 -1.2266 -1.2691
   89MOL   H16028496   5.068   2.818   0.238 -0.2292 -2.2153  1.6206
   89MOL   H16128497   4.926   2.773   0.314  1.1202 -3.1219 -0.8985
   89MOL   C16228498   4.928   2.733   0.095  0.0959 -0.5275 -0.0203
   89MOL   C16328499   4.998   2.779   8.209 -0.5109 -0.4834 -0.1118
   89MOL   C16428500   4.927   2.829   8.101 -0.5178 -0.0755  0.0492
   89MOL   C16528501   4.982   2.841   7.972 -0.8182  0.5314  0.4957
   89MOL   C16628502   5.120   2.825   7.955 -0.3457  0.3211 -0.7738
   89MOL   F16728503   5.182   2.849   7.836  0.6099 -0.3971 -0.0604
   89MOL   C16828504   5.201   2.777   8.070  0.9878  0.1947 -0.4368
   89MOL   C16928505   5.139   2.749   8.188 -0.5175 -0.3435  0.3101
   89MOL   C17028506   4.957   2.578   0.121  0.6865 -0.7912 -0.4304
   89MOL   H17128507   4.821   2.751   0.083  0.4356  1.1142 -0.7106
   89MOL   H17228508   4.820   2.841   8.110 -0.7346  0.7999 -3.2830
   89MOL   H17328509   4.927   2.882   7.889 -1.7628 -1.0930  0.3134
   89MOL   H17428510   5.306   2.753   8.060  1.3363  2.2723 -2.5506
   89MOL   H17528511   5.195   2.701   0.033 -1.5302 -0.8435  0.7287
   89MOL   H17628512   5.065   2.570   0.128  0.5227 -2.0240  1.1944
   89MOL   H17728513   4.914   2.557   0.219  1.0258  0.7071  0.0453
   89MOL   C17828514   4.885   2.477   0.033  0.3687  0.2789 -0.1256
   89MOL   C17928515   4.734   2.492   0.042  0.5192  0.2178 -0.3936
   89MOL   C18028516   4.656   2.586   8.205 -0.2305 -0.0212  0.0317
   89MOL   C18128517   4.515   2.596   8.212  0.1702  0.2264 -0.3504
   89MOL   C18228518   4.443   2.511   0.061 -0.4251 -0.3286  0.3980
   89MOL   F18328519   4.307   2.517   0.066 -0.2755 -0.1031  0.4203
   89MOL   C18428520   4.516   2.407   0.123  0.2848 -0.1342  0.8326
   89MOL   C18528521   4.658   2.395   0.118 -0.2561  0.2169  0.3337
   89MOL   C18628522   4.948   2.455   8.128  0.1564 -0.4295 -0.0974
   89MOL   H18728523   4.909   2.388   0.090 -0.2799  0.0880 -0.1523
   89MOL   H18828524   4.717   2.656   8.150  0.7958  1.3166  2.8087
   89MOL   H18928525   4.460   2.670   8.155 -2.7194 -1.5946 -0.0529
   89MOL   H19028526   4.468   2.338   0.192  0.2714 -0.9966 -0.0200
   89MOL   H19128527   4.705   2.310   0.165  0.7213  0.2549 -0.5546
   89MOL   H19228528   4.875   2.420   8.055  0.5120 -3.1549  0.7858
   89MOL   H19328529   4.990   2.543   8.081 -0.1857  0.1627  0.6933
   89MOL   C19428530   5.054   2.333   8.136 -0.2173 -0.0838 -0.3029
   89MOL   C19528531   5.092   2.285   7.996  0.7404 -0.3559  0.2053
   89MOL   C19628532   5.091   2.152   7.957 -0.0318 -0.7128  0.1570
   89MOL   C19728533   5.124   2.113   7.822  0.4602 -0.4273 -0.4383
   89MOL   C19828534   5.171   2.206   7.730  0.3312 -0.6394 -0.2170
   89MOL   F19928535   5.209   2.165   7.609  0.1973  0.1465  0.5582
   89MOL   C20028536   5.173   2.345   7.765 -0.4659  0.4527  0.3000
   89MOL   C20128537   5.137   2.383   7.900 -0.4022  0.0900 -0.4624
   89MOL   C20228538   5.179   2.394   8.208 -0.3528 -0.8887 -0.5040
   89MOL   H20328539   5.020   2.250   8.199  0.9437  0.4004  0.9867
   89MOL   H20428540   5.047   2.084   8.028 -1.0207  0.6577  0.8787
   89MOL   H20528541   5.122   2.009   7.793  0.8581 -0.4239 -0.4795
   89MOL   H20628542   5.197   2.413   7.686 -3.3557  1.4808  0.2338
   89MOL   H20728543   5.145   2.486   7.931 -1.7312 -0.2208  0.9646
   89MOL   H20828544   5.205   2.492   8.170 -1.1081 -0.2177  0.6736
   89MOL   H20928545   5.158   2.406   0.080 -0.1337  1.1571 -0.6738
   89MOL   C21028546   5.315   2.317   8.194 -0.1218  0.1933  0.0612
   89MOL   C21128547   5.431   2.401   0.010 -0.3209  0.6771 -0.4804
   89MOL   C21228548   5.500   2.489   8.156 -0.2644 -0.7861 -0.2934
   89MOL   C21328549   5.607   2.579   8.209  0.6830  0.5507 -0.1286
   89MOL   C21428550   5.637   2.573   0.115 -0.3764  1.0374  0.3487
   89MOL   F21528551   5.749   2.635   0.156  0.1831 -0.0189 -0.3023
   89MOL   C21628552   5.568   2.484   0.197  0.1458  0.0296 -0.2233
   89MOL   C21728553   5.462   2.402   0.147 -0.3173  0.7869  0.2575
   89MOL   C21828554   5.312   2.173   0.010  0.5598  0.1319 -0.0395
   89MOL   H21928555   5.324   2.307   8.086 -1.0992 -1.4401  0.1083
   89MOL   H22028556   5.474   2.499   8.052  1.4980  0.3094 -0.6610
   89MOL   H22128557   5.654   2.641   8.135  0.8125  1.4222  0.6852
   89MOL   H22228558   5.593   2.485   0.303  2.2123 -1.6523 -0.6659
   89MOL   H22328559   5.401   2.344   0.214  2.2020 -0.4831  1.5518
   89MOL   H22428560   5.271   2.171   0.111  0.6489  1.6914  0.0430
   89MOL   H22528561   5.248   2.122   8.173  2.0331  0.2603 -1.4890
   89MOL   C22628562   5.456   2.100   0.006  0.5166  0.0726  0.7070
   89MOL   C22728563   5.447   1.971   0.093 -0.5882 -0.3853  1.1520
   89MOL   C22828564   5.355   1.869   0.061 -0.4276 -0.1766 -0.2015
   89MOL   C22928565   5.341   1.755   0.147  0.2363 -0.8305  0.1624
   89MOL   C23028566   5.432   1.734   0.251  0.3003  0.1164 -0.3349
   89MOL   F23128567   5.434   1.629   0.337  0.1403 -0.0945 -0.3721
   89MOL   C23228568   5.536   1.834   0.273  0.1834 -0.4530  0.0474
   89MOL   C23328569   5.537   1.953   0.200 -0.2366 -0.4295  0.0916
   89MOL   C23428570   5.509   2.065   8.103  0.5208 -0.1432  0.2859
   89MOL   H23528571   5.533   2.163   0.050  0.2043  2.0652 -1.4800
   89MOL   H23628572   5.295   1.886   8.208  2.6880  0.6239 -2.2694
   89MOL   H23728573   5.267   1.679   0.126  0.5563 -1.2346  0.4835
   89MOL   H23828574   5.605   1.820   0.355 -1.3156  1.2906  1.6669
   89MOL   H23928575   5.611   2.028   0.224 -0.6012 -0.3436  0.9901
   89MOL   H24028576   5.463   1.975   8.062 -0.0603  0.9643 -1.5994
   89MOL   H24128577   5.487   2.151   8.039 -0.3994  0.2724  1.1471
   89MOL   C24228578   5.662   2.064   8.075 -0.1343  0.8787  0.6145
   89MOL   C24328579   5.679   2.033   7.927 -0.1995  0.2664  0.2483
   89MOL   C24428580   5.620   2.105   7.820 -0.2319 -0.3098  0.5499
   89MOL   C24528581   5.639   2.069   7.687  0.7586 -0.4011  0.4183
   89MOL   C24628582   5.723   1.961   7.658  0.4160 -0.5074 -1.0418
   89MOL   F24728583   5.739   1.936   7.524 -0.1720 -0.0787 -0.0904
   89MOL   C24828584   5.767   1.877   7.759 -0.5472  0.4925 -0.1835
   89MOL   C24928585   5.750   1.911   7.896  0.6629 -0.8026 -0.3708
   89MOL   C25028586   5.736   2.195   8.113  0.7047  0.4549  0.2078
   89MOL   H25128587   5.713   1.992   8.139  1.6721 -0.0389 -1.7590
   89MOL   H25228588   5.556   2.190   7.833 -0.4617 -0.1106 -1.7890
   89MOL   H25328589   5.598   2.128   7.606 -1.0611 -2.1737  0.0274
   89MOL   H25428590   5.822   1.792   7.721  1.8116  1.2132  1.4875
   89MOL   H25528591   5.797   1.859   7.978  0.8088 -0.9719 -0.5632
   89MOL   H25628592   5.676   2.278   8.075  0.6278  0.5651  0.5690
   89MOL   H25728593   5.747   2.198   8.222 -2.2390 -0.5025  0.5925
   89MOL   C25828594   5.881   2.207   8.053 -0.1711  0.1761 -0.4867
   89MOL   C25928595   5.937   2.345   8.086  0.7318  0.6301 -0.0226
   89MOL   C26028596   5.941   2.392   8.226 -0.0816 -0.1730 -0.0378
   89MOL   C26128597   5.995   2.522   0.015  0.2604  0.8088 -0.3213
   89MOL   C26228598   6.049   2.593   8.140  0.2012  0.5865 -0.1005
   89MOL   F26328599   6.108   2.714   8.156 -0.0948 -0.7327  0.6055
   89MOL   C26428600   6.039   2.551   8.009  0.4038  0.1336  0.0997
   89MOL   C26528601   5.979   2.422   7.983 -0.6933  0.4499 -0.0136
   89MOL   C26628602   5.976   2.097   8.107  0.8223 -0.2981 -0.1166
   89MOL   H26728603   5.881   2.207   7.944  1.0493  2.6865 -0.5270
   89MOL   H26828604   5.913   2.323   0.069  1.0418 -0.2468  0.3052
   89MOL   H26928605   6.007   2.571   0.110  0.7923  1.0237 -0.5007
   89MOL   H27028606   6.079   2.608   7.926  0.1330 -0.4178 -0.4230
   89MOL   H27128607   5.977   2.393   7.879 -1.3763 -1.6735  0.5688
   89MOL   H27228608   5.969   2.102   8.216 -3.3942  1.3356 -0.3668
   89MOL   H27328609   5.932   1.999   8.090 -1.8598  0.7213  0.7284
   89MOL   C27428610   6.121   2.103   8.066  0.0268 -0.2857 -0.1352
   89MOL   C27528611   6.202   2.009   8.162 -0.1588 -0.1215  0.6707
   89MOL   C27628612   6.173   1.874   8.170  0.8190  0.3725 -0.7104
   89MOL   C27728613   6.265   1.781   8.231 -0.2383 -0.1325  0.9537
   89MOL   C27828614   6.380   1.819   0.060 -0.4387 -0.1139 -0.2607
   89MOL   F27928615   6.456   1.733   0.125  0.8556 -0.1702 -0.4934
   89MOL   C28028616   6.415   1.957   0.039 -0.2020 -0.2749  0.2841
   89MOL   C28128617   6.331   2.050   8.210 -0.3419 -0.0356 -0.2548
   89MOL   C28228618   6.157   2.085   7.912  0.7015  1.0379  0.4443
   89MOL   H28328619   6.142   2.208   8.088  0.1144 -0.5553  1.1095
   89MOL   H28428620   6.081   1.829   8.133  0.2711  0.9664 -0.0909
   89MOL   H28528621   6.237   1.677   8.234 -1.1247 -0.1332 -3.7877
   89MOL   H28628622   6.506   1.988   0.089  0.6283  0.1049 -1.4574
   89MOL   H28728623   6.373   2.149   8.201  1.2505 -0.5048  1.6711
   89MOL   H28828624   6.141   1.979   7.895  1.9021  0.9479 -0.1534
   89MOL   H28928625   6.082   2.134   7.849 -0.6511 -1.5390  0.0014
   89MOL   C29028626   6.295   2.139   7.865 -0.2864  0.3710  0.0052
   89MOL   C29128627   6.298   2.133   7.713 -0.3633 -0.2232 -0.1327
   89MOL   C29228628   6.203   2.202   7.632 -0.5274 -0.2065 -0.0925
   89MOL   C29328629   6.201   2.193   7.493 -0.1840  0.2840  0.2411
   89MOL   C29428630   6.313   2.134   7.428 -0.2754 -0.1634  0.1624
   89MOL   F29528631   6.324   2.153   7.296 -0.1734 -0.2750 -0.3029
   89MOL   C29628632   6.410   2.077   7.504 -0.1750 -0.0136  0.1093
   89MOL   C29728633   6.402   2.068   7.646 -0.3133  0.3409 -0.2068
   89MOL   C29828634   6.330   2.279   7.924  0.5067  0.0830  0.3319
   89MOL   H29928635   6.367   2.067   7.905 -1.5860 -2.0178 -1.8856
   89MOL   H30028636   6.129   2.264   7.679 -0.4674 -1.1450  1.2707
   89MOL   H30128637   6.125   2.236   7.430  0.8385 -0.4436 -1.5268
   89MOL   H30228638   6.501   2.051   7.453 -1.8098 -2.5348 -1.6729
   89MOL   H30328639   6.483   2.016   7.696 -0.0812 -1.0109 -1.9442
   89MOL   H30428640   6.243   2.342   7.908  1.8092  1.9474  0.3855
   89MOL   H30528641   6.352   2.278   8.031  1.1268  0.3396  0.2109
   89MOL   C30628642   6.465   2.346   7.869 -0.3272  0.5526 -0.1905
   89MOL   C30728643   6.470   2.501   7.891  0.2476  0.8951  0.2049
   89MOL   C30828644   6.412   2.563   8.004  0.1435  0.1302  0.3119
   89MOL   C30928645   6.409   2.704   8.010 -0.5330 -0.0571 -0.5759
   89MOL   C31028646   6.473   2.782   7.912  0.6227 -0.0818  0.1514
   89MOL   F31128647   6.457   2.915   7.910  0.0755 -0.1732 -0.0484
   89MOL   C31228648   6.558   2.720   7.813 -0.2919 -0.6649  0.2567
   89MOL   C31328649   6.544   2.582   7.802 -0.4730 -0.2981  0.5994
   89MOL   C31428650   6.596   2.289   7.927 -0.7022 -0.1223  0.2375
   89MOL   H31528651   6.473   2.331   7.761 -0.0600 -1.1238  0.0587
   89MOL   H31628652   6.376   2.499   8.084  2.6631 -0.8686  0.7269
   89MOL   H31728653   6.347   2.749   8.086 -0.5130  0.2031 -0.7126
   89MOL   H31828654   6.610   2.782   7.742  1.9113 -1.2599  1.3254
   89MOL   H31928655   6.600   2.524   7.730  1.3375  1.1662  0.8020
   89MOL   H32028656   6.687   2.318   7.875  0.0212 -1.8423  0.4930
   89MOL   H32128657   6.593   2.309   8.034  0.8517  2.2926 -0.1331
   89MOL   H32228658   6.590   2.182   7.907 -0.7687 -0.0274 -0.2586
   90MOL     C128659   1.165   8.226   5.605  0.4455 -0.6171 -0.3103
   90MOL     C228660   1.153   0.142   5.635  0.5928  0.6008  0.3305
   90MOL     C328661   1.261   0.222   5.608  0.1064  0.0150  0.4701
   90MOL     C428662   1.262   0.363   5.616 -0.1040 -0.3439  0.5500
   90MOL     C528663   1.141   0.416   5.661  0.6798  0.3379  0.2521
   90MOL     F628664   1.121   0.547   5.681  0.4266  0.7434 -0.0146
   90MOL     C728665   1.036   0.335   5.707 -0.0049  0.7162  0.4665
   90MOL     C828666   1.039   0.195   5.689 -0.3684  0.3505  0.2157
   90MOL     C928667   1.085   8.188   5.478 -0.3110 -0.5264 -0.3000
   90MOL    H1028668   1.128   8.185   5.698 -0.1389 -2.2248 -1.2393
   90MOL    H1128669   1.354   0.172   5.584  1.6697  2.7837  0.6391
   90MOL    H1228670   1.344   0.425   5.583 -1.4757  1.2909  0.1668
   90MOL    H1328671   0.944   0.376   5.746 -0.4039  0.9218 -0.6678
   90MOL    H1428672   0.956   0.135   5.724 -0.8623  0.0344 -1.4761
   90MOL    H1528673   0.982   8.224   5.473 -0.6631 -1.4931 -0.1395
   90MOL    H1628674   1.135   8.223   5.388 -1.1126  0.5011 -0.3506
   90MOL    H1728675   1.269   8.193   5.602  0.8662  0.1898  3.0251
   90MOL    C1828676   1.063   8.039   5.463  0.1382 -0.1163  0.0374
   90MOL    C1928677   1.023   7.969   5.593  0.0625 -0.0103 -0.1171
   90MOL    C2028678   1.117   7.885   5.655 -0.9192 -0.5923 -0.3394
   90MOL    C2128679   1.085   7.813   5.773 -0.2382  0.1590  0.3910
   90MOL    C2228680   0.957   7.826   5.830  0.4526 -0.2695 -0.2195
   90MOL    F2328681   0.917   7.754   5.933 -0.2407  0.1182 -0.2337
   90MOL    C2428682   0.856   7.902   5.755  0.8463  0.2600 -0.1262
   90MOL    C2528683   0.894   7.979   5.643  0.7942  0.8322 -0.3190
   90MOL    C2628684   0.967   8.013   5.344  0.0554 -0.6388  0.1668
   90MOL    H2728685   1.163   7.998   5.451 -0.2853 -1.6774  1.5751
   90MOL    H2828686   1.212   7.881   5.604 -1.8857  1.6513 -2.3970
   90MOL    H2928687   1.158   7.744   5.813  0.8970  1.5526  0.7998
   90MOL    H3028688   0.754   7.905   5.790  0.8863  0.1201  0.0010
   90MOL    H3128689   0.812   8.041   5.609  2.2362  1.0786 -3.4890
   90MOL    H3228690   0.876   8.073   5.352  0.1635 -0.2429 -1.2743
   90MOL    H3328691   1.019   8.049   5.254 -0.8065 -1.8454 -0.8305
   90MOL    C3428692   0.927   7.861   5.311 -1.0067 -1.0307 -0.0559
   90MOL    C3528693   0.798   7.840   5.240 -0.4417 -0.0853 -0.1964
   90MOL    C3628694   0.688   7.771   5.302 -0.1908 -0.7520  0.8068
   90MOL    C3728695   0.566   7.766   5.227  0.2708  0.5386  0.1411
   90MOL    C3828696   0.554   7.827   5.099 -0.0639 -0.6279  0.0500
   90MOL    F3928697   0.444   7.806   5.020 -0.0882  0.2912 -0.3771
   90MOL    C4028698   0.666   7.895   5.048 -0.1499 -0.2490  0.0449
   90MOL    C4128699   0.784   7.902   5.114  0.3802 -0.0552 -0.5203
   90MOL    C4228700   1.051   7.804   5.233  0.1316 -0.3056 -0.1288
   90MOL    H4328701   0.910   7.809   5.406 -2.6741 -2.7876 -1.2813
   90MOL    H4428702   0.694   7.723   5.399 -0.4517 -0.1635  1.1152
   90MOL    H4528703   0.492   7.701   5.270  1.6149 -0.6896  0.6550
   90MOL    H4628704   0.663   7.936   4.949  0.2774 -1.1684 -0.3608
   90MOL    H4728705   0.868   7.957   5.075 -0.9125  0.2403 -3.0422
   90MOL    H4828706   1.055   7.849   5.134  1.6526  0.5194  0.2913
   90MOL    H4928707   1.136   7.847   5.286 -0.6929  2.6376 -1.1332
   90MOL    C5028708   1.054   7.651   5.225 -0.4866 -0.1129  0.1791
   90MOL    C5128709   0.943   7.579   5.143 -0.1305 -0.6364  0.0567
   90MOL    C5228710   0.862   7.476   5.200  0.0686 -0.2477 -0.4635
   90MOL    C5328711   0.752   7.428   5.127 -0.4433 -0.3318 -0.0623
   90MOL    C5428712   0.744   7.455   4.988 -0.2321  1.0498 -0.4173
   90MOL    F5528713   0.660   7.382   4.909 -0.0865 -0.0572  0.0662
   90MOL    C5628714   0.831   7.549   4.927  0.2436  0.0971  0.0275
   90MOL    C5728715   0.924   7.613   5.005  0.6632  0.2204 -0.3225
   90MOL    C5828716   1.184   7.604   5.158 -0.8922  0.0536 -0.5341
   90MOL    H5928717   1.048   7.609   5.325 -1.5110  1.2412  0.6945
   90MOL    H6028718   0.874   7.442   5.302  0.7144 -0.3196 -0.5617
   90MOL    H6128719   0.683   7.357   5.169 -0.4547 -1.5940 -2.1460
   90MOL    H6228720   0.831   7.563   4.820  0.0364  1.8161  0.2418
   90MOL    H6328721   0.982   7.687   4.952  0.8346  1.1843  1.1689
   90MOL    H6428722   1.185   7.496   5.140 -1.4664  0.3536 -2.4701
   90MOL    H6528723   1.191   7.645   5.058  1.0859 -3.4828 -1.9368
   90MOL    C6628724   1.320   7.645   5.215  0.2046 -0.1816  0.3702
   90MOL    C6728725   1.334   7.598   5.357 -0.2775  0.2336  0.0415
   90MOL    C6828726   1.346   7.464   5.387  0.3480  0.5982 -0.3591
   90MOL    C6928727   1.356   7.417   5.524 -0.0875 -0.0142  0.7358
   90MOL    C7028728   1.353   7.511   5.623 -0.4553 -0.6952  0.4328
   90MOL    F7128729   1.358   7.473   5.749  0.2367  0.0204  0.0841
   90MOL    C7228730   1.350   7.649   5.596  0.0804 -0.9418  0.0886
   90MOL    C7328731   1.339   7.693   5.461  0.3433  0.6442 -0.1935
   90MOL    C7428732   1.427   7.594   5.120 -0.6075  0.1914  0.5614
   90MOL    H7528733   1.325   7.753   5.207 -0.3862 -0.2349 -0.9907
   90MOL    H7628734   1.352   7.388   5.309  0.7577  1.3403 -1.0537
   90MOL    H7728735   1.369   7.311   5.540 -1.5753 -0.0025  2.1696
   90MOL    H7828736   1.353   7.712   5.683 -2.3547 -1.1310  0.3507
   90MOL    H7928737   1.344   7.800   5.444  0.6468  0.2199 -3.0172
   90MOL    H8028738   1.421   7.486   5.109 -1.2202  0.3005 -0.2908
   90MOL    H8128739   1.396   7.619   5.018 -0.9536 -0.5102  0.4889
   90MOL    C8228740   1.574   7.648   5.144  0.3492  0.0575  0.7023
   90MOL    C8328741   1.651   7.556   5.240  0.0483 -0.4503  0.9624
   90MOL    C8428742   1.691   7.422   5.206  1.0527  0.8079  0.1508
   90MOL    C8528743   1.759   7.346   5.299  0.2598 -0.0686 -0.5629
   90MOL    C8628744   1.800   7.403   5.422 -0.4087  1.3389 -0.2820
   90MOL    F8728745   1.864   7.320   5.507  0.2701 -0.2363 -0.2507
   90MOL    C8828746   1.770   7.533   5.453  0.6120 -0.3652  0.3606
   90MOL    C8928747   1.687   7.607   5.366  0.5623 -0.4101 -0.0880
   90MOL    C9028748   1.661   7.667   5.019 -0.5520  0.3304  0.5077
   90MOL    H9128749   1.565   7.746   5.191 -3.6655  1.3369 -2.4524
   90MOL    H9228750   1.670   7.377   5.110  3.0116 -0.8479  0.4672
   90MOL    H9328751   1.785   7.242   5.280  0.9784  0.3929 -2.2116
   90MOL    H9428752   1.799   7.576   5.548  0.4358  2.1291 -0.6765
   90MOL    H9528753   1.656   7.707   5.391  1.2776 -0.0582 -0.5943
   90MOL    H9628754   1.768   7.669   5.035 -0.3559 -1.1575 -0.5708
   90MOL    H9728755   1.644   7.575   4.964  0.5560  1.0873 -1.1316
   90MOL    C9828756   1.629   7.792   4.927 -0.3197 -0.3418 -0.0898
   90MOL    C9928757   1.639   7.922   4.999  0.0456  0.0994 -0.1063
   90MOL   C10028758   1.571   8.034   4.949 -0.4958 -0.5116 -0.5893
   90MOL   C10128759   1.592   8.160   5.015 -0.2841 -0.0230  0.0955
   90MOL   C10228760   1.672   8.174   5.131 -0.2211 -0.4169  0.1547
   90MOL   F10328761   1.688   0.051   5.205  0.2455  0.1504  0.2010
   90MOL   C10428762   1.742   8.060   5.177  0.1625  0.6954  0.3072
   90MOL   C10528763   1.727   7.935   5.111  0.0715 -0.3486  1.2669
   90MOL   C10628764   1.699   7.796   4.795  0.7296  0.3273 -0.2437
   90MOL   H10728765   1.523   7.783   4.902  0.2580 -0.3279 -2.6814
   90MOL   H10828766   1.506   8.020   4.864 -1.4610 -1.2392  0.2757
   90MOL   H10928767   1.534   0.011   4.982 -0.7756 -0.5329 -0.3821
   90MOL   H11028768   1.801   8.054   5.268  0.1966  0.6389  0.2807
   90MOL   H11128769   1.797   7.860   5.147 -0.0914 -1.0116  0.2444
   90MOL   H11228770   1.681   7.698   4.752  0.7673  0.3372 -0.2811
   90MOL   H11328771   1.646   7.865   4.729  0.8731  0.6489 -0.0290
   90MOL   C11428772   1.853   7.819   4.780 -0.8094  0.2697 -0.8524
   90MOL   C11528773   1.904   7.770   4.647 -0.2749 -0.2763 -0.2702
   90MOL   C11628774   1.991   7.659   4.629  0.9239 -0.2253 -0.0436
   90MOL   C11728775   2.011   7.602   4.501  0.1330 -0.7005  0.1237
   90MOL   C11828776   1.927   7.645   4.398  0.3100  0.1130 -0.8314
   90MOL   F11928777   1.906   7.575   4.286  0.0528  0.1619  0.5288
   90MOL   C12028778   1.862   7.770   4.409  0.0018 -0.3525 -0.5076
   90MOL   C12128779   1.853   7.840   4.529  0.0507  0.3717 -0.2422
   90MOL   C12228780   1.897   7.970   4.804 -0.0581  0.2141  0.2236
   90MOL   H12328781   1.911   7.763   4.854 -1.1727 -0.1593 -0.8916
   90MOL   H12428782   2.014   7.602   4.718 -1.7764  0.4015  1.1079
   90MOL   H12528783   2.069   7.513   4.481 -0.3293 -0.5724 -1.9117
   90MOL   H12628784   1.808   7.796   4.319 -1.3414 -0.9836  0.0920
   90MOL   H12728785   1.800   7.934   4.536  1.6608  1.4979 -2.3830
   90MOL   H12828786   1.825   8.030   4.748  0.3673 -0.0004 -0.5760
   90MOL   H12928787   1.882   7.995   4.909 -0.2575  0.9849  0.0126
   90MOL   C13028788   2.032   8.022   4.763 -0.5946 -0.8564 -0.0141
   90MOL   C13128789   2.044   8.176   4.774 -0.1012  0.0734  0.5966
   90MOL   C13228790   2.102   0.010   4.658 -0.0587  0.7077  0.1214
   90MOL   C13328791   2.099   0.146   4.661 -0.3786  0.1774  0.2616
   90MOL   C13428792   2.030   0.216   4.764 -0.0018  0.5398 -0.0590
   90MOL   F13528793   2.022   0.349   4.766 -0.3828  0.4642  0.2638
   90MOL   C13628794   1.988   0.147   4.877  0.0274 -0.3653  0.3907
   90MOL   C13728795   1.993   0.008   4.885 -0.3852  0.1330  0.6274
   90MOL   C13828796   2.139   7.967   4.857  1.0505 -0.4617  0.4128
   90MOL   H13928797   2.053   7.993   4.660 -0.7989 -0.8718 -0.0498
   90MOL   H14028798   2.149   8.195   4.575  1.6044 -0.1842  1.5627
   90MOL   H14128799   2.146   0.195   4.577  1.0481 -3.0057 -0.8459
   90MOL   H14228800   1.931   0.194   4.955  0.4108  0.9496 -0.1101
   90MOL   H14328801   1.956   8.188   4.970  0.2785 -1.5383 -0.1282
   90MOL   H14428802   2.197   8.044   4.908  0.7523 -0.5819  0.9371
   90MOL   H14528803   2.095   7.920   4.944 -0.6625 -2.6708 -1.5924
   90MOL   C14628804   2.235   7.864   4.786  0.4871 -0.8321 -0.6710
   90MOL   C14728805   2.316   7.926   4.673 -0.2149  0.1628  0.6824
   90MOL   C14828806   2.344   7.844   4.560  0.0971 -0.0945 -0.3508
   90MOL   C14928807   2.417   7.903   4.453  0.0511 -0.4963  0.1362
   90MOL   C15028808   2.476   8.027   4.465  0.2832 -0.5262  0.1841
   90MOL   F15128809   2.548   8.084   4.367  0.2587  0.1034 -0.0931
   90MOL   C15228810   2.447   8.110   4.573  0.3163 -0.5314  0.8372
   90MOL   C15328811   2.361   8.059   4.676 -0.1531  0.2371  0.0495
   90MOL   C15428812   2.336   7.811   4.891  0.6534  0.0145 -0.0667
   90MOL   H15528813   2.173   7.781   4.753 -0.3963 -0.6690  0.5593
   90MOL   H15628814   2.309   7.742   4.555  0.3354 -0.5051  4.0548
   90MOL   H15728815   2.444   7.843   4.368 -2.0958  0.4305 -1.2517
   90MOL   H15828816   2.491   8.208   4.581 -0.4843 -0.0716 -0.2312
   90MOL   H15928817   2.347   8.110   4.770 -2.0384  0.3800 -0.3014
   90MOL   H16028818   2.417   7.772   4.829  0.1284  1.0479 -1.4241
   90MOL   H16128819   2.376   7.893   4.950  1.5781  0.3991 -1.2047
   90MOL   C16228820   2.287   7.704   4.987 -0.6367 -0.2009  0.2589
   90MOL   C16328821   2.225   7.585   4.911 -1.0572  0.5972 -0.7306
   90MOL   C16428822   2.272   7.518   4.793  0.5894  0.5495 -0.3572
   90MOL   C16528823   2.212   7.401   4.745  0.8073 -0.1548  0.1849
   90MOL   C16628824   2.089   7.354   4.806  0.2494 -0.9838  0.2861
   90MOL   F16728825   2.020   7.251   4.753 -0.2100  0.2507 -0.2548
   90MOL   C16828826   2.035   7.423   4.916 -0.2085 -0.1184  0.3798
   90MOL   C16928827   2.108   7.532   4.975 -0.1714 -1.0236  0.1150
   90MOL   C17028828   2.388   7.642   5.086 -0.0440 -0.0155 -0.2080
   90MOL   H17128829   2.202   7.749   5.040 -0.8379 -0.5068  0.2002
   90MOL   H17228830   2.354   7.555   4.733  0.1787  1.5642 -0.2877
   90MOL   H17328831   2.259   7.367   4.655  0.1682 -0.8169  0.0968
   90MOL   H17428832   1.945   7.390   4.966  0.8299 -0.7693  1.8510
   90MOL   H17528833   2.063   7.577   5.062 -0.8254 -0.8476 -0.3101
   90MOL   H17628834   2.352   7.557   5.144  1.9249 -0.4867  0.3872
   90MOL   H17728835   2.483   7.611   5.041 -0.3597 -2.6062  0.8643
   90MOL   C17828836   2.426   7.743   5.191 -0.8411  0.2088 -0.0201
   90MOL   C17928837   2.304   7.795   5.265  0.4547  0.7466 -0.6061
   90MOL   C18028838   2.223   7.701   5.330 -0.4945 -0.3163 -0.2167
   90MOL   C18128839   2.102   7.737   5.384  0.0752  0.1403  0.5989
   90MOL   C18228840   2.060   7.872   5.383 -0.0796 -0.5937  0.0234
   90MOL   F18328841   1.941   7.905   5.439 -0.4293 -0.9228  0.3222
   90MOL   C18428842   2.144   7.969   5.320  0.0317  0.1172 -0.4598
   90MOL   C18528843   2.264   7.927   5.258  0.3129  0.3188  0.1259
   90MOL   C18628844   2.531   7.690   5.297 -0.1230 -0.1174  0.0687
   90MOL   H18728845   2.465   7.834   5.145 -0.0280 -0.4861 -0.7396
   90MOL   H18828846   2.248   7.596   5.329 -2.8730 -0.8935 -0.3286
   90MOL   H18928847   2.036   7.668   5.435 -0.6724 -0.5877 -1.2656
   90MOL   H19028848   2.104   8.069   5.320  1.7605  0.8246 -0.1857
   90MOL   H19128849   2.317   8.004   5.202  0.6886 -0.3517 -0.4506
   90MOL   H19228850   2.522   7.752   5.386  0.2439  1.2431 -0.8296
   90MOL   H19328851   2.495   7.592   5.326  0.5213 -0.7183 -1.1205
   90MOL   C19428852   2.675   7.674   5.250 -1.1794  0.0480 -0.1540
   90MOL   C19528853   2.729   7.788   5.166 -0.3010  0.4174  0.5910
   90MOL   C19628854   2.757   7.764   5.033 -0.5033  0.3888  0.2445
   90MOL   C19728855   2.807   7.864   4.949  0.9820  0.7107  0.1112
   90MOL   C19828856   2.825   7.994   5.002  0.2297 -0.4848 -0.1429
   90MOL   F19928857   2.880   8.087   4.928  0.2724 -0.3631  0.1578
   90MOL   C20028858   2.790   8.022   5.135  0.1525  0.6767  0.0590
   90MOL   C20128859   2.746   7.917   5.219  0.2985  0.0991  0.4148
   90MOL   C20228860   2.770   7.643   5.359 -0.5247  0.7482  0.6478
   90MOL   H20328861   2.670   7.583   5.191 -0.9465 -1.6999  2.4664
   90MOL   H20428862   2.730   7.674   4.980  0.3441  0.8159 -0.9144
   90MOL   H20528863   2.839   7.841   4.849  2.9022  2.5261  0.2809
   90MOL   H20628864   2.800   8.126   5.164 -3.2094  0.9133  0.4994
   90MOL   H20728865   2.717   7.944   5.320 -0.8403  1.8056 -0.3559
   90MOL   H20828866   2.798   7.732   5.415 -1.5743  0.2026  2.0900
   90MOL   H20928867   2.710   7.575   5.420 -0.6977  0.0817 -0.2528
   90MOL   C21028868   2.896   7.565   5.303 -0.5329 -0.0371  0.8601
   90MOL   C21128869   3.022   7.641   5.324  0.2537 -0.5754 -0.3134
   90MOL   C21228870   3.049   7.663   5.458 -0.1328 -0.7274 -0.1023
   90MOL   C21328871   3.154   7.748   5.492 -0.4708  0.1654 -0.0509
   90MOL   C21428872   3.232   7.814   5.397 -0.0930  0.3715 -0.5523
   90MOL   F21528873   3.332   7.899   5.438 -0.1620 -0.4329  0.2542
   90MOL   C21628874   3.208   7.786   5.263 -0.1086 -0.0623 -0.6014
   90MOL   C21728875   3.106   7.699   5.226 -0.1934  0.0489  0.0523
   90MOL   C21828876   2.909   7.414   5.341  0.5938  0.3494  0.5660
   90MOL   H21928877   2.884   7.565   5.194  0.4053  0.4842  0.7484
   90MOL   H22028878   2.986   7.631   5.540 -2.3433  0.1643 -1.4090
   90MOL   H22128879   3.187   7.756   5.595 -0.7662  2.0100 -0.0958
   90MOL   H22228880   3.274   7.827   5.188  0.2636  0.8580  0.2101
   90MOL   H22328881   3.092   7.682   5.120  0.6008 -2.4451  0.2909
   90MOL   H22428882   3.001   7.382   5.293 -0.5618 -0.2744 -1.2870
   90MOL   H22528883   2.908   7.405   5.450 -0.3638  1.2159  0.6382
   90MOL   C22628884   2.803   7.316   5.290 -0.4128  0.2936  0.0752
   90MOL   C22728885   2.756   7.333   5.143  0.5672  1.1282  0.2515
   90MOL   C22828886   2.620   7.358   5.107  0.3560 -0.1353  0.1994
   90MOL   C22928887   2.585   7.373   4.977  0.3635 -0.0551 -0.3685
   90MOL   C23028888   2.682   7.382   4.874 -0.4605 -0.0082 -0.0348
   90MOL   F23128889   2.644   7.404   4.745 -0.3582  0.0694 -0.3728
   90MOL   C23228890   2.817   7.356   4.900  0.2863  0.4072 -0.8397
   90MOL   C23328891   2.852   7.333   5.038  0.5423  0.3505 -0.0391
   90MOL   C23428892   2.852   7.170   5.319  0.2942  0.4439  0.1170
   90MOL   H23528893   2.716   7.331   5.354  0.4934 -0.4455  1.5023
   90MOL   H23628894   2.548   7.370   5.186  1.0696  0.3622  0.7872
   90MOL   H23728895   2.483   7.400   4.952  0.7960  2.6785  0.6071
   90MOL   H23828896   2.893   7.355   4.823 -0.3052 -0.0340 -1.4221
   90MOL   H23928897   2.953   7.317   5.073  0.2880 -0.7520  0.2054
   90MOL   H24028898   2.896   7.126   5.229  0.7152 -0.5995  0.8299
   90MOL   H24128899   2.938   7.178   5.385 -0.4262  0.2765  1.0890
   90MOL   C24228900   2.743   7.071   5.368  0.0566  0.0110 -0.8153
   90MOL   C24328901   2.753   6.942   5.287  0.4122  0.6065 -0.2492
   90MOL   C24428902   2.838   6.840   5.316 -0.0507  0.3549 -0.7166
   90MOL   C24528903   2.849   6.724   5.235  0.3161 -0.4328  0.5505
   90MOL   C24628904   2.764   6.710   5.123 -0.3730  0.4640 -0.1710
   90MOL   F24728905   2.789   6.604   5.037  0.0152  0.4431 -0.4610
   90MOL   C24828906   2.679   6.811   5.085 -0.1494  0.5786  0.3452
   90MOL   C24928907   2.674   6.923   5.173  0.3407 -0.2849  0.1524
   90MOL   C25028908   2.749   7.057   5.518  0.0075  0.1896 -0.1901
   90MOL   H25128909   2.647   7.112   5.337  1.5467  0.7514 -4.8681
   90MOL   H25228910   2.919   6.852   5.386 -0.1691  3.9149 -1.0640
   90MOL   H25328911   2.922   6.648   5.259  1.0372  0.1569  0.2347
   90MOL   H25428912   2.623   6.799   4.994  1.2244 -0.7702 -0.3423
   90MOL   H25528913   2.608   7.007   5.156  0.6161  0.2214  1.4820
   90MOL   H25628914   2.693   6.968   5.544  0.2428 -0.2985 -1.3422
   90MOL   H25728915   2.850   7.025   5.544 -0.2640  0.5400  1.3173
   90MOL   C25828916   2.698   7.170   5.610  0.0776 -0.1991  0.2571
   90MOL   C25928917   2.555   7.230   5.569 -0.3337  0.2793  0.3540
   90MOL   C26028918   2.457   7.151   5.509  0.5595  0.1861 -0.0787
   90MOL   C26128919   2.332   7.214   5.483  0.4638  0.3194 -0.2230
   90MOL   C26228920   2.302   7.345   5.514 -0.3897  0.0742 -0.3208
   90MOL   F26328921   2.189   7.403   5.476  0.3632  0.2179  0.3216
   90MOL   C26428922   2.400   7.418   5.590 -0.3702  0.0325  0.1979
   90MOL   C26528923   2.529   7.367   5.608 -0.6265 -0.0539 -0.3719
   90MOL   C26628924   2.716   7.130   5.761 -0.3370  0.2268 -0.2703
   90MOL   H26728925   2.760   7.259   5.608 -1.5076  0.9459  1.2370
   90MOL   H26828926   2.467   7.049   5.474 -0.6647  0.4126 -1.1544
   90MOL   H26928927   2.246   7.162   5.442  1.3282 -1.8557  0.6445
   90MOL   H27028928   2.372   7.519   5.613  0.0010  0.1921 -0.0427
   90MOL   H27128929   2.605   7.423   5.660 -0.3110 -1.1422  0.3519
   90MOL   H27228930   2.824   7.124   5.778 -0.5776 -0.2486  1.1294
   90MOL   H27328931   2.675   7.218   5.811 -2.7868 -0.9232 -0.2177
   90MOL   C27428932   2.644   7.004   5.807  0.4138 -0.4396 -0.7251
   90MOL   C27528933   2.734   6.885   5.816  0.2997  1.0310 -0.1315
   90MOL   C27628934   2.852   6.885   5.892 -1.0312 -0.2488 -0.8577
   90MOL   C27728935   2.922   6.763   5.911 -0.1128  0.2264  0.0338
   90MOL   C27828936   2.879   6.647   5.839  0.4046 -0.6090  0.4175
   90MOL   F27928937   2.944   6.533   5.850 -0.4922  0.0869  0.1167
   90MOL   C28028938   2.758   6.654   5.761 -0.1597  0.3259 -0.0047
   90MOL   C28128939   2.686   6.771   5.759 -0.6002  0.6243 -0.3664
   90MOL   C28228940   2.583   7.024   5.943  0.3064  0.4589  0.2134
   90MOL   H28328941   2.568   6.986   5.731  0.4610  0.3837 -0.9812
   90MOL   H28428942   2.901   6.968   5.939 -0.5249 -0.4692 -0.9909
   90MOL   H28528943   3.014   6.747   5.964 -0.1640 -0.3656 -0.0565
   90MOL   H28628944   2.737   6.568   5.700 -1.8976  0.6555  0.1041
   90MOL   H28728945   2.593   6.778   5.704  0.2780  1.0955 -1.8369
   90MOL   H28828946   2.565   6.924   5.982 -2.3524  0.8185  0.0473
   90MOL   H28928947   2.663   7.061   6.008 -1.2156  1.6316  1.4893
   90MOL   C29028948   2.452   7.100   5.953 -0.6051  0.0886 -0.1538
   90MOL   C29128949   2.343   7.043   5.870 -0.3122  0.1086 -0.4608
   90MOL   C29228950   2.330   6.905   5.861  0.4308 -0.6085  0.5155
   90MOL   C29328951   2.222   6.852   5.781  0.4851  0.4849  0.6992
   90MOL   C29428952   2.135   6.939   5.708  0.5643 -0.0138  0.1714
   90MOL   F29528953   2.044   6.900   5.615 -0.2181 -0.5159 -0.5166
   90MOL   C29628954   2.150   7.079   5.727 -0.0763 -0.0478 -0.0340
   90MOL   C29728955   2.254   7.128   5.805  0.5168 -0.8529 -0.1298
   90MOL   C29828956   2.409   7.094   6.101  0.1939  0.6126 -0.5048
   90MOL   H29928957   2.465   7.202   5.918 -1.8686  0.4875  0.4881
   90MOL   H30028958   2.381   6.832   5.922 -1.4323 -1.8021  0.7091
   90MOL   H30128959   2.203   6.747   5.767  1.7708 -0.0516  2.7183
   90MOL   H30228960   2.080   7.150   5.685 -0.4401  0.1221  0.8478
   90MOL   H30328961   2.264   7.235   5.817 -2.8826 -0.4623 -0.2712
   90MOL   H30428962   2.303   7.119   6.100  0.0616  0.0420 -0.6582
   90MOL   H30528963   2.407   6.987   6.122  1.9997  0.7551  0.5258
   90MOL   C30628964   2.484   7.163   6.211 -0.0606  0.0986  0.5203
   90MOL   C30728965   2.490   7.312   6.187  0.7457  0.3765 -0.0159
   90MOL   C30828966   2.377   7.392   6.178 -0.0073 -0.2521 -0.4574
   90MOL   C30928967   2.386   7.530   6.173 -0.1226  0.1845  0.6479
   90MOL   C31028968   2.513   7.587   6.145  0.5278 -0.5110 -0.0871
   90MOL   F31128969   2.521   7.721   6.133  0.1516  0.0421  0.0157
   90MOL   C31228970   2.630   7.509   6.142 -0.3603 -0.4527  0.1600
   90MOL   C31328971   2.618   7.372   6.163 -0.5571 -0.0833 -0.2897
   90MOL   C31428972   2.415   7.129   6.344  0.2342 -0.3919  1.1051
   90MOL   H31528973   2.586   7.124   6.211 -0.2899 -0.4956  0.5906
   90MOL   H31628974   2.282   7.342   6.193 -0.4688  0.8652  0.4217
   90MOL   H31728975   2.295   7.587   6.184 -0.1387  0.0287  1.3437
   90MOL   H31828976   2.729   7.551   6.129 -0.7466  0.2047 -0.7276
   90MOL   H31928977   2.712   7.318   6.165  0.6056  1.8436 -1.3534
   90MOL   H32028978   2.398   7.023   6.363 -0.3180 -0.7921 -1.4531
   90MOL   H32128979   2.471   7.178   6.423  1.6753 -0.8445  0.3812
   90MOL   H32228980   2.320   7.182   6.349 -0.8467 -2.0404 -1.0474
   91MOL     C128981   3.011   7.821   3.446  0.3088  0.1372 -0.1627
   91MOL     C228982   3.150   7.786   3.493  0.3447  0.2759  0.4068
   91MOL     C328983   3.197   7.814   3.619 -0.0626 -0.4948 -0.5889
   91MOL     C428984   3.333   7.778   3.653  0.9456 -0.0832 -0.4523
   91MOL     C528985   3.414   7.703   3.577 -0.2652  0.3986  0.0863
   91MOL     F628986   3.546   7.677   3.611  0.4933 -0.0518 -0.3667
   91MOL     C728987   3.360   7.666   3.449 -0.1423  0.3481  0.0794
   91MOL     C828988   3.238   7.712   3.406 -0.1278  0.5483  0.1371
   91MOL     C928989   2.894   7.732   3.492  0.7191  0.5469 -0.5951
   91MOL    H1028990   3.015   7.823   3.337  0.2043  2.2852 -0.1505
   91MOL    H1128991   3.138   7.875   3.687  1.1767  1.2460 -1.0544
   91MOL    H1228992   3.371   7.808   3.750 -1.1330 -0.7525  0.5825
   91MOL    H1328993   3.422   7.607   3.383 -0.4317  0.7666 -0.5667
   91MOL    H1428994   3.209   7.678   3.308  0.1713  0.8230 -0.0487
   91MOL    H1528995   2.867   7.763   3.593 -0.7651  2.4891 -1.5627
   91MOL    H1628996   2.806   7.745   3.429  0.7616  0.7128 -0.6191
   91MOL    H1728997   2.991   7.918   3.490  0.2575 -0.1590  0.4763
   91MOL    C1828998   2.917   7.580   3.508  0.2425  0.4718 -0.0318
   91MOL    C1928999   2.825   7.505   3.604 -0.2563 -0.6969  0.0418
   91MOL    C2029000   2.860   7.485   3.739  0.2200 -0.5944  0.0849
   91MOL    C2129001   2.771   7.423   3.825 -0.0199  0.7969 -0.0616
   91MOL    C2229002   2.651   7.366   3.778 -0.5396 -0.1071  0.0901
   91MOL    F2329003   2.571   7.304   3.866  0.4202  0.5858 -0.1962
   91MOL    C2429004   2.613   7.377   3.645  0.5402 -0.0123 -0.4583
   91MOL    C2529005   2.697   7.458   3.563 -0.2324 -0.3926 -0.0798
   91MOL    C2629006   2.934   7.510   3.371  0.2906  0.3886 -0.3543
   91MOL    H2729007   3.020   7.569   3.543  0.7334  3.1742 -0.5190
   91MOL    H2829008   2.950   7.533   3.774  0.2222 -0.9159  0.5247
   91MOL    H2929009   2.800   7.426   3.929 -0.6403  0.0997  0.1347
   91MOL    H3029010   2.516   7.345   3.609  0.4258  0.8581 -0.9434
   91MOL    H3129011   2.661   7.475   3.463 -1.0942 -0.7711  0.1677
   91MOL    H3229012   2.838   7.533   3.325  0.3586  0.0874 -0.6536
   91MOL    H3329013   3.013   7.571   3.327  0.0512  1.1766  0.3031
   91MOL    C3429014   2.963   7.358   3.371  0.1218  0.7579  0.2282
   91MOL    C3529015   2.942   7.296   3.237 -0.4086 -0.1653  0.1238
   91MOL    C3629016   3.016   7.331   3.122  0.3630 -0.9682  0.7435
   91MOL    C3729017   2.969   7.287   2.994 -0.1763 -0.0272 -0.2067
   91MOL    C3829018   2.859   7.198   2.980 -0.0546 -0.1888  0.1350
   91MOL    F3929019   2.802   7.166   2.862  0.0135  0.3482 -0.0936
   91MOL    C4029020   2.802   7.146   3.098 -0.0441  0.6180  0.7334
   91MOL    C4129021   2.838   7.202   3.223 -0.8415  0.3658 -1.0108
   91MOL    C4229022   3.111   7.330   3.431  0.6778  0.2791 -0.5941
   91MOL    H4329023   2.895   7.301   3.434 -0.5873 -0.2367 -1.4070
   91MOL    H4429024   3.102   7.395   3.115 -0.6063  0.1247 -1.4663
   91MOL    H4529025   3.014   7.332   2.907  0.0466  0.4019  0.1296
   91MOL    H4629026   2.728   7.069   3.080  0.2479 -0.2001  2.8798
   91MOL    H4729027   2.779   7.185   3.312  0.0465 -1.3399 -0.7250
   91MOL    H4829028   3.184   7.341   3.351 -1.5546  1.0077 -2.5634
   91MOL    H4929029   3.140   7.391   3.517  1.5511 -1.0536  0.0788
   91MOL    C5029030   3.146   7.190   3.490 -0.3128 -0.2255 -0.3124
   91MOL    C5129031   3.295   7.166   3.503  0.2039  0.0265  0.3273
   91MOL    C5229032   3.348   7.051   3.440  0.1237  1.2019 -0.2239
   91MOL    C5329033   3.487   7.037   3.424  0.0288  0.2404 -0.4185
   91MOL    C5429034   3.571   7.133   3.487  1.2143  0.9139 -0.2393
   91MOL    F5529035   3.703   7.117   3.472 -0.4583 -0.1029 -0.0765
   91MOL    C5629036   3.514   7.242   3.558 -0.3830  0.5034 -0.1760
   91MOL    C5729037   3.377   7.260   3.567  0.1420 -0.3365 -0.1610
   91MOL    C5829038   3.069   7.176   3.625 -0.1042 -0.2459 -0.5237
   91MOL    H5929039   3.107   7.111   3.425  0.8528  0.3171 -1.7081
   91MOL    H6029040   3.278   6.977   3.404  2.4307 -0.7817 -0.8153
   91MOL    H6129041   3.536   6.962   3.364  0.6835  0.3546 -0.0395
   91MOL    H6229042   3.572   7.326   3.593 -1.2852  0.4886  1.4319
   91MOL    H6329043   3.334   7.351   3.607 -1.0037 -2.3451  3.4449
   91MOL    H6429044   3.098   7.254   3.695  1.5088 -1.5693  0.3170
   91MOL    H6529045   2.961   7.185   3.611 -0.0734 -1.8502 -2.0485
   91MOL    C6629046   3.088   7.044   3.705  0.5273 -0.1345  0.3126
   91MOL    C6729047   3.048   7.046   3.854  1.3208  0.2614  0.4543
   91MOL    C6829048   3.124   6.971   3.941 -0.0685 -0.3850  0.4474
   91MOL    C6929049   3.090   6.967   4.077 -0.3487  0.3451  0.1658
   91MOL    C7029050   2.972   7.034   4.125  0.0289  0.4091 -0.1180
   91MOL    F7129051   2.936   7.040   4.258  0.1391  0.2252  0.1523
   91MOL    C7229052   2.893   7.097   4.032  0.2122  0.8122 -0.1496
   91MOL    C7329053   2.927   7.109   3.899  0.0692 -0.4052  0.1043
   91MOL    C7429054   3.034   6.914   3.639  0.4266 -0.2063 -0.3935
   91MOL    H7529055   3.197   7.039   3.701  0.5927  0.6059  1.0155
   91MOL    H7629056   3.215   6.921   3.911 -0.9589 -0.3501 -2.4244
   91MOL    H7729057   3.137   6.902   4.149 -0.8270  0.9505  1.0389
   91MOL    H7829058   2.811   7.156   4.071 -0.4952 -0.0676 -0.3169
   91MOL    H7929059   2.864   7.173   3.839 -0.3660  1.1256  2.1292
   91MOL    H8029060   3.100   6.894   3.555 -0.5789  0.9757 -1.4748
   91MOL    H8129061   3.051   6.830   3.707 -0.2737 -0.5344 -0.6237
   91MOL    C8229062   2.892   6.908   3.580 -0.1863  0.2397  0.6014
   91MOL    C8329063   2.881   6.787   3.479 -0.4666 -0.0916  0.2284
   91MOL    C8429064   2.839   6.821   3.347 -0.0812 -0.0700 -0.5505
   91MOL    C8529065   2.825   6.717   3.258  0.7050 -0.0563 -0.1667
   91MOL    C8629066   2.858   6.584   3.291 -0.0498 -0.0157 -0.4468
   91MOL    F8729067   2.827   6.486   3.197 -0.2828 -0.1152  0.4090
   91MOL    C8829068   2.896   6.551   3.425 -0.2010 -1.6168  0.3892
   91MOL    C8929069   2.908   6.655   3.518  0.8487 -0.7317 -0.3621
   91MOL    C9029070   2.782   6.899   3.695  0.0993  0.1172 -0.7383
   91MOL    H9129071   2.878   6.998   3.521 -0.8863  0.4195  1.0339
   91MOL    H9229072   2.805   6.919   3.315 -0.5332 -0.4202 -1.1689
   91MOL    H9329073   2.775   6.742   3.165  0.1129  0.5053  0.2922
   91MOL    H9429074   2.910   6.451   3.461  1.3150 -1.3549  0.5391
   91MOL    H9529075   2.936   6.636   3.621 -0.5817 -0.2820  0.1217
   91MOL    H9629076   2.813   6.819   3.762 -2.1423 -1.0522 -1.0413
   91MOL    H9729077   2.789   7.000   3.734 -1.1141  0.3552 -1.1018
   91MOL    C9829078   2.641   6.863   3.644  0.0968 -0.9753  0.0999
   91MOL    C9929079   2.540   6.844   3.759 -0.5877  0.5887  0.2580
   91MOL   C10029080   2.485   6.720   3.800  0.5085  0.3045  0.0081
   91MOL   C10129081   2.392   6.720   3.906 -0.1550  0.3145 -0.6680
   91MOL   C10229082   2.343   6.837   3.967  0.4909  0.6520 -0.9936
   91MOL   F10329083   2.266   6.824   4.076 -0.0811  0.0837 -0.5156
   91MOL   C10429084   2.393   6.955   3.918  0.6143  0.1994 -0.7546
   91MOL   C10529085   2.494   6.961   3.824  0.1713  0.0444 -0.1349
   91MOL   C10629086   2.595   6.969   3.543 -0.0365  0.8675 -0.2883
   91MOL   H10729087   2.656   6.764   3.604  1.7082 -1.2642  1.3578
   91MOL   H10829088   2.510   6.634   3.741 -1.5310  0.9683 -1.9085
   91MOL   H10929089   2.364   6.625   3.949  3.9790 -0.5509  0.3347
   91MOL   H11029090   2.361   7.044   3.970  2.6437  0.8504 -0.5913
   91MOL   H11129091   2.533   7.060   3.806 -0.2958  0.6057  1.8260
   91MOL   H11229092   2.597   7.066   3.591  0.8713 -0.2792  2.0644
   91MOL   H11329093   2.674   6.985   3.470  0.8265 -0.3942  0.3396
   91MOL   C11429094   2.458   6.936   3.473  0.5917  0.4680 -0.4484
   91MOL   C11529095   2.412   7.057   3.389  0.0709 -0.3059 -0.5833
   91MOL   C11629096   2.310   7.146   3.435 -0.3388  0.4902  0.0806
   91MOL   C11729097   2.287   7.268   3.372  0.0204 -0.7586 -0.4007
   91MOL   C11829098   2.361   7.308   3.256  0.2264 -0.1429 -0.3543
   91MOL   F11929099   2.353   7.428   3.188  0.6249  0.0976  0.2592
   91MOL   C12029100   2.449   7.209   3.205  0.3007 -0.4945  0.3799
   91MOL   C12129101   2.477   7.084   3.270  0.0430 -0.1728 -0.0040
   91MOL   C12229102   2.476   6.799   3.401 -0.1895 -0.0016  0.2823
   91MOL   H12329103   2.389   6.928   3.557  1.4815  0.1864  0.2740
   91MOL   H12429104   2.250   7.124   3.523 -2.4334 -0.0094 -1.4322
   91MOL   H12529105   2.213   7.341   3.402 -1.0809 -1.7510 -0.6920
   91MOL   H12629106   2.486   7.228   3.105  0.3187 -0.1278  0.4561
   91MOL   H12729107   2.550   7.012   3.234 -1.1301 -1.2204 -0.3514
   91MOL   H12829108   2.575   6.796   3.355  0.0634  0.3037  0.7968
   91MOL   H12929109   2.472   6.713   3.468  3.0383 -0.2329  0.2565
   91MOL   C13029110   2.383   6.779   3.281 -0.6472  0.0969 -0.3367
   91MOL   C13129111   2.454   6.686   3.185 -0.0757  0.1207  0.9230
   91MOL   C13229112   2.484   6.555   3.226  0.5755 -0.1538 -0.1022
   91MOL   C13329113   2.533   6.464   3.127 -0.2544  0.7331  0.9601
   91MOL   C13429114   2.556   6.504   2.997 -0.1579 -1.7777 -0.1149
   91MOL   F13529115   2.607   6.418   2.907  0.1868 -0.2831  0.2826
   91MOL   C13629116   2.529   6.632   2.959 -0.4666 -0.4741  0.0681
   91MOL   C13729117   2.488   6.728   3.057  0.7144  0.5152  0.3562
   91MOL   C13829118   2.249   6.719   3.327 -0.1105  0.0594  0.0294
   91MOL   H13929119   2.364   6.870   3.225  1.7465  1.2612  0.6495
   91MOL   H14029120   2.472   6.521   3.328  0.7902 -0.2141 -0.0977
   91MOL   H14129121   2.547   6.359   3.152  3.2763  0.5545 -1.4259
   91MOL   H14229122   2.558   6.661   2.859 -0.6521  0.3204  0.2408
   91MOL   H14329123   2.468   6.828   3.022 -0.1997 -0.8939 -3.4084
   91MOL   H14429124   2.229   6.620   3.285 -1.3059  0.6749 -0.8808
   91MOL   H14529125   2.252   6.694   3.433  0.2690  2.0155  0.4915
   91MOL   C14629126   2.123   6.811   3.313 -0.8476 -0.8559  0.7602
   91MOL   C14729127   2.100   6.838   3.161 -0.2424 -0.4447  0.4166
   91MOL   C14829128   2.081   6.972   3.117 -0.7611  0.3478 -0.3427
   91MOL   C14929129   2.040   6.992   2.988  0.2816  0.0030  0.3550
   91MOL   C15029130   2.012   6.888   2.894 -0.1591  0.2809 -0.0027
   91MOL   F15129131   1.974   6.922   2.770  0.2091 -0.0740  0.0907
   91MOL   C15229132   2.028   6.757   2.941 -0.7975  0.1701  0.6643
   91MOL   C15329133   2.076   6.735   3.076  0.6858 -0.4672 -0.0894
   91MOL   C15429134   1.991   6.749   3.377  0.7214  0.3176  0.4273
   91MOL   H15529135   2.138   6.903   3.370 -0.1742 -0.8994  0.6589
   91MOL   H15629136   2.117   7.056   3.174  2.8964  0.1506 -2.1733
   91MOL   H15729137   2.035   7.090   2.943  2.2112 -0.1393 -0.2405
   91MOL   H15829138   2.003   6.673   2.878 -0.1009 -0.5018  1.2736
   91MOL   H15929139   2.078   6.638   3.125 -0.1533 -0.4630 -0.0417
   91MOL   H16029140   1.902   6.803   3.346  0.6231  0.4411  0.9205
   91MOL   H16129141   1.987   6.645   3.345  0.5950  0.1924  0.8375
   91MOL   C16229142   1.991   6.747   3.532  0.0833 -0.1422  0.1652
   91MOL   C16329143   1.986   6.887   3.584  0.0524  0.5645 -0.6623
   91MOL   C16429144   2.085   6.920   3.677 -0.2537 -0.6408 -0.4957
   91MOL   C16529145   2.090   7.053   3.723  0.3340  0.6921  0.1247
   91MOL   C16629146   1.998   7.153   3.687 -0.7807 -0.1020 -0.6686
   91MOL   F16729147   2.008   7.281   3.728  0.1647 -0.5076 -0.0787
   91MOL   C16829148   1.894   7.116   3.603  0.7188 -0.4307  0.0883
   91MOL   C16929149   1.889   6.987   3.544 -0.5325 -0.3824 -0.5478
   91MOL   C17029150   1.879   6.659   3.576 -0.4369 -0.1771  0.4199
   91MOL   H17129151   2.086   6.707   3.568  0.0454  0.3743  0.8512
   91MOL   H17229152   2.157   6.846   3.706 -1.2858 -1.1945  0.6908
   91MOL   H17329153   2.172   7.088   3.784  1.3637 -1.9188  0.3419
   91MOL   H17429154   1.828   7.195   3.571  0.6409 -0.6346 -0.2520
   91MOL   H17529155   1.808   6.963   3.476  0.5188 -2.6621 -1.0376
   91MOL   H17629156   1.858   6.685   3.680  0.3669 -1.6102  0.9613
   91MOL   H17729157   1.785   6.684   3.528  0.9628  0.7667 -1.9147
   91MOL   C17829158   1.889   6.502   3.558  0.8408 -0.0357  0.4210
   91MOL   C17929159   2.021   6.444   3.599 -0.4055 -0.4865 -0.0619
   91MOL   C18029160   2.115   6.412   3.495 -0.0067 -0.5911 -0.4875
   91MOL   C18129161   2.250   6.385   3.523  0.3533 -0.3741  0.2412
   91MOL   C18229162   2.287   6.383   3.660  0.0186  0.0664 -0.0306
   91MOL   F18329163   2.417   6.351   3.689  0.0130  0.0251 -0.1002
   91MOL   C18429164   2.197   6.407   3.766 -0.7625  0.6491 -0.1098
   91MOL   C18529165   2.067   6.452   3.736  0.8642 -0.1139 -0.3267
   91MOL   C18629166   1.772   6.429   3.632  0.1206 -0.0129 -0.3872
   91MOL   H18729167   1.886   6.485   3.451 -0.5425  2.4811  0.0465
   91MOL   H18829168   2.079   6.418   3.393  1.1634  2.1263 -0.7847
   91MOL   H18929169   2.324   6.370   3.446 -0.4142  0.3476 -0.6592
   91MOL   H19029170   2.227   6.395   3.869 -0.5512  2.0151 -0.0113
   91MOL   H19129171   2.004   6.489   3.815 -0.0735  0.3751 -1.3032
   91MOL   H19229172   1.775   6.445   3.740  0.8821 -1.4185 -0.1901
   91MOL   H19329173   1.678   6.475   3.603  0.6389  1.1892 -0.2171
   91MOL   C19429174   1.761   6.283   3.605 -0.1848  0.5011 -0.3492
   91MOL   C19529175   1.851   6.194   3.687  0.5268 -0.2029  0.3415
   91MOL   C19629176   1.962   6.125   3.637 -0.1868  0.1025 -0.7548
   91MOL   C19729177   2.039   6.033   3.722  0.2636 -0.2139 -0.4980
   91MOL   C19829178   1.990   6.014   3.851 -0.2007 -0.2981  0.6866
   91MOL   F19929179   2.056   5.928   3.933 -0.3646 -0.7384  0.0925
   91MOL   C20029180   1.872   6.077   3.898 -0.1035 -0.6228  0.3296
   91MOL   C20129181   1.800   6.157   3.817 -0.4580  0.2932  0.1215
   91MOL   C20229182   1.608   6.237   3.603  0.1856 -0.6210 -0.1938
   91MOL   H20329183   1.805   6.283   3.505  0.4453 -0.6743 -0.0739
   91MOL   H20429184   1.992   6.127   3.533  1.4191  0.2232 -0.2986
   91MOL   H20529185   2.131   5.986   3.692  1.3834  0.2304  2.0708
   91MOL   H20629186   1.842   6.055   4.000 -1.8869 -1.2798 -0.3106
   91MOL   H20729187   1.707   6.195   3.857  0.7344  0.3645  2.9404
   91MOL   H20829188   1.595   6.140   3.651  1.9348 -0.8419 -0.1101
   91MOL   H20929189   1.556   6.307   3.668 -1.7258 -2.0946 -0.1176
   91MOL   C21029190   1.551   6.218   3.461 -0.2338  0.2781  0.0868
   91MOL   C21129191   1.640   6.120   3.384  0.6199  0.2972 -0.2945
   91MOL   C21229192   1.645   6.124   3.246 -0.8263 -0.7284  0.0080
   91MOL   C21329193   1.716   6.031   3.170 -0.2065 -0.0179  0.3372
   91MOL   C21429194   1.783   5.926   3.230  0.6264 -0.2063  0.4944
   91MOL   F21529195   1.868   5.856   3.155  0.0500  0.0278  0.3120
   91MOL   C21629196   1.774   5.913   3.368 -0.3623 -0.4487 -0.1234
   91MOL   C21729197   1.705   6.012   3.441 -0.6087  0.0819 -0.2672
   91MOL   C21829198   1.410   6.172   3.466 -0.2937 -0.7006 -0.6020
   91MOL   H21929199   1.549   6.310   3.402 -0.7167  1.6863  2.2426
   91MOL   H22029200   1.598   6.206   3.194  1.9880  1.7965  1.2058
   91MOL   H22129201   1.719   6.043   3.063 -1.0766  0.3809  0.3514
   91MOL   H22229202   1.820   5.831   3.422 -0.6533 -1.8337 -1.8879
   91MOL   H22329203   1.715   6.014   3.548  1.2021 -1.5246 -0.3743
   91MOL   H22429204   1.391   6.153   3.360  2.2082 -2.2174 -0.7901
   91MOL   H22529205   1.389   6.078   3.516 -0.9750 -0.2307  0.0204
   91MOL   C22629206   1.301   6.280   3.505  0.6727 -0.4250 -0.1093
   91MOL   C22729207   1.339   6.422   3.462 -0.1538  0.6487  0.9877
   91MOL   C22829208   1.399   6.508   3.550  0.0657 -0.8432  0.1254
   91MOL   C22929209   1.460   6.622   3.507  0.3798  0.0377  0.0576
   91MOL   C23029210   1.470   6.654   3.372 -0.4947  0.4811  0.8248
   91MOL   F23129211   1.532   6.769   3.325  0.1124 -0.2898 -0.4127
   91MOL   C23229212   1.411   6.575   3.273  0.2553 -0.1730 -0.2615
   91MOL   C23329213   1.343   6.457   3.324 -0.1892 -0.7567 -0.4806
   91MOL   C23429214   1.169   6.220   3.454  0.3237 -0.7289  0.4595
   91MOL   H23529215   1.306   6.277   3.614  0.9620  0.2365 -0.1049
   91MOL   H23629216   1.388   6.482   3.654 -3.0623  0.8941  0.3087
   91MOL   H23729217   1.502   6.703   3.566  0.2538 -0.2109  0.4879
   91MOL   H23829218   1.415   6.599   3.168 -1.6525  0.2156 -0.2707
   91MOL   H23929219   1.297   6.396   3.248  0.9886 -1.0900 -0.9407
   91MOL   H24029220   1.189   6.209   3.348  0.2854 -2.1206  0.5906
   91MOL   H24129221   1.157   6.116   3.484  1.3968 -1.2250 -0.8070
   91MOL   C24229222   1.044   6.295   3.492  0.6180  0.0608  0.2966
   91MOL   C24329223   0.922   6.238   3.412 -0.2948  0.5054  0.2106
   91MOL   C24429224   0.879   6.103   3.436 -0.1816 -0.1333  0.7048
   91MOL   C24529225   0.759   6.059   3.377 -0.1138 -0.3810  0.3275
   91MOL   C24629226   0.689   6.137   3.284  0.7720 -0.0319  0.2689
   91MOL   F24729227   0.586   6.074   3.215  0.2089  0.4208 -0.0738
   91MOL   C24829228   0.728   6.266   3.259 -0.4139 -0.6265 -0.8123
   91MOL   C24929229   0.842   6.319   3.327 -0.4310  0.0052  0.0043
   91MOL   C25029230   0.999   6.315   3.635  0.3122  0.3138 -0.5184
   91MOL   H25129231   1.055   6.393   3.445 -1.9885 -0.9755 -2.6502
   91MOL   H25229232   0.928   6.024   3.491 -1.8040 -0.3468  1.8724
   91MOL   H25329233   0.720   5.961   3.402 -1.2355 -0.4380 -1.4801
   91MOL   H25429234   0.677   6.332   3.191  0.9878 -1.5845 -2.8248
   91MOL   H25529235   0.883   6.416   3.303 -2.8554  1.2061  0.4845
   91MOL   H25629236   0.890   6.311   3.640  0.2132  1.2434 -1.6642
   91MOL   H25729237   1.029   6.228   3.693 -0.6154  0.5518  0.3103
   91MOL   C25829238   1.052   6.449   3.699  0.6013  0.1757  1.0412
   91MOL   C25929239   1.012   6.566   3.607 -0.1469 -0.4737 -0.6163
   91MOL   C26029240   0.886   6.585   3.548 -0.2601 -0.0285 -0.5229
   91MOL   C26129241   0.870   6.696   3.463  0.8265  0.0909  0.2942
   91MOL   C26229242   0.966   6.799   3.458  0.7358 -0.0948 -0.3493
   91MOL   F26329243   0.951   6.897   3.364 -0.3059 -0.7489 -0.0002
   91MOL   C26429244   1.091   6.788   3.529 -0.0894 -0.4550  0.5194
   91MOL   C26529245   1.112   6.667   3.600 -0.2662  0.1429 -0.2337
   91MOL   C26629246   1.027   6.471   3.850 -0.4678 -0.0074  0.3627
   91MOL   H26729247   1.161   6.454   3.707  0.9626 -1.5196 -2.0815
   91MOL   H26829248   0.822   6.498   3.549 -1.8390  1.1280 -1.4221
   91MOL   H26929249   0.783   6.688   3.399  0.1799  0.7903  1.0746
   91MOL   H27029250   1.175   6.856   3.525  0.7897 -1.6651 -3.3565
   91MOL   H27129251   1.204   6.652   3.654  0.7865  0.9606 -1.7884
   91MOL   H27229252   1.092   6.550   3.889  0.1043  0.0786 -0.7348
   91MOL   H27329253   0.936   6.527   3.868  1.1353  2.2774  1.5425
   91MOL   C27429254   1.028   6.356   3.948 -0.3505  0.4976  0.4699
   91MOL   C27529255   1.158   6.271   3.942  1.3624  0.3527 -0.7337
   91MOL   C27629256   1.282   6.326   3.978 -0.4717  0.4844  0.1374
   91MOL   C27729257   1.398   6.253   3.955 -0.0682  0.1712 -0.2361
   91MOL   C27829258   1.389   6.121   3.906 -0.9296  0.2326  0.3318
   91MOL   F27929259   1.498   6.050   3.892  0.5011  0.1708 -0.5665
   91MOL   C28029260   1.269   6.067   3.869  0.0203  0.1517 -0.1183
   91MOL   C28129261   1.154   6.141   3.886  0.7081  1.0178  0.1053
   91MOL   C28229262   0.980   6.398   4.087  0.3022  0.2368 -0.4639
   91MOL   H28329263   0.949   6.292   3.909  0.3119  0.1647 -0.3391
   91MOL   H28429264   1.285   6.427   4.015  0.1570  0.6278 -0.3076
   91MOL   H28529265   1.491   6.299   3.985 -0.8917  2.9256 -1.7494
   91MOL   H28629266   1.261   5.966   3.834 -1.5610 -0.2455  1.3002
   91MOL   H28729267   1.062   6.096   3.853  0.8451  1.1581 -0.4621
   91MOL   H28829268   1.061   6.451   4.137  0.6110 -0.7147  0.0752
   91MOL   H28929269   0.906   6.477   4.075 -2.7679 -2.2359  1.1691
   91MOL   C29029270   0.923   6.285   4.182  0.2918  0.8041  1.1288
   91MOL   C29129271   1.009   6.253   4.306  0.0117 -0.0567  1.0986
   91MOL   C29229272   1.107   6.157   4.287 -0.7965 -0.0880 -0.3466
   91MOL   C29329273   1.181   6.117   4.399 -0.1999 -0.1921 -0.0025
   91MOL   C29429274   1.169   6.191   4.521 -0.2987  0.9823  0.0694
   91MOL   F29529275   1.248   6.163   4.625 -0.0678  0.2279 -0.2402
   91MOL   C29629276   1.076   6.292   4.532  0.0123  0.1258  0.6232
   91MOL   C29729277   0.991   6.321   4.426 -0.8857 -0.6398  0.1181
   91MOL   C29829278   0.768   6.289   4.197  0.2860 -0.4326  0.1642
   91MOL   H29929279   0.930   6.195   4.121  1.7860  0.5424  1.6692
   91MOL   H30029280   1.111   6.089   4.204 -0.2823 -0.6403  0.1258
   91MOL   H30129281   1.255   6.039   4.396 -0.5318 -0.5937  1.9662
   91MOL   H30229282   1.076   6.340   4.629 -0.4955 -2.2262  1.8188
   91MOL   H30329283   0.921   6.402   4.415  0.8566  0.8119 -0.4633
   91MOL   H30429284   0.723   6.383   4.228  2.9196 -0.1210  3.3010
   91MOL   H30529285   0.719   6.285   4.099  4.8872 -0.6847 -2.3147
   91MOL   C30629286   0.700   6.170   4.265  0.0902  0.0218 -0.2779
   91MOL   C30729287   0.688   6.189   4.416 -0.4722 -0.1811 -0.0963
   91MOL   C30829288   0.730   6.086   4.505 -0.6279 -0.3363 -0.1474
   91MOL   C30929289   0.726   6.095   4.649 -0.0512 -0.6336  0.9259
   91MOL   C31029290   0.674   6.212   4.703  0.8910 -0.0723  0.2919
   91MOL   F31129291   0.669   6.230   4.841  0.3026  0.1668 -0.1282
   91MOL   C31229292   0.614   6.308   4.617 -0.4356  0.5577  0.5752
   91MOL   C31329293   0.627   6.300   4.477  0.0034 -0.3156  0.2036
   91MOL   C31429294   0.567   6.127   4.212 -0.2268 -0.1432 -0.1467
   91MOL   H31529295   0.766   6.085   4.246 -0.4218 -0.0020 -2.0404
   91MOL   H31629296   0.771   5.992   4.471 -2.5361 -0.9081 -0.9368
   91MOL   H31729297   0.770   6.022   4.715  0.5171 -2.3503 -1.2969
   91MOL   H31829298   0.574   6.399   4.659 -0.8043 -0.0655  1.6185
   91MOL   H31929299   0.590   6.388   4.427 -2.7202 -1.5220  0.0099
   91MOL   H32029300   0.572   6.109   4.104 -0.0118 -0.4525 -0.0864
   91MOL   H32129301   0.533   6.034   4.256 -1.6415  0.0334 -0.8352
   91MOL   H32229302   0.482   6.193   4.227 -0.1641 -0.0406 -0.2355
   92MOL     C129303   1.207   2.959   7.649 -0.0334  0.4822  0.0754
   92MOL     C229304   1.155   2.884   7.532 -0.4977  0.1020  0.0038
   92MOL     C329305   1.148   2.947   7.406  0.1849 -0.3014  0.3145
   92MOL     C429306   1.097   2.872   7.298 -0.2243 -0.6312 -0.3401
   92MOL     C529307   1.068   2.733   7.319  0.6981 -0.2417  0.2650
   92MOL     F629308   1.020   2.664   7.207 -0.9564  0.4681  0.3062
   92MOL     C729309   1.083   2.676   7.442  0.2237  0.6351  0.6476
   92MOL     C829310   1.116   2.751   7.547  0.2964  0.5490  0.0126
   92MOL     C929311   1.363   2.945   7.670 -0.1951 -0.3881  0.1743
   92MOL    H1029312   1.162   2.914   7.738 -0.8557  1.6602  0.2599
   92MOL    H1129313   1.180   3.047   7.382  2.4574 -1.2247 -0.5783
   92MOL    H1229314   1.081   2.906   7.197 -0.6311 -0.8063 -0.3337
   92MOL    H1329315   1.064   2.570   7.452 -0.1937  0.8706  2.3904
   92MOL    H1429316   1.127   2.704   7.644 -0.8859 -2.0853 -1.0849
   92MOL    H1529317   1.391   2.844   7.701 -1.8149 -1.6616 -2.3086
   92MOL    H1629318   1.413   2.963   7.575 -1.1790  0.2414 -0.2200
   92MOL    H1729319   1.184   3.065   7.647 -0.3286  0.4336 -3.8984
   92MOL    C1829320   1.426   3.052   7.767 -0.0996  0.0895  0.0464
   92MOL    C1929321   1.364   3.054   7.915 -0.7841  0.7131  1.2715
   92MOL    C2029322   1.289   3.164   7.952  0.2833 -1.1791 -0.2747
   92MOL    C2129323   1.241   3.175   8.090 -0.1505  0.0810  0.8170
   92MOL    C2229324   1.276   3.081   8.185 -0.4834  0.2944 -0.3039
   92MOL    F2329325   1.233   3.095   0.082  0.0576  0.3190 -0.1935
   92MOL    C2429326   1.361   2.968   8.144  0.0423  0.4203  0.3095
   92MOL    C2529327   1.390   2.951   8.008 -0.3601 -0.4029 -0.2259
   92MOL    C2629328   1.578   3.056   7.777 -0.4958  0.4655 -0.4177
   92MOL    H2729329   1.397   3.148   7.725 -4.1948 -1.0533  0.0336
   92MOL    H2829330   1.262   3.241   7.881 -0.8432  0.0531  1.4433
   92MOL    H2929331   1.179   3.255   8.127  0.2249  1.3311 -1.2056
   92MOL    H3029332   1.381   2.887   8.213 -0.4398 -1.0598 -1.2538
   92MOL    H3129333   1.438   2.860   7.973 -0.7496 -0.3469 -0.9155
   92MOL    H3229334   1.602   3.124   7.858  1.3383  0.4593 -0.9279
   92MOL    H3329335   1.610   2.955   7.804 -0.5730  0.1434 -1.4937
   92MOL    C3429336   1.652   3.111   7.651 -0.5191 -0.2896 -0.2301
   92MOL    C3529337   1.579   3.228   7.585 -0.3290  0.0155  0.0373
   92MOL    C3629338   1.504   3.213   7.464  0.1185 -0.5576 -0.3294
   92MOL    C3729339   1.446   3.324   7.402 -0.4203 -0.1183 -0.8858
   92MOL    C3829340   1.446   3.451   7.458 -0.0245 -0.0161 -0.5913
   92MOL    F3929341   1.392   3.558   7.393  0.2729  0.7716 -0.1123
   92MOL    C4029342   1.509   3.461   7.585  0.0873 -0.0850  0.7211
   92MOL    C4129343   1.579   3.357   7.647  0.5514  0.1147  0.7093
   92MOL    C4229344   1.796   3.156   7.684 -0.3267  0.3749 -0.0461
   92MOL    H4329345   1.658   3.031   7.578 -0.9191  1.6643 -2.4632
   92MOL    H4429346   1.497   3.121   7.407 -1.1422 -0.5102 -0.2611
   92MOL    H4529347   1.394   3.301   7.310 -1.2564 -3.6183  0.3722
   92MOL    H4629348   1.500   3.555   7.638  1.0172  0.5913 -0.2925
   92MOL    H4729349   1.626   3.369   7.744 -0.6736  0.5492  1.2532
   92MOL    H4829350   1.843   3.200   7.595 -0.1198  3.3289  1.4823
   92MOL    H4929351   1.799   3.249   7.740 -1.8342 -0.4711  1.4840
   92MOL    C5029352   1.885   3.038   7.753  0.4858  0.2632 -0.2001
   92MOL    C5129353   1.894   2.922   7.659  0.7234 -1.0013 -0.6196
   92MOL    C5229354   1.838   2.799   7.694  0.2233 -0.3646  0.1203
   92MOL    C5329355   1.857   2.688   7.607 -0.0644 -0.3288  0.0975
   92MOL    C5429356   1.931   2.696   7.490 -0.2882  0.3246  0.1516
   92MOL    F5529357   1.932   2.592   7.397  0.2011  0.1649  0.3681
   92MOL    C5629358   1.990   2.817   7.463 -0.6783 -0.1147  0.3313
   92MOL    C5729359   1.965   2.931   7.535 -0.2109 -0.1520 -0.1597
   92MOL    C5829360   2.017   3.103   7.809  0.0950  0.4416  0.3529
   92MOL    H5929361   1.820   3.002   7.833  0.5492 -1.7013 -0.9996
   92MOL    H6029362   1.788   2.772   7.785  0.6752 -0.2433  0.4069
   92MOL    H6129363   1.803   2.598   7.630 -1.1733  0.7042  1.6408
   92MOL    H6229364   2.047   2.836   7.373 -1.7631 -2.8206 -0.9700
   92MOL    H6329365   2.006   3.025   7.500 -0.4697 -0.6573 -1.8463
   92MOL    H6429366   2.064   3.171   7.738  2.3732  1.3402  2.6331
   92MOL    H6529367   1.988   3.168   7.891 -0.9322  1.9852 -1.2211
   92MOL    C6629368   2.132   3.006   7.854 -0.0422 -0.1129  0.4091
   92MOL    C6729369   2.227   2.975   7.746  0.1861 -0.3782 -0.4206
   92MOL    C6829370   2.238   2.850   7.692 -0.3739 -0.0365  0.5138
   92MOL    C6929371   2.330   2.821   7.596 -0.1356 -0.1404 -0.5081
   92MOL    C7029372   2.411   2.923   7.551  0.0425 -0.2418 -0.2503
   92MOL    F7129373   2.493   2.896   7.448  0.1940  0.2013 -0.2147
   92MOL    C7229374   2.399   3.052   7.598 -0.1563  0.8443 -0.0764
   92MOL    C7329375   2.314   3.079   7.708  0.0323 -0.7286  0.7540
   92MOL    C7429376   2.205   3.046   7.991 -0.0988 -0.4151  0.5090
   92MOL    H7529377   2.084   2.910   7.875  3.5936 -1.6385  2.0713
   92MOL    H7629378   2.164   2.773   7.707  0.1688 -0.4803  0.9033
   92MOL    H7729379   2.330   2.728   7.541 -0.9146  0.5093 -1.6284
   92MOL    H7829380   2.462   3.133   7.565 -0.7145  0.6466 -1.6531
   92MOL    H7929381   2.316   3.182   7.740  2.9942 -0.6685  0.5097
   92MOL    H8029382   2.272   2.962   8.011 -0.1787 -0.8434 -0.9372
   92MOL    H8129383   2.256   3.141   7.977 -1.9490  0.9565  2.6831
   92MOL    C8229384   2.113   3.050   8.120 -0.1999  0.2048 -0.5119
   92MOL    C8329385   2.014   2.937   8.121 -0.5152  0.9025  0.0395
   92MOL    C8429386   1.883   2.972   8.086  0.0532 -0.0788  0.5389
   92MOL    C8529387   1.781   2.873   8.087  0.5784  0.2830  0.8518
   92MOL    C8629388   1.816   2.742   8.109 -0.1960  0.6755  0.4476
   92MOL    F8729389   1.738   2.637   8.095  0.1934 -0.0550  0.0030
   92MOL    C8829390   1.946   2.709   8.147  0.0918 -0.2284 -0.1701
   92MOL    C8929391   2.048   2.805   8.155 -0.0958 -0.0838  0.1524
   92MOL    C9029392   2.194   3.048   0.018  0.1548  0.2673 -0.1858
   92MOL    H9129393   2.065   3.147   8.119 -1.0330 -0.0930  3.6040
   92MOL    H9229394   1.867   3.073   8.053  3.2843  0.0275 -0.9685
   92MOL    H9329395   1.678   2.896   8.065  0.6772 -0.0418  0.0295
   92MOL    H9429396   1.965   2.606   8.176 -1.8377 -0.1878  1.2666
   92MOL    H9529397   2.146   2.784   8.195  0.5873  3.7133  0.6515
   92MOL    H9629398   2.131   3.027   0.105 -0.5958 -1.0972 -1.0655
   92MOL    H9729399   2.260   2.962   0.021 -0.0629  0.1201  0.8074
   92MOL    C9829400   2.272   3.177   0.053  0.1677  1.0018  0.0463
   92MOL    C9929401   2.188   3.301   0.087 -0.0274 -0.0837  0.5455
   92MOL   C10029402   2.086   3.292   0.184  0.1501  0.0171 -0.3850
   92MOL   C10129403   1.997   3.406   0.207  0.5849 -0.2534 -0.6490
   92MOL   C10229404   2.037   3.532   0.149  0.2229 -0.8029  0.2688
   92MOL   F10329405   1.971   3.649   0.181  0.6359  0.1654  0.1120
   92MOL   C10429406   2.140   3.541   0.051  0.4859 -0.2916  0.6852
   92MOL   C10529407   2.215   3.428   0.024 -0.1849 -0.2262 -0.6777
   92MOL   C10629408   2.376   3.140   0.157 -0.3130 -0.4333 -0.8139
   92MOL   H10729409   2.320   3.208   8.195 -2.5625  1.4280 -1.2676
   92MOL   H10829410   2.065   3.200   0.237  0.1933  1.0280  1.4246
   92MOL   H10929411   1.910   3.409   0.272 -1.3807 -0.6996 -3.1983
   92MOL   H11029412   2.182   3.634   0.015  0.9018 -0.2140  1.3614
   92MOL   H11129413   2.299   3.434   8.191 -0.1120  2.0659 -0.4384
   92MOL   H11229414   2.325   3.106   0.247  0.6146  0.0039 -0.1045
   92MOL   H11329415   2.428   3.058   0.107 -0.5140 -0.4217 -1.0417
   92MOL   C11429416   2.494   3.231   0.198  0.2687 -0.6184 -0.2767
   92MOL   C11529417   2.437   3.354   0.265  0.5752 -0.0304 -0.0059
   92MOL   C11629418   2.471   3.484   0.224  0.4580  0.0578 -0.5975
   92MOL   C11729419   2.412   3.599   0.277  0.7931  0.2767  0.6436
   92MOL   C11829420   2.314   3.581   0.379 -0.2686 -0.3915  0.0121
   92MOL   F11929421   2.233   3.683   0.415 -0.5561  0.1035 -0.1039
   92MOL   C12029422   2.300   3.453   0.437 -0.3411 -0.2445 -0.3439
   92MOL   C12129423   2.356   3.344   0.376  0.2480  0.2831 -0.4293
   92MOL   C12229424   2.601   3.159   0.282 -0.0670  0.0598  0.4770
   92MOL   H12329425   2.534   3.258   0.101 -0.7095  0.1174 -0.4830
   92MOL   H12429426   2.542   3.506   0.145  2.3960 -0.6115  0.9165
   92MOL   H12529427   2.437   3.698   0.242  1.1262  0.3406  1.0602
   92MOL   H12629428   2.240   3.433   0.524 -2.4040  0.3869 -1.5686
   92MOL   H12729429   2.341   3.248   0.423  0.7049  1.2422  1.7369
   92MOL   H12829430   2.554   3.095   0.355 -2.6449 -0.9890 -2.0015
   92MOL   H12929431   2.656   3.096   0.212 -0.3600 -1.4805  1.6159
   92MOL   C13029432   2.706   3.251   0.350 -0.9171  0.1369 -0.1089
   92MOL   C13129433   2.793   3.165   0.447  0.5314 -0.6159  0.2822
   92MOL   C13229434   2.891   3.075   0.395 -0.4623  0.1669  1.1123
   92MOL   C13329435   2.970   2.996   0.477 -0.2529  0.1069 -0.0841
   92MOL   C13429436   2.942   3.007   0.619 -0.0692 -0.9019 -0.3568
   92MOL   F13529437   3.018   2.930   0.699 -0.0021  0.3369  0.0739
   92MOL   C13629438   2.855   3.108   0.670 -0.2123 -0.2955  0.3932
   92MOL   C13729439   2.779   3.186   0.583 -0.4007 -0.4923  0.4527
   92MOL   C13829440   2.788   3.340   0.248  0.1250  0.2076  0.0446
   92MOL   H13929441   2.660   3.326   0.413  0.1666 -0.1029  0.9843
   92MOL   H14029442   2.896   3.063   0.288  1.5023  0.3817  1.1719
   92MOL   H14129443   3.032   2.924   0.426  0.8271  1.3241 -0.5044
   92MOL   H14229444   2.843   3.122   0.777 -1.0836 -0.6911  0.3540
   92MOL   H14329445   2.713   3.259   0.628  2.2405 -0.1683  3.9381
   92MOL   H14429446   2.801   3.273   0.162  3.1943 -0.8059  1.2049
   92MOL   H14529447   2.721   3.413   0.203 -0.3559  0.9548  1.9391
   92MOL   C14629448   2.925   3.397   0.288 -0.1949  0.3737 -0.3872
   92MOL   C14729449   3.014   3.425   0.167 -0.1119 -0.3768 -0.0415
   92MOL   C14829450   3.137   3.359   0.148 -0.3445  0.2119  0.0590
   92MOL   C14929451   3.220   3.398   0.038 -0.8493 -0.0058 -0.0182
   92MOL   C15029452   3.175   3.500   8.187  0.4032  0.3971 -0.4717
   92MOL   F15129453   3.250   3.530   8.079 -0.0168  0.1758 -0.0497
   92MOL   C15229454   3.049   3.562   8.204 -0.2547  0.2382 -0.1964
   92MOL   C15329455   2.973   3.533   0.082 -0.5426  0.6094  0.1476
   92MOL   C15429456   2.900   3.521   0.375  0.1921 -0.3361  0.0865
   92MOL   H15529457   2.965   3.311   0.343 -2.1155 -0.4819 -0.3020
   92MOL   H15629458   3.169   3.277   0.210 -2.5712 -0.9536 -0.3126
   92MOL   H15729459   3.314   3.348   0.019 -2.0862 -2.7886  0.9421
   92MOL   H15829460   3.016   3.636   8.133 -1.5754 -0.3151 -0.1773
   92MOL   H15929461   2.879   3.581   0.104  0.1468  2.0231  0.0509
   92MOL   H16029462   2.929   3.610   0.318 -2.0152  0.6749  0.4988
   92MOL   H16129463   2.793   3.530   0.393 -0.1218 -3.7232  0.0957
   92MOL   C16229464   2.968   3.534   0.513 -0.2475 -0.0731 -0.3954
   92MOL   C16329465   3.108   3.472   0.512  0.2861 -0.4423 -0.4714
   92MOL   C16429466   3.122   3.346   0.580  0.5079  0.0053  0.4792
   92MOL   C16529467   3.250   3.287   0.600 -0.2762  0.1821  0.6742
   92MOL   C16629468   3.364   3.360   0.561  0.6901 -0.6036  0.3710
   92MOL   F16729469   3.481   3.311   0.600 -0.2289 -0.7706  0.2665
   92MOL   C16829470   3.351   3.482   0.492 -1.0446 -0.0055 -0.1479
   92MOL   C16929471   3.226   3.538   0.477  0.3781  0.0180 -0.0589
   92MOL   C17029472   2.966   3.673   0.582 -0.4300 -0.2998 -0.3449
   92MOL   H17129473   2.910   3.472   0.582 -0.2677  0.5672  0.1685
   92MOL   H17229474   3.029   3.306   0.617  0.1697  0.4382  0.1028
   92MOL   H17329475   3.263   3.194   0.654 -1.2053  0.1241  0.8052
   92MOL   H17429476   3.439   3.541   0.472 -0.0930 -1.6109 -0.8222
   92MOL   H17529477   3.207   3.635   0.434  2.4175  0.0632 -0.8747
   92MOL   H17629478   3.028   3.679   0.671 -0.8038 -1.5892  0.0176
   92MOL   H17729479   3.008   3.745   0.513 -1.0314 -0.9109 -1.3559
   92MOL   C17829480   2.820   3.718   0.621  0.0207  0.1745 -0.6402
   92MOL   C17929481   2.751   3.616   0.712  0.2935 -0.1390 -0.2134
   92MOL   C18029482   2.617   3.588   0.681  0.2867  0.4866  0.1968
   92MOL   C18129483   2.541   3.498   0.760  0.4137  0.1716 -0.5332
   92MOL   C18229484   2.610   3.433   0.870 -0.1257  0.4438 -0.0014
   92MOL   F18329485   2.552   3.326   0.927  0.6780  0.2668 -0.0321
   92MOL   C18429486   2.743   3.464   0.903 -0.0364 -0.0333 -0.0951
   92MOL   C18529487   2.812   3.559   0.824  0.1546  0.5378  0.2792
   92MOL   C18629488   2.819   3.852   0.688 -0.5155 -0.8808  0.7326
   92MOL   H18729489   2.752   3.715   0.536  0.5550  1.0033 -1.1036
   92MOL   H18829490   2.564   3.640   0.603 -1.2058 -0.8753  0.2768
   92MOL   H18929491   2.438   3.472   0.741 -0.4522  2.9915  0.1399
   92MOL   H19029492   2.799   3.418   0.983  0.5167  0.2032 -0.3390
   92MOL   H19129493   2.909   3.596   0.854  0.2713 -0.0738  0.6585
   92MOL   H19229494   2.733   3.846   0.753 -1.8987 -1.3301 -1.0871
   92MOL   H19329495   2.912   3.868   0.743 -0.6173  1.0855  0.3903
   92MOL   C19429496   2.797   3.975   0.608 -0.3840 -0.2324 -0.2425
   92MOL   C19529497   2.678   3.964   0.508 -0.7515  0.7961 -0.4715
   92MOL   C19629498   2.703   3.999   0.371 -0.0368 -0.1513  0.1782
   92MOL   C19729499   2.603   3.999   0.274  0.1193  0.6550  0.2340
   92MOL   C19829500   2.473   3.959   0.311 -0.0284 -0.1249  0.9181
   92MOL   F19929501   2.368   3.951   0.225  0.0504 -0.7137 -0.1913
   92MOL   C20029502   2.446   3.923   0.443 -0.4472 -0.6429  0.1716
   92MOL   C20129503   2.545   3.932   0.545 -0.1356  0.8570 -0.0056
   92MOL   C20229504   2.778   4.093   0.700  0.7784 -0.0175 -0.7950
   92MOL   H20329505   2.886   3.994   0.549 -0.4437  0.6758 -0.0385
   92MOL   H20429506   2.803   4.026   0.341  1.3226 -1.0949  3.6542
   92MOL   H20529507   2.618   4.029   0.172  2.4041  0.5850  0.5183
   92MOL   H20629508   2.349   3.887   0.474 -0.0469 -0.1120  2.0809
   92MOL   H20729509   2.519   3.907   0.647  2.7599  1.7338  1.0086
   92MOL   H20829510   2.706   4.072   0.779 -1.5523  2.3213 -2.1779
   92MOL   H20929511   2.863   4.117   0.763  0.9940 -0.3462 -0.9598
   92MOL   C21029512   2.752   4.229   0.633 -0.8994  0.0601 -0.1001
   92MOL   C21129513   2.606   4.269   0.668  0.1941  0.1756  0.0567
   92MOL   C21229514   2.499   4.241   0.582  0.0337 -0.1568  0.0351
   92MOL   C21329515   2.363   4.258   0.620  0.9262  0.0573  0.1166
   92MOL   C21429516   2.340   4.309   0.750 -0.5675  0.3054 -0.5511
   92MOL   F21529517   2.210   4.304   0.792 -0.1810 -0.0615  0.2279
   92MOL   C21629518   2.443   4.343   0.841  0.5959 -0.1565 -0.6963
   92MOL   C21729519   2.575   4.321   0.796  0.1562  0.0326  0.1237
   92MOL   C21829520   2.861   4.334   0.673 -0.1368 -0.1642 -0.7016
   92MOL   H21929521   2.744   4.216   0.525 -2.0679  0.1050 -0.0263
   92MOL   H22029522   2.510   4.205   0.480  0.6975 -2.0296  0.7543
   92MOL   H22129523   2.279   4.240   0.555  0.2264  0.3475  0.9381
   92MOL   H22229524   2.423   4.380   0.940  0.3108 -1.8182 -0.1265
   92MOL   H22329525   2.657   4.341   0.863 -0.1308  1.3377  0.0943
   92MOL   H22429526   2.824   4.435   0.657  2.6824  1.3918  2.0318
   92MOL   H22529527   2.887   4.327   0.779 -0.8161 -3.8181 -0.6952
   92MOL   C22629528   2.992   4.311   0.588  0.1530 -0.3706 -0.0856
   92MOL   C22729529   2.971   4.337   0.447  0.1716  0.2397  0.3706
   92MOL   C22829530   2.999   4.230   0.362  0.3389  0.3213  0.2285
   92MOL   C22929531   2.985   4.247   0.222 -0.1587  0.2180 -0.4827
   92MOL   C23029532   2.935   4.370   0.170  0.1803  0.5794 -0.3159
   92MOL   F23129533   2.944   4.390   0.028  0.1104 -0.2135 -0.1353
   92MOL   C23229534   2.897   4.474   0.259  0.1468  0.0137 -0.0989
   92MOL   C23329535   2.920   4.459   0.398  0.4153 -0.0984 -0.3626
   92MOL   C23429536   3.111   4.384   0.659 -0.3954  0.3467  0.3353
   92MOL   H23529537   3.012   4.204   0.594  2.2301 -0.0653 -0.9966
   92MOL   H23629538   3.044   4.137   0.391 -3.2287 -1.4332  0.3915
   92MOL   H23729539   3.030   4.170   0.161 -1.3873  0.4978 -1.7613
   92MOL   H23829540   2.865   4.573   0.230  0.2778  0.2244  0.4636
   92MOL   H23929541   2.893   4.535   0.471  0.5692 -0.6217  0.2436
   92MOL   H24029542   3.188   4.415   0.589  0.0176 -1.9305 -0.2811
   92MOL   H24129543   3.063   4.475   0.695 -1.6672  0.1954 -0.9462
   92MOL   C24229544   3.192   4.310   0.766 -0.5716  0.4798 -0.2073
   92MOL   C24329545   3.259   4.182   0.716 -0.0601 -0.2430 -0.5442
   92MOL   C24429546   3.379   4.181   0.647 -0.2553  0.2185 -0.0966
   92MOL   C24529547   3.439   4.060   0.614  0.3427 -0.1770 -0.2755
   92MOL   C24629548   3.378   3.937   0.640 -0.1832 -0.2905 -0.4418
   92MOL   F24729549   3.438   3.818   0.620  0.3319  0.7833  0.2051
   92MOL   C24829550   3.249   3.937   0.688  0.6810 -0.0273 -0.6932
   92MOL   C24929551   3.197   4.057   0.737  0.5917 -0.2457  0.1565
   92MOL   C25029552   3.291   4.408   0.834  0.7504  0.1102 -0.3610
   92MOL   H25129553   3.125   4.279   0.846 -0.4144  0.2382 -0.1691
   92MOL   H25229554   3.439   4.269   0.632 -0.2398  0.0323 -1.2098
   92MOL   H25329555   3.541   4.062   0.579  0.0904 -1.2028 -1.1001
   92MOL   H25429556   3.209   3.839   0.711  0.3324  0.3728  0.4674
   92MOL   H25529557   3.108   4.049   0.796 -0.6183  1.5887 -1.3393
   92MOL   H25629558   3.353   4.459   0.759  0.5085  1.6140  0.4427
   92MOL   H25729559   3.224   4.488   0.864  0.3512 -0.1710 -0.5034
   92MOL   C25829560   3.360   4.351   0.960  0.1917 -0.9203  0.2772
   92MOL   C25929561   3.502   4.323   0.922  0.1235 -0.1962 -0.7295
   92MOL   C26029562   3.568   4.198   0.941  0.8792  0.2026  0.2220
   92MOL   C26129563   3.704   4.177   0.920 -0.1585 -0.3925  0.3898
   92MOL   C26229564   3.774   4.276   0.866  0.7586  0.1397  0.5641
   92MOL   F26329565   3.903   4.258   0.843 -0.1530 -0.0993 -0.0927
   92MOL   C26429566   3.712   4.396   0.823  0.3908  0.0417  0.0253
   92MOL   C26529567   3.577   4.426   0.861 -0.5822 -0.1360 -0.2335
   92MOL   C26629568   3.360   4.454   1.077  0.3819 -0.2340  0.2824
   92MOL   H26729569   3.300   4.269   0.998 -1.6965  0.3990  0.2528
   92MOL   H26829570   3.515   4.116   0.988  1.2112 -0.0272  0.1980
   92MOL   H26929571   3.758   4.088   0.949  0.1242 -0.6650 -0.9085
   92MOL   H27029572   3.771   4.476   0.781  2.2677 -0.0264  2.4472
   92MOL   H27129573   3.542   4.526   0.838  0.6728  0.2029 -0.7246
   92MOL   H27229574   3.402   4.549   1.045 -1.5789  1.3914  2.3431
   92MOL   H27329575   3.261   4.485   1.111  0.6125 -0.2466  0.9844
   92MOL   C27429576   3.437   4.419   1.201  0.2218  0.4582  0.1428
   92MOL   C27529577   3.451   4.534   1.297  0.0283 -0.4121  0.0394
   92MOL   C27629578   3.530   4.639   1.251  0.0444  1.0294 -0.1032
   92MOL   C27729579   3.552   4.748   1.329  0.2869  0.2857 -0.6153
   92MOL   C27829580   3.507   4.750   1.457 -0.0765  0.0453 -0.3190
   92MOL   F27929581   3.527   4.860   1.537 -0.1139  0.4474 -0.1791
   92MOL   C28029582   3.426   4.645   1.509 -0.8100  0.4789  0.4829
   92MOL   C28129583   3.389   4.541   1.424  0.0568  0.3590  0.3867
   92MOL   C28229584   3.400   4.278   1.259 -1.0245  0.6629  0.1205
   92MOL   H28329585   3.535   4.395   1.159 -0.6857  0.7666 -2.2697
   92MOL   H28429586   3.591   4.628   1.162  2.8018  1.3011  1.6947
   92MOL   H28529587   3.611   4.831   1.291  2.9563 -1.5995 -0.6913
   92MOL   H28629588   3.387   4.644   1.610 -1.2755 -1.2230  0.2995
   92MOL   H28729589   3.325   4.468   1.470  1.8401 -1.9589 -0.6657
   92MOL   H28829590   3.431   4.197   1.193 -0.9210  0.5591  0.2963
   92MOL   H28929591   3.469   4.248   1.337  0.9946  0.5731 -1.6554
   92MOL   C29029592   3.250   4.267   1.315 -0.1461  0.1037  0.2494
   92MOL   C29129593   3.163   4.190   1.208  0.2073 -0.3017 -0.1247
   92MOL   C29229594   3.189   4.059   1.170  0.2657 -0.2968  0.4438
   92MOL   C29329595   3.085   3.997   1.091 -0.2384  0.0389  0.0502
   92MOL   C29429596   2.972   4.065   1.051  0.7337  0.4191 -0.3776
   92MOL   F29529597   2.871   4.000   0.984 -0.2959  0.1774  0.5408
   92MOL   C29629598   2.967   4.202   1.069 -0.0292  0.4366 -0.6448
   92MOL   C29729599   3.055   4.263   1.156  0.3577  0.3152  0.3669
   92MOL   C29829600   3.258   4.184   1.449 -0.7894 -0.0194 -0.6610
   92MOL   H29929601   3.205   4.364   1.333 -0.9109 -0.1683 -0.1309
   92MOL   H30029602   3.282   4.012   1.197 -2.1404 -4.6105  1.7286
   92MOL   H30129603   3.088   3.897   1.051 -0.8851 -0.4239  1.1144
   92MOL   H30229604   2.882   4.259   1.033 -0.0266  0.4556 -0.6197
   92MOL   H30329605   3.027   4.365   1.178 -1.3443 -0.2105  0.6464
   92MOL   H30429606   3.297   4.083   1.432  0.2066  0.4192 -1.0361
   92MOL   H30529607   3.334   4.232   1.511 -0.7809 -0.2086 -0.5232
   92MOL   C30629608   3.130   4.183   1.538 -0.0282  0.0769  0.0332
   92MOL   C30729609   3.064   4.317   1.561 -0.0717  0.3135  0.2904
   92MOL   C30829610   3.106   4.405   1.670  1.0255  0.7125  0.5906
   92MOL   C30929611   3.033   4.523   1.695 -0.0488 -0.2770  0.2772
   92MOL   C31029612   2.927   4.563   1.612 -0.2581  0.0266  0.2880
   92MOL   F31129613   2.870   4.684   1.628  0.3134 -0.1126  0.2021
   92MOL   C31229614   2.883   4.477   1.506  0.9702  0.7433 -0.3926
   92MOL   C31329615   2.958   4.360   1.476 -0.1421  0.2496 -0.0074
   92MOL   C31429616   3.021   4.075   1.515  0.5999 -0.2161 -0.5508
   92MOL   H31529617   3.171   4.157   1.635 -0.0126 -0.7186 -0.1774
   92MOL   H31629618   3.177   4.367   1.742  3.1369 -0.9369 -2.2935
   92MOL   H31729619   3.075   4.582   1.775  1.6035 -0.3653 -0.4844
   92MOL   H31829620   2.800   4.494   1.439  0.9333 -0.9971 -0.8249
   92MOL   H31929621   2.936   4.304   1.387 -0.6949 -1.9683  1.4826
   92MOL   H32029622   3.060   3.974   1.530  5.2482  1.4300 -0.7169
   92MOL   H32129623   2.947   4.100   1.591 -0.6155 -0.5250 -1.6204
   92MOL   H32229624   2.972   4.085   1.418  0.4217 -2.8271 -0.7724
   93MOL     C129625   3.452   1.998   6.505  0.1971 -0.3588 -0.5649
   93MOL     C229626   3.359   2.087   6.584  0.4762 -0.5044  0.0468
   93MOL     C329627   3.403   2.212   6.626 -0.0841  0.2295 -0.3224
   93MOL     C429628   3.306   2.298   6.680 -0.0175  0.8518  0.6818
   93MOL     C529629   3.173   2.250   6.707  0.2788  0.5576 -0.0191
   93MOL     F629630   3.075   2.335   6.764  0.0230 -0.5286  0.4573
   93MOL     C729631   3.134   2.123   6.675 -0.4456 -0.1072  0.0286
   93MOL     C829632   3.227   2.048   6.604  0.7549 -0.1012  0.0759
   93MOL     C929633   3.562   1.922   6.585  0.1882  0.3951 -0.8216
   93MOL    H1029634   3.480   2.064   6.423  0.2301  0.7437  0.3141
   93MOL    H1129635   3.503   2.251   6.616 -0.3575  1.2136  0.7582
   93MOL    H1229636   3.333   2.401   6.697  0.4226  0.6067  1.4664
   93MOL    H1329637   3.039   2.084   6.710 -0.0480 -2.1850 -1.1260
   93MOL    H1429638   3.183   1.954   6.576 -2.4036  0.7051  2.0967
   93MOL    H1529639   3.623   1.985   6.649  0.7440 -1.9791  1.0553
   93MOL    H1629640   3.511   1.848   6.646 -1.5780  0.8217 -1.7453
   93MOL    H1729641   3.395   1.914   6.464 -1.0198 -0.1606  0.6858
   93MOL    C1829642   3.664   1.858   6.483  0.1853 -0.1739  0.0296
   93MOL    C1929643   3.722   1.972   6.405  0.6304 -0.8495 -0.7620
   93MOL    C2029644   3.785   2.089   6.468 -0.0101 -0.0726 -0.6440
   93MOL    C2129645   3.833   2.194   6.388  0.1316 -0.3090 -0.3855
   93MOL    C2229646   3.810   2.195   6.247 -0.1367 -0.5325 -0.7123
   93MOL    F2329647   3.856   2.291   6.161  0.1715 -0.4132  0.2013
   93MOL    C2429648   3.752   2.087   6.190  0.2057 -0.2695 -0.6389
   93MOL    C2529649   3.715   1.973   6.266 -0.2129  0.0832  0.3837
   93MOL    C2629650   3.767   1.779   6.555 -0.2187  0.1678  0.7346
   93MOL    H2729651   3.612   1.793   6.413 -0.5642  0.4477  0.0024
   93MOL    H2829652   3.787   2.100   6.576 -0.8787 -0.2050 -0.6070
   93MOL    H2929653   3.873   2.279   6.442  0.7199  0.3286 -1.8103
   93MOL    H3029654   3.737   2.089   6.083  0.5929 -0.7993 -0.7083
   93MOL    H3129655   3.677   1.890   6.208  1.2326 -0.7677  0.6268
   93MOL    H3229656   3.800   1.843   6.636 -3.8423  1.1016  1.5358
   93MOL    H3329657   3.718   1.695   6.604  0.7553 -0.3977  0.7453
   93MOL    C3429658   3.881   1.709   6.481 -0.4825 -0.2792 -0.6390
   93MOL    C3529659   3.968   1.660   6.596  0.1079 -0.4794 -0.3775
   93MOL    C3629660   4.081   1.731   6.635 -0.0110  1.0770  0.1450
   93MOL    C3729661   4.151   1.688   6.749  0.1896  0.3270  0.3268
   93MOL    C3829662   4.118   1.571   6.811  0.1038  0.0781  0.4915
   93MOL    F3929663   4.196   1.527   6.910 -0.6594 -0.1157  0.1720
   93MOL    C4029664   4.005   1.498   6.781  0.1909  0.6918  0.4731
   93MOL    C4129665   3.922   1.554   6.676 -0.0946 -0.1885 -0.7172
   93MOL    C4229666   3.839   1.605   6.385 -0.4720  0.0391  0.4364
   93MOL    H4329667   3.945   1.778   6.426  0.9515  0.5665  1.9996
   93MOL    H4429668   4.124   1.815   6.583 -0.7667  1.5156  0.2272
   93MOL    H4529669   4.240   1.737   6.787 -0.7600  2.2019  0.1785
   93MOL    H4629670   3.991   1.401   6.827 -0.0408  0.7583  0.5423
   93MOL    H4729671   3.834   1.497   6.650 -0.6000  0.0539  0.4113
   93MOL    H4829672   3.752   1.546   6.417 -0.9505  0.0544 -0.7922
   93MOL    H4929673   3.795   1.652   6.297 -0.7269 -0.6009  0.2162
   93MOL    C5029674   3.950   1.502   6.344  0.3041  0.4949  0.1270
   93MOL    C5129675   3.885   1.399   6.248  0.2398  0.0739 -0.3055
   93MOL    C5229676   3.818   1.289   6.305 -0.4025 -0.5020 -0.0897
   93MOL    C5329677   3.758   1.198   6.222  0.4758 -0.2783 -0.2895
   93MOL    C5429678   3.757   1.213   6.084 -0.2051 -0.1779 -0.3443
   93MOL    F5529679   3.702   1.121   6.005  0.0468 -0.1644  0.1429
   93MOL    C5629680   3.823   1.320   6.024  0.3576 -0.0673 -0.5114
   93MOL    C5729681   3.881   1.417   6.106  0.2007  0.8787 -0.3847
   93MOL    C5829682   4.080   1.569   6.284 -0.2557  0.5626 -0.0716
   93MOL    H5929683   3.973   1.444   6.434  0.3878  1.5509  0.7921
   93MOL    H6029684   3.824   1.268   6.411 -1.6497  0.2940  0.1530
   93MOL    H6129685   3.716   1.108   6.265  0.7119  0.6311  1.8464
   93MOL    H6229686   3.816   1.332   5.917 -2.8053 -1.3109 -0.4959
   93MOL    H6329687   3.940   1.496   6.062  1.4561  0.5524  0.6650
   93MOL    H6429688   4.055   1.642   6.207 -0.0361 -0.0220 -0.6919
   93MOL    H6529689   4.123   1.625   6.368  1.6982  0.4675 -0.9935
   93MOL    C6629690   4.183   1.468   6.238  0.8391 -0.5281 -0.2528
   93MOL    C6729691   4.289   1.546   6.152  0.4796 -0.4387 -0.3555
   93MOL    C6829692   4.368   1.643   6.212 -0.9521  0.0330  0.2576
   93MOL    C6929693   4.470   1.710   6.137 -0.2195 -0.5987 -0.2738
   93MOL    C7029694   4.488   1.670   5.999  0.4986  0.1657 -0.2061
   93MOL    F7129695   4.587   1.731   5.935 -0.4949 -0.0771 -0.2921
   93MOL    C7229696   4.407   1.573   5.937  0.1584 -0.0974  0.5998
   93MOL    C7329697   4.306   1.521   6.012 -0.1106 -0.4378 -0.1090
   93MOL    C7429698   4.241   1.392   6.349  0.1377 -0.5332 -0.8656
   93MOL    H7529699   4.126   1.406   6.168 -0.3110  2.2249 -1.8576
   93MOL    H7629700   4.361   1.669   6.317  1.4197  2.2429 -0.0925
   93MOL    H7729701   4.526   1.791   6.182 -0.9320  0.4160 -1.1573
   93MOL    H7829702   4.416   1.547   5.832 -2.4321 -0.0659  0.3445
   93MOL    H7929703   4.245   1.441   5.972  0.4933 -0.1071 -1.7142
   93MOL    H8029704   4.350   1.396   6.338  0.0587  1.5126 -1.0695
   93MOL    H8129705   4.233   1.448   6.442  2.4341 -1.7238  0.1013
   93MOL    C8229706   4.196   1.249   6.356  0.2659  0.1541 -0.2403
   93MOL    C8329707   4.232   1.179   6.220  0.5718 -0.2399  1.0768
   93MOL    C8429708   4.364   1.171   6.168 -0.0239  0.5929  0.0886
   93MOL    C8529709   4.389   1.128   6.037  0.0875 -0.0429 -0.2886
   93MOL    C8629710   4.284   1.085   5.950  0.3719  0.2238 -0.6258
   93MOL    F8729711   4.308   1.040   5.820  0.3054  0.1472  0.1953
   93MOL    C8829712   4.156   1.075   6.011 -0.1817  0.2711 -0.0132
   93MOL    C8929713   4.130   1.119   6.144  0.7791 -0.4812  0.0818
   93MOL    C9029714   4.225   1.169   6.487 -0.3484  0.2815  0.7435
   93MOL    H9129715   4.087   1.244   6.357  0.2819 -0.9633  3.8012
   93MOL    H9229716   4.445   1.216   6.224  0.0817  1.0532 -0.4227
   93MOL    H9329717   4.481   1.136   5.982  0.0105  0.7109 -0.3082
   93MOL    H9429718   4.072   1.028   5.962  1.2003 -1.8727 -0.3626
   93MOL    H9529719   4.029   1.105   6.179  0.4045  1.2881 -0.2490
   93MOL    H9629720   4.160   1.219   6.558  1.5276 -0.1753  2.8335
   93MOL    H9729721   4.169   1.077   6.470  0.4423 -0.4459  1.9795
   93MOL    C9829722   4.371   1.150   6.541 -0.4656  0.3612 -0.3193
   93MOL    C9929723   4.410   1.246   6.649 -0.0389 -0.2144 -0.7383
   93MOL   C10029724   4.502   1.350   6.618 -0.0500 -0.2078 -0.6662
   93MOL   C10129725   4.555   1.427   6.731 -0.4245  0.2445  0.3387
   93MOL   C10229726   4.495   1.421   6.859  0.2946  0.1119  0.0395
   93MOL   F10329727   4.550   1.506   6.953  0.0460  0.7278  0.2613
   93MOL   C10429728   4.395   1.328   6.885 -0.4947 -0.1953 -0.0154
   93MOL   C10529729   4.358   1.240   6.781  0.2199  0.3953 -0.8156
   93MOL   C10629730   4.402   1.008   6.587  0.3148  0.5668 -0.4574
   93MOL   H10729731   4.450   1.157   6.467  0.6465 -0.9383  0.7175
   93MOL   H10829732   4.551   1.363   6.522  0.6723  1.2104 -0.1257
   93MOL   H10929733   4.626   1.507   6.717  0.5384 -0.6404  0.1461
   93MOL   H11029734   4.353   1.332   6.985  0.2760  1.8685  0.2526
   93MOL   H11129735   4.274   1.176   6.805  1.2445 -0.1538  1.5396
   93MOL   H11229736   4.494   1.008   6.645  0.6778 -0.6705 -1.0351
   93MOL   H11329737   4.319   0.991   6.655 -0.9729  0.1509 -2.1024
   93MOL   C11429738   4.388   0.906   6.469 -0.9417 -0.4162 -0.2426
   93MOL   C11529739   4.529   0.860   6.434  1.1777  0.3259 -0.2746
   93MOL   C11629740   4.600   0.914   6.325  0.2553  0.1614 -0.2852
   93MOL   C11729741   4.734   0.872   6.296  0.5524 -0.6518 -1.0626
   93MOL   C11829742   4.794   0.776   6.383 -0.2838  0.1159  0.4657
   93MOL   F11929743   4.926   0.750   6.364 -0.5640 -0.3299  0.4195
   93MOL   C12029744   4.719   0.715   6.486  0.4777 -0.7922 -0.2498
   93MOL   C12129745   4.589   0.765   6.514 -0.8827 -0.3521  0.5524
   93MOL   C12229746   4.284   0.791   6.490  0.2985  0.4508  0.5955
   93MOL   H12329747   4.364   0.967   6.382  3.7759 -0.8644 -1.9822
   93MOL   H12429748   4.562   1.000   6.273  0.2203 -0.5373 -1.4400
   93MOL   H12529749   4.784   0.919   6.212  0.6000 -0.7735 -1.1025
   93MOL   H12629750   4.760   0.645   6.557  0.0708  0.2242  1.0026
   93MOL   H12729751   4.535   0.727   6.599 -0.7889  1.7832  1.5971
   93MOL   H12829752   4.300   0.743   6.587  1.0316  0.2257  0.3670
   93MOL   H12929753   4.184   0.832   6.506 -0.4385 -1.3566  0.7893
   93MOL   C13029754   4.264   0.681   6.383  0.2122  0.5024  0.9762
   93MOL   C13129755   4.171   0.569   6.438  0.4674 -0.5122  0.5078
   93MOL   C13229756   4.225   0.452   6.486 -0.3819 -0.1013  0.4186
   93MOL   C13329757   4.150   0.360   6.565 -0.3173  0.2846 -0.6640
   93MOL   C13429758   4.009   0.375   6.569  0.7087  0.3125  0.0431
   93MOL   F13529759   3.936   0.292   6.647  0.5574 -0.1202 -0.3700
   93MOL   C13629760   3.946   0.492   6.514  0.1056 -0.6220 -0.1607
   93MOL   C13729761   4.028   0.589   6.451  0.0538  0.8615  0.5842
   93MOL   C13829762   4.231   0.729   6.238  0.1823  0.0245 -0.4503
   93MOL   H13929763   4.363   0.640   6.362  0.2043  0.3381  1.2573
   93MOL   H14029764   4.327   0.427   6.460 -1.6553 -2.0260 -3.1245
   93MOL   H14129765   4.189   0.268   6.606  1.3118  1.4670  0.5013
   93MOL   H14229766   3.840   0.508   6.514  0.1132 -0.4039 -2.1018
   93MOL   H14329767   3.980   0.683   6.429 -0.3718  0.1057 -1.8981
   93MOL   H14429768   4.129   0.768   6.241 -0.2852 -1.2282  0.1789
   93MOL   H14529769   4.302   0.808   6.215  0.5763  0.7396  3.0246
   93MOL   C14629770   4.205   0.615   6.135 -0.3392 -0.0010  0.5779
   93MOL   C14729771   4.116   0.669   6.020 -0.1789 -0.2253 -0.4425
   93MOL   C14829772   3.985   0.620   5.998  0.2846 -0.4293  0.4026
   93MOL   C14929773   3.907   0.669   5.889  0.4258  0.7938 -0.5299
   93MOL   C15029774   3.965   0.750   5.790  0.0835  0.8266  0.3968
   93MOL   F15129775   3.891   0.774   5.674  0.6143  0.2550 -0.4143
   93MOL   C15229776   4.092   0.802   5.815 -0.2665  0.5436 -0.6803
   93MOL   C15329777   4.176   0.758   5.925  0.5935 -0.6659  0.5213
   93MOL   C15429778   4.334   0.541   6.084 -0.5096 -0.2932  0.2465
   93MOL   H15529779   4.135   0.547   6.182 -2.7207 -0.1696 -2.9612
   93MOL   H15629780   3.930   0.543   6.051 -1.7988 -0.3633 -1.5782
   93MOL   H15729781   3.809   0.627   5.872  0.1231 -0.5586  3.8640
   93MOL   H15829782   4.135   0.877   5.750 -0.5561  0.2502 -1.2134
   93MOL   H15929783   4.271   0.808   5.927 -1.0746  2.8886 -1.9232
   93MOL   H16029784   4.379   0.584   5.994 -1.0295  1.2174  0.6963
   93MOL   H16129785   4.398   0.536   6.172  1.6812 -1.1784 -1.3416
   93MOL   C16229786   4.317   0.388   6.041  0.1978 -0.5215 -0.0847
   93MOL   C16329787   4.192   0.356   5.961 -0.2189  0.2834 -0.0391
   93MOL   C16429788   4.191   0.380   5.819  0.6843 -0.5703 -0.2058
   93MOL   C16529789   4.071   0.351   5.747 -0.8949 -0.5190 -0.3061
   93MOL   C16629790   3.957   0.299   5.816 -0.7353 -0.3902  0.0263
   93MOL   F16729791   3.845   0.283   5.746  0.0899  0.3437  0.1233
   93MOL   C16829792   3.957   0.277   5.950 -0.1197  0.9442 -1.3591
   93MOL   C16929793   4.076   0.302   6.017 -0.2017  0.6778 -0.1456
   93MOL   C17029794   4.448   0.328   5.979 -0.8017 -0.0823  0.2188
   93MOL   H17129795   4.293   0.344   6.137 -1.2205  0.8881  0.2380
   93MOL   H17229796   4.279   0.412   5.767  1.0229  0.6840  1.1143
   93MOL   H17329797   4.063   0.361   5.640 -0.4837  0.2359 -0.2760
   93MOL   H17429798   3.865   0.262   6.003 -0.9649  0.3885 -2.9381
   93MOL   H17529799   4.070   0.292   6.124  1.1792 -0.3168 -0.1531
   93MOL   H17629800   4.435   0.220   5.981 -0.5772 -0.0777  2.0110
   93MOL   H17729801   4.485   0.362   5.882  1.0781 -0.4976  0.7722
   93MOL   C17829802   4.573   0.353   6.063  0.0434 -0.1543 -0.5910
   93MOL   C17929803   4.553   0.314   6.211 -0.7140 -0.8945  0.7201
   93MOL   C18029804   4.500   0.190   6.256  0.1384 -0.2037 -0.6773
   93MOL   C18129805   4.512   0.153   6.392 -0.7018  0.4983  0.2801
   93MOL   C18229806   4.553   0.245   6.488  0.3094 -0.2729  0.2059
   93MOL   F18329807   4.563   0.222   6.617  0.7072  0.6789 -0.0659
   93MOL   C18429808   4.600   0.371   6.444 -0.2918 -0.7494  0.5291
   93MOL   C18529809   4.592   0.405   6.306  0.4955  0.2824 -0.6214
   93MOL   C18629810   4.706   0.301   6.010 -0.0020  0.0391 -0.5400
   93MOL   H18729811   4.581   0.462   6.061  0.5178 -0.1834 -0.3042
   93MOL   H18829812   4.457   0.120   6.186  0.5688 -2.2432  1.0414
   93MOL   H18929813   4.483   0.054   6.425 -1.0319 -0.6302 -3.1733
   93MOL   H19029814   4.645   0.441   6.513 -0.3801  2.3075 -2.4080
   93MOL   H19129815   4.638   0.500   6.286  3.1287 -0.2646  2.3367
   93MOL   H19229816   4.776   0.311   6.093 -0.5856  0.5011 -0.0887
   93MOL   H19329817   4.697   0.194   5.991  0.1958  0.0415 -0.6420
   93MOL   C19429818   4.770   0.379   5.892  0.1991  0.1152  0.3019
   93MOL   C19529819   4.790   0.529   5.915 -0.0018 -0.4428  0.1607
   93MOL   C19629820   4.732   0.625   5.824 -0.2045 -0.3934  0.6599
   93MOL   C19729821   4.750   0.765   5.839  0.4283  0.2351 -0.0409
   93MOL   C19829822   4.818   0.811   5.954  0.4202  0.2617  0.1307
   93MOL   F19929823   4.828   0.946   5.966  0.3084  0.0041  0.3653
   93MOL   C20029824   4.878   0.718   6.042 -0.0765  0.0507  0.7939
   93MOL   C20129825   4.861   0.580   6.020 -0.1815  0.0249 -0.3456
   93MOL   C20229826   4.884   0.304   5.824  0.8312  0.2066 -0.1734
   93MOL   H20329827   4.687   0.364   5.824  1.0664  3.6496 -1.6306
   93MOL   H20429828   4.697   0.588   5.729 -1.4768  0.9846  0.5725
   93MOL   H20529829   4.716   0.841   5.770 -0.2247 -0.8073 -0.8739
   93MOL   H20629830   4.940   0.752   6.123  0.4285 -0.9649  0.8528
   93MOL   H20729831   4.911   0.509   6.084  0.4841 -1.0317 -1.9998
   93MOL   H20829832   4.937   0.256   5.906 -2.2428 -1.3702  0.9544
   93MOL   H20929833   4.852   0.211   5.778 -0.6025 -0.4984  2.1503
   93MOL   C21029834   4.982   0.380   5.731 -0.2969 -0.2907 -0.3159
   93MOL   C21129835   5.109   0.421   5.809 -0.4414  0.5280  0.5882
   93MOL   C21229836   5.191   0.322   5.872 -0.3368 -0.0212 -0.5526
   93MOL   C21329837   5.302   0.362   5.949 -0.1059 -0.2985 -0.8188
   93MOL   C21429838   5.322   0.502   5.979  0.1785  0.6455 -0.5129
   93MOL   F21529839   5.420   0.535   6.063 -0.2850  0.0559 -0.2683
   93MOL   C21629840   5.244   0.599   5.913 -0.3482  0.1654  0.3682
   93MOL   C21729841   5.138   0.559   5.834 -0.2090 -0.2022  0.1295
   93MOL   C21829842   5.017   0.298   5.609 -0.0996 -0.3935 -0.4718
   93MOL   H21929843   4.944   0.469   5.681  0.3885  0.1085 -0.1235
   93MOL   H22029844   5.154   0.220   5.864  0.4759 -0.3552 -0.1418
   93MOL   H22129845   5.366   0.290   5.998  1.6621  0.3835 -2.0755
   93MOL   H22229846   5.250   0.703   5.939 -0.6331 -0.2247  2.0477
   93MOL   H22329847   5.070   0.629   5.789  1.1518  1.0762  0.0425
   93MOL   H22429848   5.115   0.338   5.580 -0.4352  1.0499  0.3042
   93MOL   H22529849   5.051   0.196   5.622  1.9272  0.4190  0.7884
   93MOL   C22629850   4.925   0.311   5.488 -0.1569  0.1926 -0.2663
   93MOL   C22729851   4.962   0.435   5.401 -0.5856 -0.2298  0.4941
   93MOL   C22829852   5.082   0.439   5.322 -0.0097 -0.1997  0.9076
   93MOL   C22929853   5.106   0.555   5.246 -0.2541 -0.0365 -0.3236
   93MOL   C23029854   5.010   0.657   5.244 -0.2590  0.2505  0.1941
   93MOL   F23129855   5.021   0.754   5.146  0.1712  0.5709  0.5183
   93MOL   C23229856   4.894   0.653   5.328 -0.2687 -0.2184  0.7377
   93MOL   C23329857   4.872   0.538   5.397  0.7925 -0.2122 -0.2610
   93MOL   C23429858   4.914   0.184   5.408 -0.6001  0.1740  0.3274
   93MOL   H23529859   4.823   0.330   5.522 -0.6562  0.7741 -2.0181
   93MOL   H23629860   5.162   0.368   5.334  0.1050 -0.3363 -0.5780
   93MOL   H23729861   5.196   0.568   5.188  0.4690  0.1189  0.8094
   93MOL   H23829862   4.825   0.736   5.325  1.4333  1.1897 -1.3609
   93MOL   H23929863   4.781   0.534   5.455  1.1035  0.1189  0.2610
   93MOL   H24029864   4.893   0.210   5.304  0.2873 -1.2927 -0.2383
   93MOL   H24129865   5.017   0.147   5.408 -1.3497 -2.0187 -2.0538
   93MOL   C24229866   4.812   0.087   5.456 -0.1893  0.3507  0.3569
   93MOL   C24329867   4.673   0.142   5.451  0.3074  0.2761 -0.0332
   93MOL   C24429868   4.582   0.130   5.562 -0.0292  0.0729  0.3901
   93MOL   C24529869   4.460   0.198   5.558 -0.4834  0.9450  0.2138
   93MOL   C24629870   4.414   0.256   5.445 -0.7297 -0.0316  0.6061
   93MOL   F24729871   4.296   0.322   5.450  0.3233  0.5065  0.0085
   93MOL   C24829872   4.494   0.260   5.331 -0.5557  0.1707 -0.4636
   93MOL   C24929873   4.624   0.199   5.333 -0.1550 -0.0112  0.3570
   93MOL   C25029874   4.820   8.184   5.396 -0.5145 -0.1338  0.0095
   93MOL   H25129875   4.827   0.072   5.563  0.2365 -1.4503  0.0470
   93MOL   H25229876   4.616   0.082   5.653  1.2914 -2.2867 -1.2759
   93MOL   H25329877   4.398   0.197   5.646 -0.5013 -2.7581  0.2421
   93MOL   H25429878   4.450   0.297   5.239 -0.9091 -1.2919 -0.9042
   93MOL   H25529879   4.681   0.201   5.242 -1.6266 -2.7015 -0.6615
   93MOL   H25629880   4.721   8.140   5.407 -0.3065 -0.0268  2.4645
   93MOL   H25729881   4.836   8.198   5.289  0.4466 -3.9752 -0.4155
   93MOL   C25829882   4.927   8.087   5.454  0.2969 -0.4512 -0.2491
   93MOL   C25929883   4.927   8.096   5.608 -0.2315 -0.5701  0.5703
   93MOL   C26029884   5.044   8.143   5.668  0.4551  0.2292  0.5643
   93MOL   C26129885   5.040   8.160   5.805 -0.2580 -0.0463  0.3902
   93MOL   C26229886   4.926   8.140   5.880 -0.1008  0.2858 -0.1395
   93MOL   F26329887   4.933   8.155   6.014  0.3534  0.2640  0.0540
   93MOL   C26429888   4.804   8.101   5.819  0.0195  0.0056  0.4113
   93MOL   C26529889   4.809   8.077   5.682 -0.1484 -0.0947 -0.7507
   93MOL   C26629890   4.912   7.941   5.412  0.3196 -0.0563 -0.2139
   93MOL   H26729891   5.022   8.125   5.416 -0.2311  0.9814 -0.1650
   93MOL   H26829892   5.122   8.186   5.607  1.3283  0.3098  1.7125
   93MOL   H26929893   5.127   8.201   5.854 -0.9009  2.0726 -0.1912
   93MOL   H27029894   4.705   8.099   5.862 -1.0402  2.0826 -1.8134
   93MOL   H27129895   4.713   8.060   5.636 -0.4163 -0.0456 -0.2115
   93MOL   H27229896   4.974   7.873   5.470  0.7051  1.4105  1.1163
   93MOL   H27329897   4.809   7.919   5.438  0.4530  1.2547  1.4867
   93MOL   C27429898   4.942   7.907   5.267 -0.4265  0.7116 -0.1887
   93MOL   C27529899   5.086   7.958   5.228  0.1865 -0.2856  0.4850
   93MOL   C27629900   5.099   8.013   5.100 -0.2031  0.7971 -0.4034
   93MOL   C27729901   5.226   8.051   5.050  0.0643 -0.9828 -0.2103
   93MOL   C27829902   5.338   8.027   5.133  0.7240  0.1596  0.3249
   93MOL   F27929903   5.459   8.068   5.084 -0.3905 -0.5007 -0.4739
   93MOL   C28029904   5.331   7.964   5.259 -0.1006  0.0748 -0.5865
   93MOL   C28129905   5.200   7.930   5.305  0.4285  0.4471  0.4866
   93MOL   C28229906   4.928   7.754   5.244  0.2233  0.0946  0.4544
   93MOL   H28329907   4.876   7.956   5.196 -0.6482 -0.3595 -0.7255
   93MOL   H28429908   5.009   8.031   5.043  0.3814  1.2113 -1.2007
   93MOL   H28529909   5.241   8.110   4.960 -0.2597 -1.5425 -0.6302
   93MOL   H28629910   5.414   7.942   5.324 -0.7172  0.8798  0.5119
   93MOL   H28729911   5.189   7.884   5.402  1.4297  1.9161  1.3197
   93MOL   H28829912   5.000   7.705   5.309 -0.8518 -2.9532 -0.5898
   93MOL   H28929913   4.833   7.719   5.284 -0.0760 -0.3291 -0.6121
   93MOL   C29029914   4.962   7.696   5.100  0.0295 -0.4362 -0.7033
   93MOL   C29129915   5.078   7.585   5.102 -0.0260  0.2959 -0.5634
   93MOL   C29229916   5.179   7.604   5.002  0.5555 -0.3796 -0.1302
   93MOL   C29329917   5.284   7.511   4.984  0.0803  0.4628 -0.1825
   93MOL   C29429918   5.301   7.409   5.078 -0.2925  0.2848  0.3347
   93MOL   F29529919   5.412   7.330   5.073 -0.1171 -0.2145  0.3732
   93MOL   C29629920   5.208   7.399   5.185 -0.6282  0.4054  0.1355
   93MOL   C29729921   5.096   7.481   5.197 -0.1785 -0.2063 -0.3854
   93MOL   C29829922   4.833   7.641   5.025 -0.5019  0.5115 -0.0926
   93MOL   H29929923   4.990   7.784   5.042  2.1684 -1.8967 -1.9686
   93MOL   H30029924   5.170   7.677   4.924  2.2041  0.4884  0.4737
   93MOL   H30129925   5.339   7.527   4.892 -0.6734  0.8245 -0.5762
   93MOL   H30229926   5.224   7.324   5.261  4.1513  1.2014  0.0479
   93MOL   H30329927   5.025   7.459   5.275  1.3100  0.5073  1.2144
   93MOL   H30429928   4.863   7.566   4.952  2.5113  1.1205  0.4322
   93MOL   H30529929   4.779   7.576   5.094 -1.4742 -1.0035 -2.2418
   93MOL   C30629930   4.742   7.737   4.948 -0.4797 -0.2305 -0.0520
   93MOL   C30729931   4.796   7.820   4.839 -0.4196  0.2727  0.9577
   93MOL   C30829932   4.907   7.774   4.773 -0.8226 -0.3121 -0.3885
   93MOL   C30929933   4.963   7.849   4.672 -0.2283 -0.0641 -0.0331
   93MOL   C31029934   4.906   7.977   4.640 -0.2150  0.5622  0.5677
   93MOL   F31129935   4.945   8.050   4.529 -0.0502 -0.2163  0.3086
   93MOL   C31229936   4.793   8.027   4.707 -0.1052 -0.1524 -0.1376
   93MOL   C31329937   4.733   7.940   4.798  0.2166  0.1537  0.0327
   93MOL   C31429938   4.615   7.664   4.901  0.5466 -0.3008  0.3136
   93MOL   H31529939   4.713   7.810   5.023 -1.2838  1.4441 -1.9474
   93MOL   H31629940   4.951   7.677   4.789  0.6003  0.2915 -0.5768
   93MOL   H31729941   5.050   7.811   4.621  0.5286  0.2443  0.9850
   93MOL   H31829942   4.747   8.117   4.668 -0.6551 -0.2766  0.2174
   93MOL   H31929943   4.636   7.974   4.830 -0.3677  0.6088 -2.1358
   93MOL   H32029944   4.530   7.732   4.893  2.2581  2.1008  1.7338
   93MOL   H32129945   4.627   7.603   4.811  1.9782  0.3503  0.0525
   93MOL   H32229946   4.583   7.586   4.970  0.2747  0.3742  0.9634
   94MOL     C129947   6.318   0.927   0.313 -0.1758  0.9223 -0.3696
   94MOL     C229948   6.205   0.963   0.413  0.4877  0.3226  0.2803
   94MOL     C329949   6.073   0.915   0.391  0.5356  0.5265  0.0424
   94MOL     C429950   5.967   0.947   0.471 -0.1862 -0.4908 -1.2879
   94MOL     C529951   5.983   1.011   0.590  0.2343 -0.0099  0.4174
   94MOL     F629952   5.874   1.033   0.675 -0.7308 -0.4128 -0.3013
   94MOL     C729953   6.111   1.062   0.615 -0.2822  0.4127 -0.1913
   94MOL     C829954   6.223   1.036   0.528 -0.8068  0.9250  0.0840
   94MOL     C929955   6.358   0.780   0.320  0.0827  0.6050 -0.2860
   94MOL    H1029956   6.399   1.000   0.318 -0.3962  1.2698 -1.7320
   94MOL    H1129957   6.048   0.862   0.300 -0.8463 -0.5118  1.0005
   94MOL    H1229958   5.870   0.909   0.444 -1.2311 -0.0843  1.6578
   94MOL    H1329959   6.121   1.111   0.711  0.2860  1.5630 -0.8330
   94MOL    H1429960   6.316   1.085   0.553 -0.3739 -1.0448  2.6014
   94MOL    H1529961   6.414   0.769   0.413 -0.4655 -1.1088 -0.1242
   94MOL    H1629962   6.271   0.714   0.321  0.1894  0.4382 -1.6442
   94MOL    H1729963   6.269   0.937   0.216 -1.9885 -2.0500  0.1705
   94MOL    C1829964   6.438   0.723   0.198 -0.1598  0.3557  0.0366
   94MOL    C1929965   6.572   0.800   0.181 -0.0425 -0.1162 -0.5161
   94MOL    C2029966   6.678   0.776   0.271 -0.4683  0.4384 -1.0239
   94MOL    C2129967   6.801   0.840   0.261 -0.2864 -0.7984  0.0128
   94MOL    C2229968   6.826   0.934   0.154 -0.4168  0.3604 -0.5504
   94MOL    F2329969   6.946   0.999   0.149  0.1627 -0.4102 -0.2714
   94MOL    C2429970   6.723   0.964   0.065  0.1097 -0.1857 -0.5690
   94MOL    C2529971   6.596   0.892   0.075  0.0980  0.8613  0.0695
   94MOL    C2629972   6.466   0.570   0.195 -0.3595  0.1369 -0.1327
   94MOL    H2729973   6.387   0.751   0.106  1.1768  1.6836 -0.3227
   94MOL    H2829974   6.665   0.706   0.352 -1.6665  3.2467  1.2773
   94MOL    H2929975   6.878   0.821   0.334  0.3655 -1.4702 -0.8344
   94MOL    H3029976   6.733   1.044   8.227  2.8571  0.0854  0.0850
   94MOL    H3129977   6.520   0.926   0.005  1.3024  1.7306 -0.8279
   94MOL    H3229978   6.516   0.542   0.288  0.6943  0.8030 -0.4885
   94MOL    H3329979   6.369   0.522   0.189  0.5230 -1.5177 -1.5911
   94MOL    C3429980   6.544   0.523   0.069 -0.1502  0.2014  0.4919
   94MOL    C3529981   6.677   0.465   0.113 -0.7556  0.4576  1.2375
   94MOL    C3629982   6.694   0.368   0.219 -0.4196 -0.2560  0.7296
   94MOL    C3729983   6.827   0.320   0.244 -0.1921  0.0373 -0.4400
   94MOL    C3829984   6.938   0.374   0.175  0.9567  0.7581 -0.4090
   94MOL    F3929985   7.064   0.332   0.183 -0.1822 -0.0603 -0.0174
   94MOL    C4029986   6.921   0.477   0.087 -0.3446  0.1032 -1.0942
   94MOL    C4129987   6.798   0.513   0.051 -0.1219 -0.4747  1.1387
   94MOL    C4229988   6.464   0.427   8.211  0.3252  0.8824  0.2974
   94MOL    H4329989   6.563   0.610   0.006  1.7457 -0.3404  0.2814
   94MOL    H4429990   6.612   0.327   0.275 -0.8048 -0.8582 -0.2515
   94MOL    H4529991   6.845   0.233   0.305  0.1156  0.0512 -0.5098
   94MOL    H4629992   7.005   0.521   0.035  1.1016 -1.7851 -0.4079
   94MOL    H4729993   6.791   0.585   8.205 -0.1953  0.3138  1.8473
   94MOL    H4829994   6.529   0.371   8.144 -0.7075 -1.3032  1.0440
   94MOL    H4929995   6.428   0.336   0.025 -0.8795  0.4709 -1.3354
   94MOL    C5029996   6.345   0.490   8.129  0.2542  0.1852  0.3859
   94MOL    C5129997   6.399   0.575   8.015  0.8092 -0.0276 -0.1768
   94MOL    C5229998   6.499   0.526   7.928 -0.0742 -0.4013 -0.0202
   94MOL    C5329999   6.572   0.615   7.846  0.5578  0.0211 -0.6461
   94MOL    C5430000   6.540   0.750   7.841 -0.2032  1.0289  0.5010
   94MOL    F5530001   6.613   0.835   7.768  0.3353  0.3451 -0.1395
   94MOL    C5630002   6.426   0.793   7.911 -0.1213 -0.1135  0.2995
   94MOL    C5730003   6.353   0.706   7.999  0.0569 -0.0536 -0.2789
   94MOL    C5830004   6.244   0.372   8.087  0.4298  0.2697 -0.2698
   94MOL    H5930005   6.302   0.564   8.197 -0.2051  0.1490  0.1393
   94MOL    H6030006   6.526   0.421   7.926 -0.6928 -0.5414 -1.0169
   94MOL    H6130007   6.658   0.580   7.790 -0.3278  1.1824 -2.8247
   94MOL    H6230008   6.407   0.899   7.919  0.8675  0.1247 -0.4421
   94MOL    H6330009   6.275   0.739   8.066  1.8895 -1.9812  2.9054
   94MOL    H6430010   6.184   0.400   8.000 -1.4694  1.7457  1.4584
   94MOL    H6530011   6.299   0.286   8.049  1.4091  1.0194 -0.5749
   94MOL    C6630012   6.144   0.323   8.198  0.4125 -0.1445 -1.1264
   94MOL    C6730013   6.065   0.447   0.010  0.0861  0.3506  0.0755
   94MOL    C6830014   6.088   0.486   0.143  0.5621 -0.2876 -0.4300
   94MOL    C6930015   6.028   0.602   0.189  0.7623 -0.3264 -0.1225
   94MOL    C7030016   5.949   0.681   0.093 -0.4759  0.1099 -0.6163
   94MOL    F7130017   5.901   0.807   0.122 -0.2149 -0.2568  0.4028
   94MOL    C7230018   5.925   0.641   8.201 -0.4346  0.2216 -0.2262
   94MOL    C7330019   5.981   0.515   8.159 -0.5513  0.3164 -0.1633
   94MOL    C7430020   6.051   0.212   8.149 -0.4241 -0.5799 -0.1363
   94MOL    H7530021   6.199   0.278   0.046 -0.2884 -1.8423 -1.5643
   94MOL    H7630022   6.141   0.423   0.213 -1.7141 -2.4448 -0.5708
   94MOL    H7730023   6.046   0.643   0.288  0.7479 -0.0872 -0.2191
   94MOL    H7830024   5.865   0.702   8.136  0.7499  0.7875 -0.7895
   94MOL    H7930025   5.968   0.480   8.058 -1.0364 -1.6363  0.5466
   94MOL    H8030026   5.975   0.195   8.225 -0.1285  0.2889  0.3552
   94MOL    H8130027   6.006   0.242   8.055 -0.1379  0.2506 -0.0100
   94MOL    C8230028   6.118   0.075   8.120 -0.4632  0.8523  0.8250
   94MOL    C8330029   6.086   8.216   8.232 -0.0443 -0.2212 -0.5485
   94MOL    C8430030   6.192   8.151   0.062 -0.1547 -0.5725 -0.3438
   94MOL    C8530031   6.159   8.061   0.168  0.4093  0.5942 -0.1549
   94MOL    C8630032   6.029   8.034   0.206 -0.5029 -0.3045  0.1991
   94MOL    F8730033   6.004   7.960   0.319  0.1300  0.3623 -1.1367
   94MOL    C8830034   5.923   8.086   0.131  0.5076  0.5323  0.3887
   94MOL    C8930035   5.952   8.186   0.034  0.0933 -0.0906  0.0743
   94MOL    C9030036   6.065   0.007   7.991 -0.3289  0.4092 -0.2727
   94MOL    H9130037   6.226   0.083   8.108 -0.4134 -0.1770  0.5019
   94MOL    H9230038   6.295   8.174   0.038 -0.5686 -1.6111 -3.2859
   94MOL    H9330039   6.233   8.016   0.232  1.2311  2.2858  0.0985
   94MOL    H9430040   5.819   8.058   0.145  1.0935 -2.0648 -0.2254
   94MOL    H9530041   5.861   8.227   8.227 -0.4401 -1.0058  0.3233
   94MOL    H9630042   6.062   8.133   8.002 -0.7701  0.3178 -1.2480
   94MOL    H9730043   5.958   0.027   7.988 -0.3094  0.5847  0.1776
   94MOL    C9830044   6.124   0.046   7.852 -0.7434 -0.0168 -0.2861
   94MOL    C9930045   6.267   8.234   7.840 -0.5826  0.1834 -0.4231
   94MOL   C10030046   6.331   8.130   7.912  0.1693 -0.1468  0.0340
   94MOL   C10130047   6.463   8.095   7.899 -0.4932 -0.1753  0.2931
   94MOL   C10230048   6.545   8.159   7.802 -0.1081  0.2810 -0.0749
   94MOL   F10330049   6.669   8.117   7.778 -0.5383  0.0261  0.0858
   94MOL   C10430050   6.481   0.020   7.713 -1.1360 -0.1134 -0.6144
   94MOL   C10530051   6.345   0.057   7.734  0.1423 -0.4813 -1.2353
   94MOL   C10630052   6.040   0.005   7.732 -0.9898 -0.2763  0.1497
   94MOL   H10730053   6.120   0.154   7.861 -0.0328 -0.0866  1.0604
   94MOL   H10830054   6.280   8.073   7.988  0.7628  1.2934  1.5514
   94MOL   H10930055   6.507   8.017   7.959  2.9309  0.1498 -1.6260
   94MOL   H11030056   6.534   0.073   7.635  1.3753  0.7928  1.6182
   94MOL   H11130057   6.297   0.133   7.674  1.1541  1.0268 -0.1791
   94MOL   H11230058   6.103   0.008   7.644 -0.5721 -1.3951  0.4097
   94MOL   H11330059   5.997   8.142   7.754  1.6383 -1.7419 -1.0897
   94MOL   C11430060   5.923   0.101   7.707  0.3463 -0.3083  0.1577
   94MOL   C11530061   5.968   0.251   7.690  1.2985 -0.2516  0.0917
   94MOL   C11630062   6.037   0.290   7.577 -0.1162 -0.2159  0.0875
   94MOL   C11730063   6.080   0.422   7.567 -0.4299 -0.2969 -0.3162
   94MOL   C11830064   6.045   0.528   7.661 -0.2647 -0.0063  0.2211
   94MOL   F11930065   6.091   0.649   7.646 -0.1892  0.2900  0.1250
   94MOL   C12030066   5.968   0.481   7.773 -0.3894 -0.1482  0.0655
   94MOL   C12130067   5.944   0.342   7.795 -0.5329 -0.8383  0.0208
   94MOL   C12230068   5.817   0.060   7.602  0.2633  0.6451 -0.4225
   94MOL   H12330069   5.868   0.095   7.801 -0.2657  1.8439 -0.0299
   94MOL   H12430070   6.073   0.220   7.504  2.0007  1.1650 -0.2511
   94MOL   H12530071   6.141   0.447   7.482 -1.3060  1.0492 -0.5669
   94MOL   H12630072   5.945   0.551   7.852 -2.0931 -2.6239  1.8274
   94MOL   H12730073   5.899   0.305   7.885 -0.3732  1.2140  0.9768
   94MOL   H12830074   5.747   0.144   7.599  1.8083  2.1555  3.4175
   94MOL   H12930075   5.857   0.070   7.501 -0.4449  1.7130 -0.6115
   94MOL   C13030076   5.738   8.164   7.624  0.5188 -0.4418 -0.2060
   94MOL   C13130077   5.700   8.150   7.768 -0.5126  0.4278 -0.0018
   94MOL   C13230078   5.607   8.232   7.823 -0.2726  0.7908 -0.0498
   94MOL   C13330079   5.580   8.219   7.960 -0.7782  0.0082  0.0220
   94MOL   C13430080   5.653   8.130   8.033 -0.0175  0.8787 -0.3089
   94MOL   F13530081   5.627   8.130   8.169 -0.0526  0.1592 -0.3233
   94MOL   C13630082   5.752   8.044   7.981  0.1224  0.4647 -0.2738
   94MOL   C13730083   5.771   8.054   7.846  0.3147  1.6462  0.8580
   94MOL   C13830084   5.611   8.175   7.541 -0.0679  0.2404 -0.7414
   94MOL   H13930085   5.791   8.076   7.589 -2.0920 -1.9166 -0.6092
   94MOL   H14030086   5.550   0.070   7.767 -1.4282 -0.7012 -0.8463
   94MOL   H14130087   5.512   0.055   8.006  0.6628 -0.1334  2.4592
   94MOL   H14230088   5.793   7.960   8.034  0.8142 -0.4048 -2.1436
   94MOL   H14330089   5.840   7.985   7.799 -1.7937 -0.6637  1.0307
   94MOL   H14430090   5.554   0.032   7.557  0.4749  0.4534 -0.0331
   94MOL   H14530091   5.637   8.179   7.435  2.1048  0.6098 -0.2184
   94MOL   C14630092   5.503   8.066   7.558 -0.6253 -0.6580 -0.4251
   94MOL   C14730093   5.374   8.098   7.483 -0.1004  0.3392  0.5632
   94MOL   C14830094   5.373   8.104   7.342 -0.5173  0.3636  0.2127
   94MOL   C14930095   5.254   8.126   7.268 -0.1190  0.1246  0.5567
   94MOL   C15030096   5.130   8.130   7.336 -0.3870 -0.5146 -0.1783
   94MOL   F15130097   5.017   8.167   7.261 -0.2698 -0.5195  0.3409
   94MOL   C15230098   5.125   8.137   7.481 -0.0589 -0.9091 -0.2075
   94MOL   C15330099   5.250   8.126   7.548 -0.3467  0.3496 -0.4766
   94MOL   C15430100   5.549   7.923   7.523  0.4568 -0.4090 -1.2161
   94MOL   H15530101   5.480   8.065   7.665  2.3790 -0.5672  0.2618
   94MOL   H15630102   5.465   8.079   7.290 -0.0674  1.6010  0.3963
   94MOL   H15730103   5.259   8.130   7.160  0.7234  1.1485  0.6219
   94MOL   H15830104   5.029   8.162   7.523  0.4337  3.7447 -1.5764
   94MOL   H15930105   5.244   8.118   7.656 -1.3239 -2.5340 -0.6999
   94MOL   H16030106   5.479   7.874   7.456 -1.3673 -1.4755  1.4031
   94MOL   H16130107   5.640   7.939   7.465  0.6887 -0.7789 -0.9577
   94MOL   C16230108   5.580   7.827   7.639 -0.3700  0.0413  0.0972
   94MOL   C16330109   5.463   7.815   7.733 -0.0144  0.1663 -0.2512
   94MOL   C16430110   5.492   7.819   7.872 -0.1198 -0.6529 -0.5628
   94MOL   C16530111   5.382   7.808   7.960 -0.3186 -0.1722  0.2750
   94MOL   C16630112   5.253   7.775   7.916  0.7807  0.4309  0.5990
   94MOL   F16730113   5.157   7.752   8.009 -0.8561 -0.2570  0.0362
   94MOL   C16830114   5.231   7.762   7.781 -0.0267 -0.4644  0.0915
   94MOL   C16930115   5.332   7.787   7.684  0.4307 -0.3665  0.0625
   94MOL   C17030116   5.602   7.687   7.581 -0.1245 -0.8698 -0.1861
   94MOL   H17130117   5.668   7.862   7.694 -1.0375  0.9397  0.6207
   94MOL   H17230118   5.587   7.833   7.920 -1.1353  1.1181  1.0209
   94MOL   H17330119   5.402   7.796   8.066  0.6461  1.2226  0.2630
   94MOL   H17430120   5.132   7.736   7.746  0.3927  0.4248 -1.7995
   94MOL   H17530121   5.318   7.782   7.577 -0.9849 -2.2035  0.3224
   94MOL   H17630122   5.608   7.624   7.669  0.5145  1.6707  1.6654
   94MOL   H17730123   5.520   7.655   7.516  0.1309 -0.3068 -0.7926
   94MOL   C17830124   5.736   7.669   7.512 -0.1317 -0.2424 -0.1595
   94MOL   C17930125   5.850   7.709   7.600  0.3909 -0.2798  0.6075
   94MOL   C18030126   5.924   7.815   7.554  0.4063  0.0280 -0.0308
   94MOL   C18130127   6.025   7.871   7.634  0.1474  0.0473 -0.3574
   94MOL   C18230128   6.049   7.822   7.759 -0.0657  0.1072 -0.5913
   94MOL   F18330129   6.154   7.871   7.834  0.1094 -0.1549  0.2825
   94MOL   C18430130   5.982   7.709   7.807 -0.1324  0.1199  0.4933
   94MOL   C18530131   5.874   7.659   7.731 -0.3166 -0.2619  0.3795
   94MOL   C18630132   5.758   7.522   7.461 -0.1739 -0.3865  0.0677
   94MOL   H18730133   5.735   7.733   7.424  0.6560  0.1407  0.0966
   94MOL   H18830134   5.907   7.861   7.458  1.2357  0.2155 -0.0906
   94MOL   H18930135   6.082   7.954   7.595  0.0530  0.2928  0.0310
   94MOL   H19030136   5.995   7.672   7.908 -0.4986  0.9615  0.8541
   94MOL   H19130137   5.813   7.584   7.779 -0.8332 -0.2670 -0.2791
   94MOL   H19230138   5.858   7.526   7.418  0.0380 -2.5513  0.2967
   94MOL   H19330139   5.763   7.452   7.545  2.2858  0.3417  0.5549
   94MOL   C19430140   5.669   7.466   7.349  0.9147 -0.1311 -0.5369
   94MOL   C19530141   5.636   7.581   7.251  0.0774 -0.1283  0.5815
   94MOL   C19630142   5.508   7.643   7.239 -0.0968 -0.6324  0.4375
   94MOL   C19730143   5.475   7.750   7.147 -0.2128  0.3833 -0.2938
   94MOL   C19830144   5.574   7.796   7.065 -0.4698 -0.0763 -0.2895
   94MOL   F19930145   5.555   7.906   6.987 -0.2968 -0.3489  0.3676
   94MOL   C20030146   5.702   7.732   7.060  0.5897 -0.5952  0.0666
   94MOL   C20130147   5.730   7.633   7.155 -0.2878  0.2118  0.2325
   94MOL   C20230148   5.714   7.332   7.286  0.1490 -0.3219  0.2668
   94MOL   H20330149   5.574   7.454   7.402  0.3671  1.1787 -1.1893
   94MOL   H20430150   5.420   7.621   7.297 -1.5052 -0.1332 -1.4553
   94MOL   H20530151   5.374   7.787   7.144 -1.0352 -1.6600  1.2457
   94MOL   H20630152   5.775   7.772   6.991 -0.7516 -1.4607 -1.9203
   94MOL   H20730153   5.827   7.586   7.159 -0.1790  0.3977 -0.1964
   94MOL   H20830154   5.816   7.350   7.253 -0.3164  0.7852 -0.6023
   94MOL   H20930155   5.728   7.254   7.361 -0.9217 -0.5238  0.2666
   94MOL   C21030156   5.625   7.275   7.172  0.3598  0.7910  0.1480
   94MOL   C21130157   5.702   7.173   7.084  0.1455 -0.4788  0.0387
   94MOL   C21230158   5.751   7.209   6.959 -0.6550 -0.0744 -0.2041
   94MOL   C21330159   5.814   7.112   6.881 -0.3320  0.2255 -0.0449
   94MOL   C21430160   5.831   6.983   6.929  0.0447 -0.4004 -0.7128
   94MOL   F21530161   5.905   6.890   6.863 -0.0038  0.5109 -0.3701
   94MOL   C21630162   5.787   6.950   7.057 -0.2593 -0.3290 -0.2282
   94MOL   C21730163   5.724   7.048   7.137  0.2849  0.2655 -0.8993
   94MOL   C21830164   5.478   7.249   7.212  0.5907  0.5634 -0.6852
   94MOL   H21930165   5.617   7.349   7.092  2.6366  1.1018  0.1939
   94MOL   H22030166   5.731   7.308   6.921  3.8048  0.1584 -2.1832
   94MOL   H22130167   5.846   7.138   6.782 -1.4842  0.4445 -0.3598
   94MOL   H22230168   5.815   6.854   7.098 -0.0518 -0.9911 -1.9012
   94MOL   H22330169   5.709   7.022   7.241  1.9615  0.7855 -0.5062
   94MOL   H22430170   5.478   7.158   7.273 -1.1983 -0.0754 -1.5832
   94MOL   H22530171   5.436   7.327   7.275  0.3946 -1.1464  1.3730
   94MOL   C22630172   5.370   7.228   7.100 -0.2410  0.4779  0.3236
   94MOL   C22730173   5.260   7.126   7.135 -0.0546 -0.0357 -0.0341
   94MOL   C22830174   5.289   6.992   7.125 -0.1394 -0.4011  0.1810
   94MOL   C22930175   5.185   6.901   7.163 -0.1280  0.1961 -0.0758
   94MOL   C23030176   5.058   6.945   7.211 -0.0887 -0.2076 -0.2739
   94MOL   F23130177   4.973   6.853   7.267  0.1668  0.8294  0.0121
   94MOL   C23230178   5.035   7.078   7.231  0.0137  0.1061  0.1823
   94MOL   C23330179   5.134   7.170   7.188 -0.4575  0.0453  0.2624
   94MOL   C23430180   5.322   7.374   7.058  0.6151  0.3385 -0.1426
   94MOL   H23530181   5.428   7.185   7.018  0.3670  1.2608  0.3335
   94MOL   H23630182   5.385   6.954   7.091  0.5582  0.3288  1.3132
   94MOL   H23730183   5.214   6.797   7.159  1.3400  0.5149  1.3644
   94MOL   H23830184   4.941   7.113   7.271 -0.1165  1.1026 -0.9448
   94MOL   H23930185   5.115   7.276   7.192 -1.5045 -0.0137 -2.2368
   94MOL   H24030186   5.289   7.418   7.152  1.2308  0.1153  0.1789
   94MOL   H24130187   5.411   7.432   7.036  1.4218 -1.0127 -0.5283
   94MOL   C24230188   5.204   7.379   6.948 -0.7744  0.1247  0.2397
   94MOL   C24330189   5.162   7.527   6.946 -0.4844  0.1719  0.1347
   94MOL   C24430190   5.055   7.564   7.026 -0.2514  0.1901 -0.7862
   94MOL   C24530191   5.012   7.693   7.037 -0.1146 -0.5408 -0.5086
   94MOL   C24630192   5.073   7.789   6.959 -0.8990 -0.2381 -0.0706
   94MOL   F24730193   5.044   7.922   6.960 -0.0106  0.3877  0.6045
   94MOL   C24830194   5.178   7.760   6.875  0.5335  0.3415  0.5050
   94MOL   C24930195   5.238   7.632   6.884 -0.0046  0.0729  0.3659
   94MOL   C25030196   5.245   7.325   6.808  0.2250  0.0639  0.2427
   94MOL   H25130197   5.120   7.319   6.984 -2.5252  0.6394 -2.8693
   94MOL   H25230198   4.995   7.494   7.083  4.2499  0.0260  4.2042
   94MOL   H25330199   4.939   7.715   7.114 -0.5932  0.9544 -1.3562
   94MOL   H25430200   5.222   7.838   6.814  1.8304 -0.5672  0.2544
   94MOL   H25530201   5.333   7.616   6.834  0.9315 -2.3196  2.8017
   94MOL   H25630202   5.318   7.401   6.778 -0.4586  0.8309  0.4873
   94MOL   H25730203   5.296   7.230   6.821  0.7696  0.1173 -1.3191
   94MOL   C25830204   5.147   7.317   6.685 -0.1648  0.6134 -0.0470
   94MOL   C25930205   5.115   7.456   6.628 -0.4555  0.1183  0.3285
   94MOL   C26030206   5.217   7.510   6.545 -0.2396 -0.0804 -0.6204
   94MOL   C26130207   5.210   7.648   6.511  0.6621 -0.6977  0.3838
   94MOL   C26230208   5.092   7.719   6.542  0.6391  0.0310  0.3181
   94MOL   F26330209   5.081   7.845   6.498  0.3424 -1.0959 -0.0101
   94MOL   C26430210   4.995   7.664   6.627 -0.3130 -0.6334 -0.0108
   94MOL   C26530211   5.004   7.529   6.668 -0.4041 -0.4416 -0.2218
   94MOL   C26630212   5.208   7.223   6.574  0.5281 -0.0944 -0.0337
   94MOL   H26730213   5.054   7.286   6.734  0.6918  0.5306  1.5743
   94MOL   H26830214   5.308   7.465   6.507  0.7074  0.3177  1.0810
   94MOL   H26930215   5.277   7.704   6.448 -1.3422  0.3248 -0.8695
   94MOL   H27030216   4.916   7.724   6.670  0.3778 -0.6958  1.3716
   94MOL   H27130217   4.931   7.480   6.730  0.1041 -1.5982 -0.5246
   94MOL   H27230218   5.151   7.226   6.482  0.0691  0.4126  0.2698
   94MOL   H27330219   5.310   7.251   6.547  0.5922 -1.4441 -1.2694
   94MOL   C27430220   5.217   7.079   6.614 -0.5456  0.0027  0.7001
   94MOL   C27530221   5.083   7.029   6.668  0.4643  0.9151 -0.2807
   94MOL   C27630222   4.974   7.025   6.578 -0.6455 -0.0863  0.5171
   94MOL   C27730223   4.844   6.994   6.627 -0.4289 -0.2146  0.2578
   94MOL   C27830224   4.825   6.960   6.762  0.5792 -0.1415 -0.1775
   94MOL   F27930225   4.705   6.912   6.803  0.4291  0.3623 -0.0897
   94MOL   C28030226   4.936   6.969   6.850  0.0076 -0.4252 -0.9120
   94MOL   C28130227   5.061   7.007   6.805 -0.6249  0.1131  0.5468
   94MOL   C28230228   5.276   6.995   6.490 -0.1178  0.1334 -0.2961
   94MOL   H28330229   5.289   7.065   6.694  0.4273 -0.9180 -0.3171
   94MOL   H28430230   4.979   7.055   6.474 -0.1819 -1.2702  0.1812
   94MOL   H28530231   4.759   6.997   6.560 -0.7605  0.9679  0.7145
   94MOL   H28630232   4.927   6.942   6.955 -2.4188 -1.6662 -1.3929
   94MOL   H28730233   5.145   7.009   6.873 -0.2582  0.6170  0.0865
   94MOL   H28830234   5.221   7.020   6.400  0.2136  3.1815  0.2968
   94MOL   H28930235   5.374   7.037   6.468  0.3629 -0.8855 -0.1404
   94MOL   C29030236   5.301   6.845   6.499 -0.3749  0.5586  0.5818
   94MOL   C29130237   5.335   6.781   6.363  0.0738 -0.1484 -0.2761
   94MOL   C29230238   5.423   6.853   6.283 -0.1816 -0.0826 -0.5164
   94MOL   C29330239   5.448   6.804   6.147  0.4523  0.2695 -0.2026
   94MOL   C29430240   5.390   6.673   6.112 -0.5799 -0.9841  0.1290
   94MOL   F29530241   5.425   6.617   5.996 -0.6726  0.1727 -0.4207
   94MOL   C29630242   5.314   6.601   6.203  0.0517  0.3006  0.1901
   94MOL   C29730243   5.283   6.657   6.324 -0.2525 -0.4244 -0.3896
   94MOL   C29830244   5.409   6.802   6.611  0.6683  0.8224  0.3575
   94MOL   H29930245   5.206   6.796   6.521  0.7233 -1.4770  0.9377
   94MOL   H30030246   5.446   6.954   6.312 -0.7070  0.1940 -1.0431
   94MOL   H30130247   5.508   6.864   6.081 -0.8635  1.4078 -0.3781
   94MOL   H30230248   5.286   6.497   6.187  0.7038  0.1085  0.2846
   94MOL   H30330249   5.217   6.612   6.397 -2.4640  1.6831 -1.0361
   94MOL   H30430250   5.469   6.719   6.575  1.6873  1.8578 -0.3731
   94MOL   H30530251   5.473   6.888   6.630 -1.4340  2.1847  1.5081
   94MOL   C30630252   5.332   6.754   6.731 -0.5303 -1.2189  0.2265
   94MOL   C30730253   5.262   6.625   6.724  0.4616 -0.4570  0.2449
   94MOL   C30830254   5.122   6.621   6.703  0.1241 -0.3548  0.1350
   94MOL   C30930255   5.052   6.498   6.707 -0.1012 -0.5975 -0.0658
   94MOL   C31030256   5.123   6.379   6.724 -0.2664 -0.1790 -0.3342
   94MOL   F31130257   5.054   6.263   6.743  0.1268  0.0403 -0.0400
   94MOL   C31230258   5.264   6.383   6.734  0.5381  0.2645 -0.3322
   94MOL   C31330259   5.333   6.503   6.747 -0.3486 -0.6887  0.0879
   94MOL   C31430260   5.416   6.776   6.859 -0.3045 -0.0794  0.5553
   94MOL   H31530261   5.256   6.832   6.738  0.3732 -0.2828 -0.0995
   94MOL   H31630262   5.067   6.712   6.681  1.7498  0.7964  0.7479
   94MOL   H31730263   4.944   6.500   6.701 -0.0267  0.1651 -1.6173
   94MOL   H31830264   5.310   6.286   6.752 -1.4800 -0.8233 -0.8871
   94MOL   H31930265   5.434   6.510   6.784  0.0505  0.5301 -1.1910
   94MOL   H32030266   5.500   6.706   6.862  0.3012  0.5854 -0.4463
   94MOL   H32130267   5.445   6.880   6.874 -1.1669  0.0994  0.9614
   94MOL   H32230268   5.360   6.748   6.947  0.9674 -0.4021  1.2734
   95MOL     C130269   6.606   1.225   0.294 -0.5860 -0.0040  0.0973
   95MOL     C230270   6.735   1.210   0.369  0.5335  0.3439 -0.8241
   95MOL     C330271   6.858   1.257   0.315  0.1164 -0.3241 -0.3145
   95MOL     C430272   6.984   1.245   0.384 -0.0285 -0.5744 -0.6605
   95MOL     C530273   6.980   1.172   0.502  0.1751  0.2263  0.0701
   95MOL     F630274   7.090   1.166   0.573  0.2610 -0.1657  0.5245
   95MOL     C730275   6.863   1.115   0.559  0.0986  0.9952  0.3539
   95MOL     C830276   6.740   1.141   0.492  0.1385 -0.1128  0.8494
   95MOL     C930277   6.560   1.374   0.282 -0.1145  0.2384 -0.2822
   95MOL    H1030278   6.542   1.159   0.353  1.2962 -2.5489 -0.6097
   95MOL    H1130279   6.853   1.315   0.224 -0.8241 -1.3203 -0.9104
   95MOL    H1230280   7.069   1.300   0.347 -0.6109 -0.5658 -1.9870
   95MOL    H1330281   6.873   1.050   0.644  1.9710 -0.2276 -0.7613
   95MOL    H1430282   6.658   1.084   0.531  1.3651 -1.0689  2.0879
   95MOL    H1530283   6.525   1.413   0.377 -2.1410 -2.9868  0.3836
   95MOL    H1630284   6.636   1.444   0.247 -0.3866  0.5987 -0.1603
   95MOL    H1730285   6.624   1.179   0.197 -0.7678 -0.4287  0.2629
   95MOL    C1830286   6.433   1.387   0.194 -0.2626 -0.0782 -0.1554
   95MOL    C1930287   6.466   1.342   0.047  0.1482  0.5783  0.0187
   95MOL    C2030288   6.505   1.432   8.183  0.2704  0.3268 -0.1144
   95MOL    C2130289   6.528   1.400   8.047 -0.6891 -0.2346  0.0018
   95MOL    C2230290   6.521   1.271   8.010  0.6876  0.1626 -0.4415
   95MOL    F2330291   6.555   1.228   7.884 -0.0108 -0.1572  0.3045
   95MOL    C2430292   6.481   1.176   8.100  0.3446  0.2039  0.8529
   95MOL    C2530293   6.455   1.205   0.006 -0.5043  0.4930 -0.1519
   95MOL    C2630294   6.307   1.320   0.256  0.2551  0.1847  0.3683
   95MOL    H2730295   6.407   1.493   0.186 -1.6683 -0.2654  1.6362
   95MOL    H2830296   6.521   1.537   8.204 -0.7176  0.5643 -0.5252
   95MOL    H2930297   6.574   1.470   7.978  0.9791 -0.9747  0.3293
   95MOL    H3030298   6.469   1.077   8.058 -1.2685  2.0955 -3.4059
   95MOL    H3130299   6.429   1.124   0.071  0.5144  0.5411  0.3126
   95MOL    H3230300   6.325   1.213   0.252 -0.5900  0.0552 -0.1063
   95MOL    H3330301   6.310   1.336   0.363 -0.0228  1.9005  0.1400
   95MOL    C3430302   6.168   1.357   0.190  0.6361 -1.0996 -0.6437
   95MOL    C3530303   6.149   1.290   0.055  0.2460  1.2725 -0.3898
   95MOL    C3630304   6.152   1.364   8.175 -0.4955 -0.2330  0.3044
   95MOL    C3730305   6.118   1.299   8.058 -0.4138 -0.1877  0.6971
   95MOL    C3830306   6.093   1.159   8.050 -0.4012  0.3852 -0.3710
   95MOL    F3930307   6.063   1.102   7.930 -0.3191  0.1943 -0.3140
   95MOL    C4030308   6.100   1.086   8.172 -0.1994  0.4876  0.8270
   95MOL    C4130309   6.127   1.149   0.061  0.8909  0.1742 -0.0161
   95MOL    C4230310   6.043   1.334   0.283  0.6643 -0.0555 -0.2796
   95MOL    H4330311   6.164   1.463   0.167  0.1293 -0.4616  2.1722
   95MOL    H4430312   6.177   1.469   8.175  0.9854 -0.5244 -2.5376
   95MOL    H4530313   6.112   1.359   7.968 -0.2350 -0.4114  0.5363
   95MOL    H4630314   6.075   0.982   8.157  0.0030  0.9003 -2.7306
   95MOL    H4730315   6.123   1.091   0.152 -3.1986 -0.0439 -0.2469
   95MOL    H4830316   5.952   1.334   0.223  0.3239  1.2333  0.2293
   95MOL    H4930317   6.048   1.236   0.330  2.1096  0.2186  0.1848
   95MOL    C5030318   6.019   1.444   0.389  0.1669 -0.2581  0.0309
   95MOL    C5130319   5.982   1.577   0.322 -0.0495  0.3041  0.0953
   95MOL    C5230320   5.878   1.586   0.226  0.1234  0.1621  0.4775
   95MOL    C5330321   5.832   1.707   0.159 -0.7636 -0.2591  0.2233
   95MOL    C5430322   5.906   1.823   0.191  0.2146  0.8786 -0.7985
   95MOL    F5530323   5.870   1.939   0.127  0.0316  0.0638 -0.0991
   95MOL    C5630324   6.020   1.811   0.277  0.8739 -0.4962 -0.6581
   95MOL    C5730325   6.060   1.695   0.337  0.2659 -1.2627  0.1521
   95MOL    C5830326   5.914   1.409   0.507 -0.3953 -0.2449 -0.2620
   95MOL    H5930327   6.115   1.459   0.438 -0.1914 -0.0113  0.6544
   95MOL    H6030328   5.828   1.492   0.210  2.0117 -0.4494 -2.2936
   95MOL    H6130329   5.757   1.712   0.082  0.6635  1.1686 -1.1338
   95MOL    H6230330   6.074   1.901   0.300  0.0872  0.0587 -0.9518
   95MOL    H6330331   6.144   1.700   0.405  0.5863 -0.8478 -0.2776
   95MOL    H6430332   5.836   1.348   0.460 -1.8062  1.1018  0.3081
   95MOL    H6530333   5.957   1.340   0.580 -0.7579 -0.3069 -0.1041
   95MOL    C6630334   5.826   1.523   0.578  0.0136  0.0665  0.3379
   95MOL    C6730335   5.698   1.453   0.636  0.1485  0.3870  0.2138
   95MOL    C6830336   5.711   1.368   0.745 -0.2463 -0.3769  0.2425
   95MOL    C6930337   5.599   1.288   0.785 -0.2409 -0.1567 -0.3262
   95MOL    C7030338   5.468   1.316   0.732 -0.1209  0.3278 -0.2877
   95MOL    F7130339   5.358   1.250   0.777  0.5268 -0.2154  0.1059
   95MOL    C7230340   5.458   1.403   0.619 -0.6593 -0.1342 -0.8542
   95MOL    C7330341   5.575   1.474   0.571 -0.0190  0.2737 -0.4502
   95MOL    C7430342   5.915   1.595   0.675  0.1127 -0.5263  0.3309
   95MOL    H7530343   5.779   1.596   0.512  0.5342 -0.8659 -1.0797
   95MOL    H7630344   5.807   1.344   0.788  0.6738  1.3112 -0.8585
   95MOL    H7730345   5.620   1.223   0.869 -1.5604 -1.0910 -0.6957
   95MOL    H7830346   5.361   1.429   0.579 -0.8601 -0.0627 -0.3199
   95MOL    H7930347   5.565   1.525   0.476  1.6659 -2.2375 -2.0602
   95MOL    H8030348   5.950   1.531   0.757  0.3089  0.0175  0.6703
   95MOL    H8130349   6.009   1.618   0.625 -0.6608  2.3459  0.1323
   95MOL    C8230350   5.870   1.735   0.723  0.9548  0.1488  0.8779
   95MOL    C8330351   5.940   1.780   0.847  0.1889  0.1702  0.0282
   95MOL    C8430352   5.859   1.802   0.964  0.2478  0.3386  0.7160
   95MOL    C8530353   5.919   1.850   1.079  0.3867 -0.0336  0.0338
   95MOL    C8630354   6.056   1.887   1.082 -0.4080  0.0330 -0.1063
   95MOL    F8730355   6.124   1.920   1.199  1.0055  0.1160 -0.0698
   95MOL    C8830356   6.133   1.866   0.970  0.2697 -0.7155 -0.4518
   95MOL    C8930357   6.078   1.812   0.852  0.2960 -0.0995  0.1787
   95MOL    C9030358   5.878   1.850   0.615 -0.2157 -0.1883  0.2285
   95MOL    H9130359   5.766   1.730   0.753  0.6763  1.4978  0.2031
   95MOL    H9230360   5.752   1.794   0.953  0.4651 -0.6129 -0.8692
   95MOL    H9330361   5.852   1.861   1.163  0.4728  0.2075  0.0728
   95MOL    H9430362   6.232   1.907   0.988 -0.5263  1.3186 -0.6149
   95MOL    H9530363   6.145   1.806   0.768 -0.5100 -0.6204 -0.4333
   95MOL    H9630364   5.982   1.868   0.587 -0.6810  3.7551  0.7632
   95MOL    H9730365   5.830   1.826   0.520  0.1760 -1.7415  0.4017
   95MOL    C9830366   5.820   1.986   0.663  0.5239  0.9599 -0.2678
   95MOL    C9930367   5.931   2.074   0.732 -0.2234  0.6016  0.3742
   95MOL   C10030368   6.051   2.104   0.665 -0.0264  0.5127  0.0133
   95MOL   C10130369   6.149   2.185   0.730 -0.0506 -0.7125 -0.4972
   95MOL   C10230370   6.127   2.234   0.864  0.2590  0.1348  0.8858
   95MOL   F10330371   6.224   2.315   0.922 -0.8274  0.1929  0.5212
   95MOL   C10430372   6.008   2.197   0.924  0.0152 -1.1136  0.2198
   95MOL   C10530373   5.908   2.122   0.860 -0.2847 -0.0373 -0.2197
   95MOL   C10630374   5.753   2.059   0.543  0.5221 -0.1797 -0.0269
   95MOL   H10730375   5.749   1.952   0.739  0.3536 -1.0926 -1.3165
   95MOL   H10830376   6.074   2.078   0.563 -1.8696 -1.7989  0.1452
   95MOL   H10930377   6.239   2.208   0.675  0.5796 -0.0034  0.8043
   95MOL   H11030378   5.994   2.229   1.026  0.1834 -1.3701  0.3226
   95MOL   H11130379   5.817   2.092   0.911 -0.7362  2.8597  0.7426
   95MOL   H11230380   5.824   2.068   0.460  3.4005 -0.9395  2.2589
   95MOL   H11330381   5.665   2.004   0.508  1.2173 -1.8903  0.8144
   95MOL   C11430382   5.689   2.191   0.588 -0.4604 -1.1187 -0.2137
   95MOL   C11530383   5.775   2.318   0.550  0.2393 -0.7169 -0.2601
   95MOL   C11630384   5.828   2.334   0.419  0.8151  0.0820  0.1076
   95MOL   C11730385   5.901   2.448   0.388  0.0352 -0.7947 -0.1960
   95MOL   C11830386   5.924   2.547   0.482  0.2084 -0.7315 -0.2605
   95MOL   F11930387   5.998   2.653   0.454  0.5308 -0.0326 -0.1849
   95MOL   C12030388   5.869   2.536   0.606  0.2303 -0.6209 -0.0434
   95MOL   C12130389   5.797   2.418   0.642  0.4651 -0.1811 -0.4518
   95MOL   C12230390   5.533   2.208   0.553 -0.3109 -0.2187 -0.5578
   95MOL   H12330391   5.698   2.188   0.697  2.0992 -0.3829 -0.3792
   95MOL   H12430392   5.803   2.257   0.348  1.3802 -0.2338  0.2574
   95MOL   H12530393   5.942   2.461   0.289 -3.3665  0.9499 -1.4281
   95MOL   H12630394   5.888   2.609   0.683 -0.8642  0.7817 -1.0777
   95MOL   H12730395   5.754   2.404   0.740 -1.2470 -3.1434 -1.5760
   95MOL   H12830396   5.522   2.242   0.450 -1.0457  3.2044  0.5792
   95MOL   H12930397   5.475   2.117   0.566 -0.2956 -0.1216  0.2093
   95MOL   C13030398   5.448   2.328   0.617 -0.5778  0.4339 -0.4664
   95MOL   C13130399   5.308   2.344   0.550 -0.9887  0.5235  0.4523
   95MOL   C13230400   5.285   2.453   0.467 -0.2166  0.6564  0.1360
   95MOL   C13330401   5.165   2.463   0.391 -0.6459  0.5665  0.5483
   95MOL   C13430402   5.069   2.361   0.401  0.2186 -0.1338  0.0200
   95MOL   F13530403   4.962   2.359   0.321 -0.2796 -0.0262  0.3554
   95MOL   C13630404   5.081   2.260   0.493  0.1184  0.0723 -0.3896
   95MOL   C13730405   5.204   2.249   0.565 -0.2217  0.5945  0.1064
   95MOL   C13830406   5.431   2.316   0.773  0.5114  0.1152  0.4629
   95MOL   H13930407   5.503   2.421   0.600 -0.8830  0.3112 -2.1927
   95MOL   H14030408   5.367   2.523   0.459  0.7891 -0.7289 -2.1665
   95MOL   H14130409   5.136   2.542   0.324 -0.9390  0.6605  0.7900
   95MOL   H14230410   5.001   2.191   0.516  0.6796  0.1216  1.9190
   95MOL   H14330411   5.222   2.167   0.633  0.6804 -0.3072 -1.1796
   95MOL   H14430412   5.352   2.244   0.796 -0.2241  0.8796  0.3942
   95MOL   H14530413   5.523   2.287   0.822  0.9414  0.3293 -0.2164
   95MOL   C14630414   5.384   2.451   0.845  0.2762  0.4209  0.9565
   95MOL   C14730415   5.314   2.414   0.974  0.4049  0.3085  0.6866
   95MOL   C14830416   5.396   2.358   1.073 -0.3005 -0.2279 -0.4603
   95MOL   C14930417   5.344   2.335   1.195  0.3133  0.1365  0.7890
   95MOL   C15030418   5.211   2.360   1.224  0.4429  0.0534 -0.5819
   95MOL   F15130419   5.171   2.339   1.348  0.7281  0.1580 -0.0257
   95MOL   C15230420   5.122   2.406   1.125  0.0672 -0.3534 -0.1037
   95MOL   C15330421   5.175   2.436   0.993  0.8514  0.4590  0.0295
   95MOL   C15430422   5.495   2.555   0.860 -0.2634  0.2266  0.6658
   95MOL   H15530423   5.298   2.492   0.793  0.6790 -0.6411 -0.5677
   95MOL   H15630424   5.500   2.329   1.063 -0.0122  0.2732  0.9539
   95MOL   H15730425   5.409   2.292   1.271 -0.7546 -0.3899  1.4185
   95MOL   H15830426   5.022   2.432   1.157 -0.6655 -3.2636  0.0701
   95MOL   H15930427   5.108   2.476   0.919 -0.2385 -0.1832  0.6509
   95MOL   H16030428   5.536   2.553   0.961 -1.0340 -0.6339  0.9703
   95MOL   H16130429   5.575   2.515   0.799 -0.5936  0.1869  0.2585
   95MOL   C16230430   5.458   2.700   0.827 -0.5312  0.5272 -0.5785
   95MOL   C16330431   5.426   2.721   0.677 -0.4274 -0.0107  0.9195
   95MOL   C16430432   5.292   2.749   0.626 -0.4013  0.1561  0.5240
   95MOL   C16530433   5.286   2.798   0.490 -0.6181 -0.0429 -0.0165
   95MOL   C16630434   5.395   2.790   0.398  0.2677 -0.2884 -0.5098
   95MOL   F16730435   5.379   2.811   0.265  0.0041 -0.2302 -0.1442
   95MOL   C16830436   5.516   2.752   0.452 -0.3705  0.4704  0.1815
   95MOL   C16930437   5.533   2.726   0.587  0.1157  0.1136 -0.2129
   95MOL   C17030438   5.351   2.768   0.916 -0.6731  0.7516  0.2975
   95MOL   H17130439   5.548   2.761   0.837 -0.6440  0.4660  0.8209
   95MOL   H17230440   5.206   2.768   0.688 -0.4681 -2.5686  1.3550
   95MOL   H17330441   5.192   2.848   0.469 -0.5629  0.3745  0.7152
   95MOL   H17430442   5.601   2.742   0.385 -1.4564  0.6798 -1.2469
   95MOL   H17530443   5.633   2.714   0.626 -1.0195 -0.6086  2.6079
   95MOL   H17630444   5.337   2.870   0.881  0.9731  0.1904 -2.0824
   95MOL   H17730445   5.247   2.735   0.906 -0.2968 -0.6211  0.7928
   95MOL   C17830446   5.385   2.777   1.072 -0.0199 -0.0071 -0.2939
   95MOL   C17930447   5.517   2.846   1.101 -0.2703 -0.5378 -0.1832
   95MOL   C18030448   5.538   2.975   1.062 -0.4906 -0.1885  0.2629
   95MOL   C18130449   5.660   3.035   1.089 -0.8055  0.5280  0.3495
   95MOL   C18230450   5.768   2.972   1.156 -0.4597 -0.0533  0.6319
   95MOL   F18330451   5.882   3.029   1.185 -0.1700  0.1863  0.1801
   95MOL   C18430452   5.748   2.839   1.188 -0.4163  0.1435 -0.3588
   95MOL   C18530453   5.622   2.778   1.169  0.3633 -0.0399 -0.2676
   95MOL   C18630454   5.259   2.835   1.138 -0.0258 -0.1354  0.1524
   95MOL   H18730455   5.389   2.677   1.114  3.1353  0.7376  1.3421
   95MOL   H18830456   5.470   3.039   1.008  0.4163  0.7981  0.2739
   95MOL   H18930457   5.680   3.137   1.060 -1.6494  0.3502 -0.9061
   95MOL   H19030458   5.825   2.792   1.246 -1.2291  3.4560  3.6518
   95MOL   H19130459   5.608   2.678   1.207  3.5623 -0.4495 -0.0531
   95MOL   H19230460   5.253   2.939   1.106 -1.7033 -0.8894 -2.1169
   95MOL   H19330461   5.165   2.797   1.099  0.4813 -1.0010 -0.2607
   95MOL   C19430462   5.262   2.844   1.293  0.1709 -0.4080  0.5406
   95MOL   C19530463   5.164   2.947   1.344 -0.7483 -0.8253 -0.1038
   95MOL   C19630464   5.209   3.081   1.378 -0.2955  0.6373 -0.2085
   95MOL   C19730465   5.124   3.180   1.438 -0.3869 -0.3018  0.5234
   95MOL   C19830466   4.992   3.140   1.472  0.3971 -0.5796  0.5363
   95MOL   F19930467   4.911   3.234   1.532 -0.5673 -0.1183  0.1121
   95MOL   C20030468   4.946   3.009   1.453  0.7333 -0.3080  0.2666
   95MOL   C20130469   5.030   2.920   1.384 -0.2751  0.1025  0.1963
   95MOL   C20230470   5.256   2.707   1.372 -0.3442  0.3467  0.0388
   95MOL   H20330471   5.361   2.884   1.318 -0.8031  3.0803 -0.9022
   95MOL   H20430472   5.314   3.105   1.367  0.3652 -0.3169  3.1984
   95MOL   H20530473   5.161   3.280   1.454  1.8078 -1.0044 -0.0319
   95MOL   H20630474   4.845   2.992   1.487  0.6535  0.3389  0.3660
   95MOL   H20730475   4.981   2.824   1.370 -1.6666  0.9369 -0.7338
   95MOL   H20830476   5.158   2.661   1.368 -0.4891  0.6185  0.3616
   95MOL   H20930477   5.306   2.636   1.307 -1.1879  0.4276 -0.6991
   95MOL   C21030478   5.312   2.696   1.518  0.2087  0.4847 -0.2417
   95MOL   C21130479   5.216   2.757   1.622 -0.1895 -0.2221 -0.2052
   95MOL   C21230480   5.099   2.697   1.669 -0.2521  0.5592 -0.2951
   95MOL   C21330481   5.001   2.763   1.743  0.6638  0.4200  0.0340
   95MOL   C21430482   5.026   2.895   1.782  0.7363  1.0686 -0.0577
   95MOL   F21530483   4.938   2.975   1.853  0.4892 -0.3865 -0.7715
   95MOL   C21630484   5.143   2.959   1.738  0.3874 -0.3551 -0.0560
   95MOL   C21730485   5.239   2.892   1.664 -0.4734  0.6128  0.1066
   95MOL   C21830486   5.330   2.545   1.561 -0.4789 -0.1765  0.1376
   95MOL   H21930487   5.412   2.739   1.523  0.9310 -0.8486 -2.4792
   95MOL   H22030488   5.073   2.593   1.656 -0.6344  0.4918  0.9724
   95MOL   H22130489   4.901   2.725   1.763  1.3897 -1.7771 -0.3726
   95MOL   H22230490   5.158   3.065   1.759 -1.9924  0.7225 -3.4642
   95MOL   H22330491   5.335   2.933   1.635  1.2849 -2.5331  1.2364
   95MOL   H22430492   5.237   2.490   1.547  1.4864 -4.0867  1.5359
   95MOL   H22530493   5.395   2.497   1.487 -0.4136 -0.2052  0.2131
   95MOL   C22630494   5.375   2.505   1.694 -0.6644  0.3725  0.2125
   95MOL   C22730495   5.340   2.357   1.721  0.0484  0.7454  0.0258
   95MOL   C22830496   5.269   2.322   1.835 -0.0946  0.4045  0.1365
   95MOL   C22930497   5.234   2.187   1.852 -0.1812 -0.2650 -0.4449
   95MOL   C23030498   5.272   2.087   1.754  0.0812 -0.8287  0.2759
   95MOL   F23130499   5.228   1.958   1.764 -0.7175 -0.6131 -0.6179
   95MOL   C23230500   5.356   2.122   1.648  0.2526 -0.4265  0.0923
   95MOL   C23330501   5.390   2.258   1.633 -0.1209  0.1323 -0.5785
   95MOL   C23430502   5.523   2.530   1.719  0.0618  0.8499 -0.7346
   95MOL   H23530503   5.318   2.563   1.767 -0.5796  0.0276  0.5534
   95MOL   H23630504   5.222   2.393   1.902 -0.6172  0.7236 -0.5588
   95MOL   H23730505   5.170   2.152   1.931 -1.8031  2.5140 -0.4569
   95MOL   H23830506   5.391   2.054   1.572  0.3252 -0.8205  0.4716
   95MOL   H23930507   5.458   2.283   1.553  1.5067 -0.6030  0.5526
   95MOL   H24030508   5.582   2.485   1.639  0.1481  0.1064 -0.2586
   95MOL   H24130509   5.548   2.635   1.706 -0.1480  0.9359 -0.4471
   95MOL   C24230510   5.585   2.488   1.850 -0.6501 -0.2681 -0.1889
   95MOL   C24330511   5.738   2.505   1.824 -0.4867 -0.0300 -0.0063
   95MOL   C24430512   5.795   2.632   1.846  1.0319 -0.0757  0.4354
   95MOL   C24530513   5.934   2.648   1.849 -0.0464  0.8648 -0.1849
   95MOL   C24630514   6.014   2.535   1.829 -0.1835 -0.3745  0.1144
   95MOL   F24730515   6.145   2.546   1.837  0.3170  0.2431 -0.2066
   95MOL   C24830516   5.958   2.408   1.802  0.3084  0.3631 -0.1037
   95MOL   C24930517   5.818   2.392   1.798 -0.5168  0.1722 -0.1099
   95MOL   C25030518   5.527   2.554   1.977  0.7020 -0.5616 -0.0211
   95MOL   H25130519   5.578   2.380   1.859  0.8355 -0.4107 -0.6546
   95MOL   H25230520   5.726   2.714   1.859 -1.2699 -1.7733 -0.6707
   95MOL   H25330521   5.982   2.743   1.866 -0.6077  0.8747  1.4985
   95MOL   H25430522   6.024   2.325   1.786 -0.8364 -0.5253 -0.2838
   95MOL   H25530523   5.776   2.293   1.796 -0.5659  0.2075 -3.8142
   95MOL   H25630524   5.535   2.661   1.960 -2.7968 -0.2460 -0.0320
   95MOL   H25730525   5.420   2.536   1.979  0.5200  0.4229 -0.7274
   95MOL   C25830526   5.605   2.527   2.112  0.1206  0.2002  0.9365
   95MOL   C25930527   5.607   2.647   2.195  0.1681 -0.6724  0.0918
   95MOL   C26030528   5.497   2.693   2.275  0.6454 -0.4540  0.4223
   95MOL   C26130529   5.499   2.818   2.343  0.0484 -0.9969  0.0855
   95MOL   C26230530   5.620   2.888   2.359 -0.7160  0.2272  0.2647
   95MOL   F26330531   5.630   2.994   2.440 -0.1090 -0.2994  0.0845
   95MOL   C26430532   5.729   2.843   2.283 -0.4704  0.3293 -1.3198
   95MOL   C26530533   5.720   2.729   2.206 -0.4547  0.1342  1.0917
   95MOL   C26630534   5.545   2.412   2.191  0.4903 -0.1246  0.0284
   95MOL   H26730535   5.710   2.511   2.087  0.8901  3.1383  2.0258
   95MOL   H26830536   5.398   2.652   2.263  0.6958 -0.8239  1.2489
   95MOL   H26930537   5.407   2.857   2.383  1.0037  2.2613 -0.7978
   95MOL   H27030538   5.819   2.902   2.281 -1.4701  1.9302 -0.0436
   95MOL   H27130539   5.812   2.707   2.153 -0.5925  0.0882  0.8685
   95MOL   H27230540   5.547   2.421   2.300  1.9291  1.6812 -0.1293
   95MOL   H27330541   5.440   2.423   2.163  0.6807  2.2359  0.1387
   95MOL   C27430542   5.598   2.277   2.156 -0.7595  0.3577  0.0921
   95MOL   C27530543   5.722   2.246   2.231 -0.7736  0.1716  0.1930
   95MOL   C27630544   5.852   2.262   2.173 -1.0248 -0.0789  0.2444
   95MOL   C27730545   5.962   2.246   2.251  0.0397 -0.4387  0.1514
   95MOL   C27830546   5.952   2.221   2.390  0.3631 -0.2024 -0.0736
   95MOL   F27930547   6.068   2.201   2.458  0.3695  0.1853  0.0832
   95MOL   C28030548   5.829   2.199   2.449  0.4961 -0.0004 -0.2251
   95MOL   C28130549   5.714   2.215   2.368 -0.4442 -0.3793 -0.2326
   95MOL   C28230550   5.493   2.167   2.174 -0.5902 -0.4755  0.5029
   95MOL   H28330551   5.618   2.278   2.049 -0.4741  0.9770  0.1478
   95MOL   H28430552   5.847   2.299   2.072  0.0485  0.6420  0.4479
   95MOL   H28530553   6.056   2.259   2.199  0.5193  0.6719  1.2631
   95MOL   H28630554   5.825   2.196   2.557  1.6328  2.0542 -0.0929
   95MOL   H28730555   5.619   2.204   2.420 -2.0324  1.9213 -2.5213
   95MOL   H28830556   5.473   2.158   2.281  0.8897 -0.7346  0.7760
   95MOL   H28930557   5.407   2.200   2.116  1.1621 -0.0235 -1.9521
   95MOL   C29030558   5.535   2.029   2.124  0.0097 -0.1710  0.3433
   95MOL   C29130559   5.423   1.925   2.162 -0.6986  0.3362 -0.1334
   95MOL   C29230560   5.429   1.864   2.287  0.5928  0.0079 -0.1725
   95MOL   C29330561   5.340   1.754   2.317  0.9431 -0.4785 -0.0451
   95MOL   C29430562   5.237   1.728   2.227  0.7912 -0.5327 -0.2155
   95MOL   F29530563   5.147   1.637   2.265  0.0462 -0.3756  0.2817
   95MOL   C29630564   5.219   1.797   2.105 -0.0856  0.5371 -0.2355
   95MOL   C29730565   5.317   1.896   2.074 -0.2385  0.3078  0.2550
   95MOL   C29830566   5.572   2.024   1.970 -0.1104 -0.4221 -0.5434
   95MOL   H29930567   5.625   1.983   2.166 -0.0213  0.8817  1.5832
   95MOL   H30030568   5.502   1.893   2.361  1.1146 -0.4163 -0.5150
   95MOL   H30130569   5.361   1.699   2.408 -0.4178 -0.8981  0.0156
   95MOL   H30230570   5.151   1.759   2.031  0.0171  1.3892 -0.7707
   95MOL   H30330571   5.313   1.947   1.979 -0.4661  1.6490  0.9774
   95MOL   H30430572   5.491   2.062   1.907 -1.5367 -2.9810 -0.3298
   95MOL   H30530573   5.649   2.100   1.955 -0.1325 -0.3085 -0.0763
   95MOL   C30630574   5.628   1.892   1.915 -0.1506 -0.2347  0.5108
   95MOL   C30730575   5.652   1.900   1.758  0.2155  0.8467 -0.1502
   95MOL   C30830576   5.751   1.991   1.716  0.2122 -0.3868  0.1224
   95MOL   C30930577   5.759   2.025   1.580  0.0953 -0.1810  0.6196
   95MOL   C31030578   5.682   1.950   1.488 -0.0313 -0.1802  0.2987
   95MOL   F31130579   5.695   1.968   1.356  0.4170 -0.5230  0.1880
   95MOL   C31230580   5.586   1.861   1.533  0.4729 -0.1341 -0.0044
   95MOL   C31330581   5.563   1.842   1.665 -0.0600 -0.3479 -0.4960
   95MOL   C31430582   5.741   1.831   1.993 -0.4369 -0.1971 -0.0655
   95MOL   H31530583   5.547   1.820   1.924 -2.4051  2.3585  1.7465
   95MOL   H31630584   5.828   2.041   1.774  0.6557 -2.2987  1.2489
   95MOL   H31730585   5.836   2.091   1.542  1.0552 -0.3904  2.1460
   95MOL   H31830586   5.519   1.824   1.456 -0.7985  0.6652  0.7021
   95MOL   H31930587   5.480   1.790   1.710  0.2948 -0.7884 -0.3472
   95MOL   H32030588   5.731   1.826   2.101  0.1671 -0.0214  0.0010
   95MOL   H32130589   5.764   1.731   1.957 -1.0046 -0.4143  0.1716
   95MOL   H32230590   5.831   1.892   1.988  0.8672 -2.2190 -1.7847
   96MOL     C130591   0.659   2.866   4.416 -0.1834  0.1693  0.1181
   96MOL     C230592   0.589   2.860   4.279  0.2635  0.2772  0.0681
   96MOL     C330593   0.551   2.980   4.218 -0.0406 -0.0075  0.6449
   96MOL     C430594   0.508   2.984   4.084  0.4190  0.1321 -0.2980
   96MOL     C530595   0.498   2.862   4.018 -1.1239  0.5118  0.8778
   96MOL     F630596   0.460   2.859   3.890  0.2290  0.9288  0.4979
   96MOL     C730597   0.538   2.740   4.081 -0.2663 -0.4965 -0.1529
   96MOL     C830598   0.583   2.740   4.214  0.0905 -0.0647  0.0387
   96MOL     C930599   0.551   2.870   4.533  0.2884  0.3311 -0.4177
   96MOL    H1030600   0.714   2.961   4.419  2.2768 -1.1735 -0.7617
   96MOL    H1130601   0.547   3.071   4.276 -0.7064  0.2162  0.2560
   96MOL    H1230602   0.476   3.078   4.040  0.8209  0.8335  0.8761
   96MOL    H1330603   0.532   2.641   4.038 -3.9518  0.5303 -2.2328
   96MOL    H1430604   0.624   2.649   4.257  0.6342  0.6359  1.0365
   96MOL    H1530605   0.499   2.965   4.528 -0.8322 -0.3429 -1.8829
   96MOL    H1630606   0.481   2.787   4.522  0.6931 -0.0255 -0.3520
   96MOL    H1730607   0.731   2.785   4.426  2.3806  2.1592 -1.1905
   96MOL    C1830608   0.617   2.872   4.669 -0.6097  0.5386  0.1622
   96MOL    C1930609   0.533   2.957   4.767  0.3004  0.1217  0.5795
   96MOL    C2030610   0.393   2.926   4.778 -0.1778 -0.3121 -1.1979
   96MOL    C2130611   0.316   2.999   4.872  0.5748  0.0006  0.5909
   96MOL    C2230612   0.376   3.099   4.947 -0.0417  0.1198  1.0834
   96MOL    F2330613   0.301   3.158   5.039 -0.2252 -1.1709  0.1262
   96MOL    C2430614   0.516   3.127   4.939  0.6112  0.0205  0.2935
   96MOL    C2530615   0.595   3.052   4.849 -0.2026  0.1834  0.6902
   96MOL    C2630616   0.644   2.730   4.723  0.1705 -0.1787 -0.2441
   96MOL    H2730617   0.714   2.922   4.654  0.1588 -1.0263 -0.1905
   96MOL    H2830618   0.356   2.836   4.732  1.0510 -1.7875  0.6120
   96MOL    H2930619   0.213   2.973   4.890  0.3801  1.0900  1.1060
   96MOL    H3030620   0.556   3.199   5.008  0.4738 -1.1251  1.5849
   96MOL    H3130621   0.699   3.068   4.828 -0.2307 -0.3750  0.1280
   96MOL    H3230622   0.553   2.671   4.716  1.2752 -1.7844 -1.5233
   96MOL    H3330623   0.706   2.677   4.651 -0.6781 -0.5337 -0.7229
   96MOL    C3430624   0.704   2.718   4.867 -0.1525 -0.1036  1.1122
   96MOL    C3530625   0.596   2.672   4.964  0.9221 -0.5196 -0.0876
   96MOL    C3630626   0.563   2.760   5.074 -0.0498 -0.0233 -0.1730
   96MOL    C3730627   0.458   2.724   5.166  0.3804 -0.6805  0.5149
   96MOL    C3830628   0.388   2.606   5.141 -0.3468 -0.6642 -0.3439
   96MOL    F3930629   0.282   2.582   5.222 -0.1189 -0.0581  0.0938
   96MOL    C4030630   0.417   2.520   5.036 -0.0159  0.3349 -0.2325
   96MOL    C4130631   0.525   2.550   4.950 -0.7986 -0.4808 -0.1033
   96MOL    C4230632   0.828   2.620   4.873  0.3246  0.1500  0.5380
   96MOL    H4330633   0.745   2.815   4.893  1.7729 -0.6359  0.0988
   96MOL    H4430634   0.626   2.847   5.086  0.2220 -0.1952 -0.3301
   96MOL    H4530635   0.410   2.784   5.242  2.5100  0.6427  0.8566
   96MOL    H4630636   0.366   2.425   5.028 -2.0222  1.3241  0.8019
   96MOL    H4730637   0.545   2.493   4.861  1.3480  0.3543 -0.1711
   96MOL    H4830638   0.835   2.585   4.976 -1.0131 -0.5921  0.3774
   96MOL    H4930639   0.802   2.520   4.839  0.4166  0.9182 -1.8454
   96MOL    C5030640   0.968   2.672   4.827 -0.2457  0.2293 -0.5916
   96MOL    C5130641   1.019   2.809   4.879 -0.8714 -0.0627  0.7915
   96MOL    C5230642   0.994   2.839   5.011  0.4619  0.4043  0.3378
   96MOL    C5330643   1.030   2.966   5.067 -0.1182 -0.7714  0.0932
   96MOL    C5430644   1.088   3.061   4.990 -0.3714  0.1318  0.8417
   96MOL    F5530645   1.104   3.182   5.044 -0.1369  0.2138  0.2054
   96MOL    C5630646   1.127   3.029   4.857  0.0830 -0.1015 -0.2841
   96MOL    C5730647   1.088   2.902   4.798 -0.4904 -0.0550  0.3774
   96MOL    C5830648   1.070   2.555   4.856  0.4579 -0.3442  0.5636
   96MOL    H5930649   0.958   2.692   4.720 -1.3004  1.0093 -0.3476
   96MOL    H6030650   0.951   2.766   5.078  0.1355 -0.2143 -0.5379
   96MOL    H6130651   1.011   3.001   5.167 -0.3078  1.6300 -0.7444
   96MOL    H6230652   1.171   3.101   4.790 -0.8778 -0.8270 -1.7348
   96MOL    H6330653   1.109   2.889   4.693 -0.8092  3.5232 -0.1903
   96MOL    H6430654   1.172   2.587   4.834  0.4059  0.2278  1.1673
   96MOL    H6530655   1.075   2.540   4.964  1.7616  1.2156  0.7221
   96MOL    C6630656   1.044   2.425   4.772  0.0429  1.0185 -0.3130
   96MOL    C6730657   1.028   2.450   4.622 -0.0750  0.3118  0.4424
   96MOL    C6830658   1.133   2.508   4.551  0.2137 -0.1791  0.1935
   96MOL    C6930659   1.119   2.537   4.412 -0.3152 -0.3799 -0.6742
   96MOL    C7030660   0.993   2.530   4.351  0.9840 -0.8203 -1.0124
   96MOL    F7130661   0.976   2.572   4.219 -0.5721  0.0322  0.1871
   96MOL    C7230662   0.881   2.486   4.428 -0.0264 -0.3444  0.4525
   96MOL    C7330663   0.902   2.438   4.559 -0.2103  0.1614  0.2053
   96MOL    C7430664   1.147   2.319   4.799 -0.0773  0.0262 -0.0930
   96MOL    H7530665   0.952   2.375   4.801  1.1142 -1.0666 -0.4295
   96MOL    H7630666   1.229   2.522   4.597 -0.2055  1.1114  0.6880
   96MOL    H7730667   1.197   2.585   4.354 -0.8117  0.7708 -0.4135
   96MOL    H7830668   0.778   2.497   4.396  0.3416  1.6810 -0.0602
   96MOL    H7930669   0.815   2.392   4.603  1.2966 -2.0834  0.9448
   96MOL    H8030670   1.110   2.237   4.737 -1.7728  1.8521 -1.5381
   96MOL    H8130671   1.242   2.358   4.762 -0.2272 -0.1103 -0.6386
   96MOL    C8230672   1.162   2.275   4.949 -0.2861 -0.5790  0.3534
   96MOL    C8330673   1.020   2.272   5.026 -0.2901 -0.9886  0.0469
   96MOL    C8430674   0.990   2.361   5.132  0.1536  0.0279 -0.3501
   96MOL    C8530675   0.858   2.370   5.184 -0.0525  0.7762 -0.2829
   96MOL    C8630676   0.760   2.283   5.138  0.4744 -0.2094 -0.4636
   96MOL    F8730677   0.632   2.285   5.184 -0.1586 -0.0745 -0.2646
   96MOL    C8830678   0.797   2.190   5.041 -0.9821 -0.0099  0.1922
   96MOL    C8930679   0.918   2.188   4.981 -0.1558  0.4273  0.3105
   96MOL    C9030680   1.240   2.139   4.964  0.8444 -1.0896  0.1470
   96MOL    H9130681   1.217   2.349   5.007 -1.0992  0.0317  0.3578
   96MOL    H9230682   1.066   2.427   5.173 -0.0844 -0.4439  0.8782
   96MOL    H9330683   0.834   2.449   5.254 -0.9817 -0.1787  0.4960
   96MOL    H9430684   0.718   2.124   5.007 -0.5245  0.4794 -1.9026
   96MOL    H9530685   0.942   2.124   4.897 -0.0223  1.4364 -0.4336
   96MOL    H9630686   1.254   2.089   5.060  1.3254 -2.3787 -0.5802
   96MOL    H9730687   1.198   2.065   4.896  0.5311  0.0406 -0.8929
   96MOL    C9830688   1.390   2.142   4.923 -0.6143  0.1367  0.1873
   96MOL    C9930689   1.479   2.226   5.018  0.3632 -0.7203 -0.2257
   96MOL   C10030690   1.567   2.176   5.112 -0.6747 -0.4898 -0.4871
   96MOL   C10130691   1.638   2.263   5.192  0.0511 -0.0602  0.5553
   96MOL   C10230692   1.625   2.403   5.185 -0.3401 -0.2868 -0.5084
   96MOL   F10330693   1.701   2.482   5.260 -0.6379 -0.4389 -0.2021
   96MOL   C10430694   1.558   2.451   5.071  0.2917  0.6209  0.0907
   96MOL   C10530695   1.477   2.365   4.990  0.1758  0.3245  0.3242
   96MOL   C10630696   1.462   2.013   4.881  0.3119 -0.6960 -0.1904
   96MOL   H10730697   1.379   2.199   4.830 -0.5081  0.6054  0.4617
   96MOL   H10830698   1.590   2.071   5.125  0.7382 -0.1390 -0.0661
   96MOL   H10930699   1.711   2.225   5.263  0.8880  0.8113  0.1681
   96MOL   H11030700   1.554   2.557   5.052 -3.5924  0.5224 -0.0059
   96MOL   H11130701   1.419   2.405   4.908 -1.3011 -0.4421  0.9783
   96MOL   H11230702   1.566   2.032   4.853 -0.3709  2.7746 -0.5047
   96MOL   H11330703   1.477   1.938   4.959  1.9706  0.9374  1.1101
   96MOL   C11430704   1.404   1.938   4.761  0.5883 -0.2505  0.2271
   96MOL   C11530705   1.386   2.024   4.634 -0.1213  0.4565 -0.4863
   96MOL   C11630706   1.260   2.036   4.566  0.6634 -0.3908 -0.4611
   96MOL   C11730707   1.241   2.121   4.458  0.2773 -0.1355 -0.0548
   96MOL   C11830708   1.344   2.208   4.421  1.4105  0.0501 -0.5378
   96MOL   F11930709   1.320   2.302   4.328 -0.0457 -0.7248 -0.4977
   96MOL   C12030710   1.470   2.200   4.488  0.0322 -0.3416  0.9818
   96MOL   C12130711   1.494   2.096   4.580  0.1173 -0.6330  0.2884
   96MOL   C12230712   1.484   1.813   4.732 -0.0263  0.2326 -0.0595
   96MOL   H12330713   1.300   1.909   4.776  0.8400 -0.9885  0.5607
   96MOL   H12430714   1.182   1.971   4.602  0.8277 -0.1753  0.2814
   96MOL   H12530715   1.151   2.123   4.399 -1.6572 -2.3952  2.7117
   96MOL   H12630716   1.542   2.274   4.457 -0.9058  0.6227  1.0787
   96MOL   H12730717   1.595   2.100   4.618  0.3176  0.5241 -0.3203
   96MOL   H12830718   1.447   1.766   4.641 -1.2046 -0.8101  0.9383
   96MOL   H12930719   1.585   1.840   4.701  0.5565 -2.1485 -0.3278
   96MOL   C13030720   1.474   1.700   4.843  0.3194 -0.1029 -0.8538
   96MOL   C13130721   1.328   1.667   4.884 -0.4927  0.2492 -0.3461
   96MOL   C13230722   1.282   1.669   5.017 -0.3995  0.5778 -0.5112
   96MOL   C13330723   1.152   1.640   5.051 -0.3265 -0.5529  0.0850
   96MOL   C13430724   1.061   1.609   4.950  0.0587 -0.2645 -0.3437
   96MOL   F13530725   0.934   1.579   4.978 -0.0079 -0.6106 -0.1799
   96MOL   C13630726   1.105   1.585   4.820 -0.5495  0.4762  0.2726
   96MOL   C13730727   1.239   1.616   4.787  0.1317 -0.0691  0.4811
   96MOL   C13830728   1.544   1.571   4.801 -0.0020  0.0229 -0.1088
   96MOL   H13930729   1.524   1.738   4.932  1.0009  0.5049 -1.4849
   96MOL   H14030730   1.353   1.698   5.093 -1.2039 -0.8462  0.7952
   96MOL   H14130731   1.113   1.651   5.151  1.7864  0.1401  0.8623
   96MOL   H14230732   1.034   1.550   4.746  0.7228 -0.0693 -0.7055
   96MOL   H14330733   1.263   1.611   4.682 -1.5905 -0.1270  0.0611
   96MOL   H14430734   1.475   1.517   4.736 -0.0671  1.5018 -1.2964
   96MOL   H14530735   1.632   1.604   4.745 -0.1742  2.4284  0.9463
   96MOL   C14630736   1.592   1.486   4.921  1.5343 -0.4375  0.4119
   96MOL   C14730737   1.582   1.339   4.885 -0.1037  0.6261  0.0919
   96MOL   C14830738   1.467   1.272   4.940 -0.2628 -0.2836 -0.5993
   96MOL   C14930739   1.441   1.140   4.895 -0.5666 -1.2034  1.2677
   96MOL   C15030740   1.519   1.070   4.801  0.2209 -0.1639 -0.0885
   96MOL   F15130741   1.486   0.946   4.754 -0.1492  0.1133 -0.3904
   96MOL   C15230742   1.638   1.133   4.761 -0.0028 -0.5713  0.1717
   96MOL   C15330743   1.667   1.267   4.797 -0.2821  0.0505 -0.0787
   96MOL   C15430744   1.731   1.527   4.981  0.1311 -0.3722 -0.2716
   96MOL   H15530745   1.516   1.507   4.996  0.7022 -0.6732 -0.3644
   96MOL   H15630746   1.388   1.318   4.997  0.4149 -0.8781  0.8183
   96MOL   H15730747   1.351   1.094   4.932 -1.2697  1.5527  3.1346
   96MOL   H15830748   1.703   1.087   4.688 -0.6380  1.8906 -2.0499
   96MOL   H15930749   1.760   1.315   4.770 -0.7542  1.0153 -0.0246
   96MOL   H16030750   1.771   1.431   5.013  1.7701  0.5928  0.6238
   96MOL   H16130751   1.790   1.569   4.900  0.3767 -3.2538 -1.6424
   96MOL   C16230752   1.734   1.623   5.096  0.2224  0.0168 -0.4765
   96MOL   C16330753   1.636   1.589   5.210 -0.3537  0.2065 -0.5013
   96MOL   C16430754   1.615   1.456   5.256 -0.0172 -0.4331  0.4188
   96MOL   C16530755   1.507   1.424   5.342  0.3406 -0.5004  0.6595
   96MOL   C16630756   1.425   1.531   5.387  0.1307  0.5024  0.5248
   96MOL   F16730757   1.319   1.493   5.462 -0.3707  0.1250 -0.2751
   96MOL   C16830758   1.455   1.666   5.358 -0.2049 -0.5597 -0.0452
   96MOL   C16930759   1.549   1.691   5.261 -0.1199  0.5197 -0.3402
   96MOL   C17030760   1.876   1.647   5.159 -0.8173  0.4359  0.4880
   96MOL   H17130761   1.702   1.711   5.041  2.0490  0.3058 -1.1307
   96MOL   H17230762   1.677   1.377   5.219  1.5950  1.6402 -1.4813
   96MOL   H17330763   1.485   1.321   5.367 -2.5693  0.2006  1.2268
   96MOL   H17430764   1.393   1.745   5.398 -0.2033 -1.9321  2.8497
   96MOL   H17530765   1.557   1.791   5.222 -0.2742  0.6504 -0.0359
   96MOL   H17630766   1.861   1.728   5.230 -0.6194  1.3004 -0.4429
   96MOL   H17730767   1.903   1.567   5.227 -1.6901  2.3895  3.2376
   96MOL   C17830768   1.984   1.694   5.062  0.4209  0.1410 -0.7093
   96MOL   C17930769   1.937   1.799   4.964 -0.3227  0.1590 -0.4008
   96MOL   C18030770   1.892   1.925   5.012 -0.0233 -0.2675  0.1418
   96MOL   C18130771   1.866   2.025   4.918  0.6527 -0.2069  0.0816
   96MOL   C18230772   1.856   1.991   4.781 -0.2213 -0.1817  0.6727
   96MOL   F18330773   1.818   2.089   4.697 -0.1113  0.5426  0.2576
   96MOL   C18430774   1.903   1.871   4.731  0.1338 -0.5462 -0.8494
   96MOL   C18530775   1.946   1.774   4.821  0.5396  0.8432 -1.2876
   96MOL   C18630776   2.114   1.744   5.141 -0.6043  0.0369 -0.1113
   96MOL   H18730777   2.012   1.608   5.001 -0.8144  0.3012 -1.5235
   96MOL   H18830778   1.888   1.957   5.115 -1.8592 -2.4713  0.7974
   96MOL   H18930779   1.834   2.120   4.958  0.8239 -0.9516  2.0381
   96MOL   H19030780   1.909   1.849   4.625  0.0334  1.2306 -1.2560
   96MOL   H19130781   1.996   1.691   4.774  0.6230 -1.3609  2.4888
   96MOL   H19230782   2.175   1.786   5.062 -1.2362  3.4656  1.1307
   96MOL   H19330783   2.097   1.838   5.194  3.2382  2.2452 -2.5842
   96MOL   C19430784   2.190   1.637   5.229  0.0541 -0.7026  0.2213
   96MOL   C19530785   2.260   1.548   5.126 -0.1557  0.4935  0.0713
   96MOL   C19630786   2.220   1.418   5.107  0.2060 -0.0751  0.1487
   96MOL   C19730787   2.278   1.344   5.002 -0.1520  1.1443 -0.6196
   96MOL   C19830788   2.359   1.401   4.906 -0.2306  0.5663  0.2291
   96MOL   F19930789   2.397   1.333   4.797  0.3924 -0.0342  0.4124
   96MOL   C20030790   2.401   1.532   4.927  0.0135  0.1078 -0.1773
   96MOL   C20130791   2.360   1.601   5.041  0.0957 -0.3132  0.1965
   96MOL   C20230792   2.284   1.714   5.321  0.4015 -0.0911 -0.0530
   96MOL   H20330793   2.119   1.576   5.284 -1.1817 -0.8363 -1.4962
   96MOL   H20430794   2.150   1.384   5.182 -1.5726 -0.1124 -1.4850
   96MOL   H20530795   2.244   1.245   4.975 -0.6959  1.8948 -2.8322
   96MOL   H20630796   2.461   1.573   4.848  2.9496 -1.8243  0.9337
   96MOL   H20730797   2.400   1.700   5.047 -2.8067  0.9000  0.3850
   96MOL   H20830798   2.346   1.783   5.266  2.3066 -1.4276  0.3772
   96MOL   H20930799   2.212   1.781   5.368  0.0518 -0.4171 -0.1183
   96MOL   C21030800   2.356   1.621   5.428  0.4375  0.3986  0.7838
   96MOL   C21130801   2.499   1.568   5.380  0.4267 -0.8105 -0.1650
   96MOL   C21230802   2.523   1.429   5.404  0.7206 -0.3830  0.9086
   96MOL   C21330803   2.643   1.368   5.373 -0.1038 -0.0254 -0.4087
   96MOL   C21430804   2.742   1.451   5.309 -0.4309 -0.4591  0.1691
   96MOL   F21530805   2.858   1.394   5.265 -0.0707 -0.3346 -0.0925
   96MOL   C21630806   2.717   1.592   5.287 -0.3346 -0.5104  0.1620
   96MOL   C21730807   2.594   1.655   5.320 -0.5890  0.3414 -0.1647
   96MOL   C21830808   2.395   1.709   5.550 -0.4746 -0.5104 -0.1103
   96MOL   H21930809   2.289   1.541   5.459 -0.9185  1.2246  0.0013
   96MOL   H22030810   2.438   1.370   5.435  0.5238  1.0479  3.2130
   96MOL   H22130811   2.659   1.263   5.392 -1.4408 -0.2662 -0.5928
   96MOL   H22230812   2.790   1.657   5.241  0.0097 -0.6391  0.5163
   96MOL   H22330813   2.580   1.759   5.295 -0.8245 -0.1991 -2.4660
   96MOL   H22430814   2.474   1.667   5.612 -1.8717 -2.9631  0.0569
   96MOL   H22530815   2.442   1.795   5.501 -0.0450 -0.2346  0.7811
   96MOL   C22630816   2.281   1.760   5.642  0.3642 -0.1317  0.2045
   96MOL   C22730817   2.225   1.648   5.727 -0.3256 -0.0244 -1.0507
   96MOL   C22830818   2.106   1.581   5.700  0.4824 -0.3866 -0.1610
   96MOL   C22930819   2.052   1.477   5.778  1.0007  0.5155 -0.2468
   96MOL   C23030820   2.126   1.434   5.893 -0.2679 -0.4012  0.0930
   96MOL   F23130821   2.063   1.348   5.979  0.0903 -0.7481 -0.3630
   96MOL   C23230822   2.249   1.496   5.931 -0.0078 -0.1017  0.4352
   96MOL   C23330823   2.293   1.600   5.846 -0.0072 -0.3134  0.4368
   96MOL   C23430824   2.332   1.878   5.732 -0.5749  0.0190 -0.4928
   96MOL   H23530825   2.202   1.797   5.576  0.5951 -1.2229 -0.6958
   96MOL   H23630826   2.045   1.617   5.619 -2.0123 -1.6251  1.0973
   96MOL   H23730827   1.954   1.436   5.757  0.7980  1.4563 -1.1776
   96MOL   H23830828   2.296   1.465   6.023 -0.2787  1.3282  1.0751
   96MOL   H23930829   2.388   1.646   5.868  0.1485  0.3508 -1.5459
   96MOL   H24030830   2.256   1.899   5.807  0.0931  0.2429  0.1220
   96MOL   H24130831   2.422   1.850   5.786  0.4715  0.7050 -1.8483
   96MOL   C24230832   2.350   2.015   5.662  0.6068  0.0325 -0.2001
   96MOL   C24330833   2.238   2.054   5.567  0.7496  0.1834 -0.0869
   96MOL   C24430834   2.104   2.070   5.624  0.1101 -0.0501  0.6177
   96MOL   C24530835   1.998   2.084   5.531  0.1195  0.4476 -0.4077
   96MOL   C24630836   2.016   2.085   5.388  0.4724 -0.0686 -0.2349
   96MOL   F24730837   1.914   2.101   5.306 -0.2374 -0.0664  0.0246
   96MOL   C24830838   2.146   2.065   5.334  0.1728 -0.4237 -0.7952
   96MOL   C24930839   2.253   2.053   5.425 -0.1200  0.0064 -0.0489
   96MOL   C25030840   2.379   2.123   5.770 -0.2158  0.0923  0.1980
   96MOL   H25130841   2.432   1.991   5.595 -1.1967  0.1874 -2.5139
   96MOL   H25230842   2.086   2.045   5.727 -2.6175  0.7925  0.3828
   96MOL   H25330843   1.891   2.089   5.550  0.1676  1.1246 -0.2762
   96MOL   H25430844   2.165   2.054   5.229 -0.6988  0.1521 -1.0117
   96MOL   H25530845   2.348   2.037   5.376 -0.3962  2.6207 -1.5176
   96MOL   H25630846   2.284   2.135   5.822  0.3518  0.0265  1.2615
   96MOL   H25730847   2.447   2.074   5.839 -0.3164 -0.9209 -0.4058
   96MOL   C25830848   2.449   2.257   5.728 -0.0034  0.2940  0.0103
   96MOL   C25930849   2.595   2.234   5.673  0.3788  0.1554 -0.3731
   96MOL   C26030850   2.706   2.226   5.767  0.0398 -0.4211  0.5858
   96MOL   C26130851   2.842   2.225   5.717 -0.0628  0.2540  0.4717
   96MOL   C26230852   2.865   2.224   5.581  0.5321  0.1299 -0.0428
   96MOL   F26330853   2.989   2.233   5.532 -0.3689 -0.2183 -0.2146
   96MOL   C26430854   2.758   2.231   5.492 -0.5471 -0.0733 -0.9083
   96MOL   C26530855   2.624   2.236   5.535 -0.4113 -0.1207 -0.2702
   96MOL   C26630856   2.355   2.348   5.647 -0.1685 -0.0553 -0.0827
   96MOL   H26730857   2.470   2.293   5.829  1.2563  1.9963 -0.8226
   96MOL   H26830858   2.692   2.222   5.874  0.5075  2.8375  0.7922
   96MOL   H26930859   2.928   2.222   5.782 -0.7487  3.4824  1.6086
   96MOL   H27030860   2.787   2.227   5.388 -0.4195 -1.7683 -0.8149
   96MOL   H27130861   2.543   2.239   5.463  0.0106 -2.4759 -0.8837
   96MOL   H27230862   2.344   2.314   5.544  0.8050  0.2731 -0.2961
   96MOL   H27330863   2.262   2.323   5.697  1.6325 -2.0334  2.3891
   96MOL   C27430864   2.401   2.499   5.658  0.4545  0.0550 -0.1588
   96MOL   C27530865   2.516   2.532   5.564 -0.3000  0.2617  0.9643
   96MOL   C27630866   2.636   2.572   5.619  0.3327  0.6771  0.5064
   96MOL   C27730867   2.748   2.602   5.535  0.5820 -0.4616 -0.1518
   96MOL   C27830868   2.735   2.592   5.396 -0.2163  0.0096 -0.1030
   96MOL   F27930869   2.842   2.608   5.319 -0.2690 -0.4946  0.3101
   96MOL   C28030870   2.619   2.550   5.337  0.1670  0.5051 -0.3738
   96MOL   C28130871   2.504   2.520   5.422  0.0041  0.1439  0.8269
   96MOL   C28230872   2.281   2.590   5.627  0.9634  0.3906 -0.5884
   96MOL   H28330873   2.444   2.514   5.757  1.7036  0.8814 -0.8143
   96MOL   H28430874   2.644   2.581   5.727  0.8365 -2.2133  0.7514
   96MOL   H28530875   2.842   2.623   5.583  0.1703  2.7296 -0.6454
   96MOL   H28630876   2.614   2.536   5.230 -1.4163  1.8000 -0.4875
   96MOL   H28730877   2.424   2.471   5.369 -0.6140  0.0092  1.8809
   96MOL   H28830878   2.319   2.692   5.624  2.4703 -0.1048  0.7596
   96MOL   H28930879   2.248   2.554   5.530 -0.4177  0.4594 -0.1560
   96MOL   C29030880   2.165   2.581   5.732  0.4971 -0.3307  0.7310
   96MOL   C29130881   2.213   2.584   5.877 -0.3533 -0.8046  0.2674
   96MOL   C29230882   2.173   2.482   5.970 -0.5156 -0.4268  0.3413
   96MOL   C29330883   2.209   2.479   6.102 -0.7424 -0.2223  0.2957
   96MOL   C29430884   2.295   2.576   6.159  0.0314  0.2381  0.2568
   96MOL   F29530885   2.332   2.573   6.296 -0.3397 -0.1329  0.3093
   96MOL   C29630886   2.342   2.677   6.066 -0.3812  0.0750  0.1619
   96MOL   C29730887   2.302   2.681   5.926 -0.4706 -0.1131 -0.0095
   96MOL   C29830888   2.066   2.704   5.721 -0.7762  0.1560  0.4998
   96MOL   H29930889   2.107   2.491   5.713  1.6774 -0.6365 -1.6187
   96MOL   H30030890   2.100   2.415   5.927 -0.9888 -0.3058  0.9441
   96MOL   H30130891   2.172   2.398   6.162  1.8806 -0.9457  1.0009
   96MOL   H30230892   2.401   2.758   6.107  0.4551 -0.5308  0.1561
   96MOL   H30330893   2.338   2.753   5.855  1.7507  0.3293  1.5184
   96MOL   H30430894   2.018   2.716   5.819  1.1745  0.2260  1.4771
   96MOL   H30530895   2.122   2.797   5.706 -0.2710  0.2685  2.8845
   96MOL   C30630896   1.950   2.694   5.615 -0.3015  0.1021 -0.1339
   96MOL   C30730897   1.876   2.565   5.632  0.1594 -0.1538 -0.7201
   96MOL   C30830898   1.863   2.472   5.527 -0.1487  0.6919 -0.0548
   96MOL   C30930899   1.796   2.351   5.547  0.0592 -0.5478 -0.0773
   96MOL   C31030900   1.743   2.321   5.669 -0.4171  0.1412  0.0259
   96MOL   F31130901   1.665   2.216   5.682  0.0921  0.8221  0.1150
   96MOL   C31230902   1.761   2.404   5.780  0.0073  0.5894 -0.3792
   96MOL   C31330903   1.817   2.536   5.758 -0.2764  0.3738  0.3033
   96MOL   C31430904   1.858   2.822   5.618  0.4772 -0.3669 -0.1764
   96MOL   H31530905   2.002   2.688   5.519  2.3107 -0.3309  1.2504
   96MOL   H31630906   1.908   2.489   5.430  0.3508  1.5397  0.3208
   96MOL   H31730907   1.773   2.276   5.472 -0.4637 -2.2437  1.7329
   96MOL   H31830908   1.722   2.364   5.873  1.5326 -0.5438 -0.1944
   96MOL   H31930909   1.823   2.610   5.836 -1.0990 -1.1601  1.8702
   96MOL   H32030910   1.775   2.822   5.548  0.0842 -1.3189  0.2899
   96MOL   H32130911   1.808   2.830   5.714  0.4523  1.0526 -0.2928
   96MOL   H32230912   1.914   2.913   5.594  0.8826 -0.1194  1.6084
   97MOL     C130913   8.052   2.287   6.390  0.5268 -0.5467 -0.4818
   97MOL     C230914   7.991   2.167   6.462  0.5241  0.7273  0.0866
   97MOL     C330915   7.918   2.070   6.390 -0.7933 -0.5742  0.2562
   97MOL     C430916   7.858   1.963   6.456  0.0086  0.4395 -0.4930
   97MOL     C530917   7.876   1.946   6.594  1.0271  0.6490  0.0421
   97MOL     F630918   7.817   1.838   6.651 -0.6434 -0.0613  0.4090
   97MOL     C730919   7.935   2.044   6.670 -0.2335  0.1279  0.0013
   97MOL     C830920   8.000   2.148   6.604  0.1557 -0.0149  0.2603
   97MOL     C930921   8.192   2.249   6.337 -0.8789 -0.7100 -0.5522
   97MOL    H1030922   8.060   2.366   6.465  0.6074 -1.2874  0.2996
   97MOL    H1130923   7.902   2.082   6.284  0.5426 -1.9118 -0.1193
   97MOL    H1230924   7.808   1.884   6.403 -0.2352  0.2701 -0.0199
   97MOL    H1330925   7.938   2.035   6.778 -1.6591 -3.8194 -0.2077
   97MOL    H1430926   8.055   2.218   6.665 -1.7317  1.0927  0.7590
   97MOL    H1530927   0.016   2.240   6.429  0.6321 -0.7153 -1.5014
   97MOL    H1630928   8.208   2.155   6.284  1.5085  0.0217 -1.1830
   97MOL    H1730929   7.986   2.315   6.308 -0.2542  0.6566  0.5223
   97MOL    C1830930   0.024   2.353   6.246 -0.5330  0.4334 -0.4732
   97MOL    C1930931   0.177   2.320   6.230 -0.1008 -0.4774  0.3173
   97MOL    C2030932   0.279   2.400   6.290  0.6909 -0.2304  0.2341
   97MOL    C2130933   0.412   2.371   6.273  0.4004  0.4981  1.6164
   97MOL    C2230934   0.447   2.266   6.191 -0.5326  0.7665 -0.2932
   97MOL    F2330935   0.579   2.241   6.168 -0.1569 -0.2979 -0.1659
   97MOL    C2430936   0.348   2.185   6.131  0.1348  0.5585 -0.2518
   97MOL    C2530937   0.218   2.207   6.159 -0.0242 -0.8406  0.0707
   97MOL    C2630938   8.183   2.372   6.116  0.2817 -0.1387  0.1867
   97MOL    H2730939   0.030   2.450   6.295  1.7192  0.1626 -0.1496
   97MOL    H2830940   0.258   2.484   6.355 -1.6996 -1.3326  0.9297
   97MOL    H2930941   0.484   2.447   6.302  0.6134  1.5048 -1.4282
   97MOL    H3030942   0.364   2.104   6.061  0.2437 -1.6700  2.2435
   97MOL    H3130943   0.145   2.145   6.108 -2.2772  0.5941  1.4789
   97MOL    H3230944   8.173   2.275   6.069  2.8886 -0.7875  0.8935
   97MOL    H3330945   8.087   2.415   6.145  0.8849  1.8927 -0.7385
   97MOL    C3430946   0.026   2.469   6.009  0.1674 -0.4569  0.0285
   97MOL    C3530947   8.190   2.467   5.877  0.0036 -0.3062 -0.8574
   97MOL    C3630948   8.051   2.511   5.856 -0.0556  0.3876  0.2466
   97MOL    C3730949   7.979   2.479   5.740 -0.2823  0.5895  1.0303
   97MOL    C3830950   8.047   2.420   5.632 -0.0148 -0.5226 -1.0054
   97MOL    F3930951   7.983   2.397   5.514 -0.0201  0.8817 -0.2176
   97MOL    C4030952   8.183   2.379   5.646  0.0322 -0.0954 -0.2365
   97MOL    C4130953   0.015   2.402   5.767  0.0985 -0.2494  0.3079
   97MOL    C4230954   0.041   2.613   6.068  0.2446  0.7097 -0.3221
   97MOL    H4330955   0.126   2.428   6.001 -0.2109 -1.1317 -1.3013
   97MOL    H4430956   7.998   2.558   5.937 -1.3956  0.0814 -0.4284
   97MOL    H4530957   7.876   2.505   5.721 -0.1804  0.3830  0.1974
   97MOL    H4630958   8.230   2.320   5.569  0.5035  2.6555 -2.1381
   97MOL    H4730959   0.114   2.360   5.764  0.1457 -0.1853  0.8001
   97MOL    H4830960   8.183   2.647   6.114  1.2712 -1.8035  3.9149
   97MOL    H4930961   0.109   2.616   6.152 -0.1304  0.5204 -0.0113
   97MOL    C5030962   0.063   2.717   5.958 -0.3554  0.0674  0.2692
   97MOL    C5130963   0.022   2.850   6.028 -0.0332  0.1705 -0.2519
   97MOL    C5230964   0.117   2.922   6.102 -0.0932  0.7024 -0.2444
   97MOL    C5330965   0.083   3.043   6.150  0.1639  0.4803 -0.5424
   97MOL    C5430966   8.183   3.092   6.135  0.4229  0.3443 -0.4869
   97MOL    F5530967   8.150   3.209   6.192  0.6635 -1.0690  0.4983
   97MOL    C5630968   8.089   3.030   6.053 -0.2306  0.5788  0.6458
   97MOL    C5730969   8.118   2.896   6.009  0.3587 -0.3548 -0.8242
   97MOL    C5830970   0.205   2.709   5.900  0.1464 -0.4823  0.7060
   97MOL    H5930971   8.223   2.712   5.879  1.7625 -0.5305 -1.7690
   97MOL    H6030972   0.218   2.886   6.116 -0.2741  0.0661 -0.5468
   97MOL    H6130973   0.161   3.095   6.203  1.8496 -0.6969 -1.8204
   97MOL    H6230974   7.992   3.074   6.036  0.5364  1.9705 -0.1543
   97MOL    H6330975   8.046   2.825   5.969  0.5469 -0.2103 -1.4206
   97MOL    H6430976   0.283   2.737   5.971  0.1419  1.4886 -0.0355
   97MOL    H6530977   0.242   2.609   5.877  2.8684  0.8660 -1.1021
   97MOL    C6630978   0.212   2.806   5.776  0.1898  0.0592 -0.4512
   97MOL    C6730979   0.348   2.869   5.762 -0.2554  0.3962 -0.1521
   97MOL    C6830980   0.368   3.012   5.759  0.2981 -0.2308 -0.5187
   97MOL    C6930981   0.494   3.069   5.748 -0.1600  0.8048 -1.1003
   97MOL    C7030982   0.608   2.981   5.744 -0.4641 -0.6124  0.1946
   97MOL    F7130983   0.731   3.026   5.730 -0.3775 -0.1553 -0.2619
   97MOL    C7230984   0.592   2.841   5.735 -0.3318 -0.7672  0.7888
   97MOL    C7330985   0.463   2.784   5.742  0.5023 -0.2274 -0.1187
   97MOL    C7430986   0.161   2.743   5.644 -0.1256 -0.1869  0.8771
   97MOL    H7530987   0.146   2.888   5.805  0.0386 -0.8517  1.8919
   97MOL    H7630988   0.288   3.084   5.763 -1.7298 -2.4125 -0.2988
   97MOL    H7730989   0.503   3.175   5.768  0.5559  0.6123 -0.3717
   97MOL    H7830990   0.683   2.785   5.722 -0.4516 -0.7425 -0.1943
   97MOL    H7930991   0.451   2.679   5.723 -1.6146 -0.1698  0.7705
   97MOL    H8030992   0.249   2.701   5.597 -1.2813 -2.7004  0.8807
   97MOL    H8130993   0.105   2.652   5.667 -0.7255 -0.2109 -0.6227
   97MOL    C8230994   0.076   2.827   5.538  0.0900  0.2108 -0.1464
   97MOL    C8330995   0.144   2.963   5.504  0.0777 -0.4820 -0.2962
   97MOL    C8430996   0.266   2.963   5.427 -0.3582  0.5141  0.3740
   97MOL    C8530997   0.330   3.085   5.379  0.2692 -0.2454  0.5225
   97MOL    C8630998   0.259   3.204   5.416 -0.0879 -0.0207 -0.1474
   97MOL    F8730999   0.321   3.317   5.374 -0.4374  0.2727  0.2014
   97MOL    C8831000   0.138   3.210   5.493  0.6515  0.3073 -0.0126
   97MOL    C8931001   0.080   3.088   5.531 -0.7868  0.4067  0.4594
   97MOL    C9031002   0.037   2.743   5.411 -0.0275  0.2797  0.3421
   97MOL    H9131003   8.222   2.853   5.596  0.3262  1.0049 -0.1331
   97MOL    H9231004   0.311   2.866   5.409  0.5526  1.0835 -0.4604
   97MOL    H9331005   0.420   3.091   5.320  1.4135 -1.0840  2.1419
   97MOL    H9431006   0.099   3.304   5.528 -0.6040  0.7782 -2.5948
   97MOL    H9531007   8.219   3.093   5.581 -1.2321 -1.1643 -0.2103
   97MOL    H9631008   0.125   2.684   5.386 -0.5818 -1.0883  1.5415
   97MOL    H9731009   8.190   2.678   5.443  0.3857  0.1211  1.0834
   97MOL    C9831010   8.217   2.813   5.279 -0.9334  0.0075 -0.8741
   97MOL    C9931011   8.232   2.710   5.160 -0.3479 -0.4988 -0.1867
   97MOL   C10031012   0.070   2.747   5.047  0.5111  0.6006  0.1969
   97MOL   C10131013   0.102   2.656   4.945  0.6890 -0.9172 -0.0005
   97MOL   C10231014   0.035   2.531   4.947 -0.1478  0.2343  0.9088
   97MOL   F10331015   0.045   2.437   4.849 -0.1846  0.1427  0.1669
   97MOL   C10431016   8.193   2.493   5.059 -0.0953 -0.3776 -0.2076
   97MOL   C10531017   8.181   2.584   5.169  0.1479 -0.9354  0.5160
   97MOL   C10631018   8.076   2.861   5.298 -0.2601  0.7855  0.0166
   97MOL   H10731019   0.048   2.897   5.255  0.6588 -0.4897  1.5270
   97MOL   H10831020   0.123   2.841   5.044 -0.0127  0.8405 -1.5628
   97MOL   H10931021   0.153   2.680   4.854  1.4883 -0.7130  0.4976
   97MOL   H11031022   8.144   2.397   5.062  1.4458 -1.1687  3.7294
   97MOL   H11131023   8.118   2.559   5.253 -0.8884  1.2158  0.4231
   97MOL   H11231024   8.006   2.782   5.327  1.9914 -1.0443  0.6090
   97MOL   H11331025   8.088   2.920   5.389  1.5160  1.7770 -0.8512
   97MOL   C11431026   8.011   2.951   5.193 -0.4424 -0.7088  0.3842
   97MOL   C11531027   8.107   3.044   5.114  0.0519 -0.1782  0.0280
   97MOL   C11631028   8.135   3.019   4.978  0.4035  0.5502  0.3531
   97MOL   C11731029   8.203   3.115   4.899  0.2103 -0.5070 -0.7243
   97MOL   C11831030   0.017   3.235   4.960 -0.7869  0.0076  0.0810
   97MOL   F11931031   0.077   3.321   4.874  0.6261 -0.1289  0.6628
   97MOL   C12031032   8.229   3.260   5.099  0.7478  1.2434  0.5792
   97MOL   C12131033   8.162   3.159   5.174 -0.0231 -0.2551 -0.0367
   97MOL   C12231034   7.918   2.866   5.099 -0.1584  0.2131  0.2504
   97MOL   H12331035   7.950   3.021   5.250  0.0898 -0.8021  1.0692
   97MOL   H12431036   8.095   2.930   4.932 -0.0666 -0.7851  3.2172
   97MOL   H12531037   8.206   3.100   4.792  0.7339  1.1068 -0.9394
   97MOL   H12631038   0.021   3.347   5.157  0.3988  0.7155  1.5328
   97MOL   H12731039   8.148   3.180   5.279 -0.0230 -0.0386 -0.0811
   97MOL   H12831040   7.895   2.936   5.018 -1.5841  1.2548  1.5200
   97MOL   H12931041   7.974   2.785   5.052 -1.8007  0.2992 -1.9646
   97MOL   C13031042   7.791   2.809   5.168 -0.2159 -0.2573  0.4537
   97MOL   C13131043   7.711   2.917   5.239 -0.2206  0.1385 -0.0520
   97MOL   C13231044   7.664   3.036   5.177 -0.2232 -0.1980 -0.1477
   97MOL   C13331045   7.587   3.132   5.241 -0.8901  0.3191  0.4075
   97MOL   C13431046   7.559   3.110   5.382  0.2803 -0.2777 -0.2542
   97MOL   F13531047   7.521   3.218   5.459 -0.0150  0.5649  0.4053
   97MOL   C13631048   7.598   2.990   5.438  0.6661  0.0204 -0.3505
   97MOL   C13731049   7.679   2.896   5.376  1.0530  0.3034  0.2136
   97MOL   C13831050   7.698   2.751   5.060 -0.8546 -0.1574 -0.0669
   97MOL   H13931051   7.817   2.732   5.241 -1.3182 -1.1182 -0.0436
   97MOL   H14031052   7.700   3.057   5.077  0.1053 -2.2035 -0.4604
   97MOL   H14131053   7.560   3.227   5.198 -0.6560  0.2439  0.0982
   97MOL   H14231054   7.567   2.966   5.539 -0.6191  1.3329 -0.4160
   97MOL   H14331055   7.727   2.820   5.434  0.1150 -0.1124  0.4542
   97MOL   H14431056   7.593   2.750   5.090 -1.9632  0.7500 -3.6282
   97MOL   H14531057   7.687   2.812   4.971 -1.0108 -0.8322 -0.5127
   97MOL   C14631058   7.736   2.597   5.027  0.7136 -0.4732 -0.1235
   97MOL   C14731059   7.687   2.518   5.147  0.2020 -0.1236  0.6599
   97MOL   C14831060   7.781   2.456   5.229  0.3316  0.2244 -0.5915
   97MOL   C14931061   7.737   2.368   5.324  0.0248 -0.1089  0.0618
   97MOL   C15031062   7.602   2.348   5.349  0.3481 -0.0646 -0.3643
   97MOL   F15131063   7.565   2.280   5.454  0.3995 -0.6195 -0.8450
   97MOL   C15231064   7.508   2.418   5.273  0.2306  0.6403 -0.0836
   97MOL   C15331065   7.552   2.502   5.171  0.1466  0.5242  0.2805
   97MOL   C15431066   7.674   2.559   4.888  0.2399 -0.2839  0.1586
   97MOL   H15531067   7.845   2.590   5.022  0.7596 -0.2362  0.5945
   97MOL   H15631068   7.888   2.464   5.215  0.3483  1.3419  0.1343
   97MOL   H15731069   7.803   2.300   5.377  1.2420  2.1760  1.5949
   97MOL   H15831070   7.401   2.417   5.285  0.3828 -0.7514  1.2698
   97MOL   H15931071   7.479   2.540   5.101 -2.6843 -0.8791  2.3630
   97MOL   H16031072   7.593   2.487   4.896 -0.0940  0.0689 -0.0581
   97MOL   H16131073   7.634   2.651   4.846 -2.2649 -0.4987  1.9641
   97MOL   C16231074   7.782   2.491   4.787 -0.2330  0.3188 -0.3999
   97MOL   C16331075   7.812   2.353   4.825 -0.3697 -0.3468  0.7367
   97MOL   C16431076   7.936   2.308   4.867 -0.7015 -0.4111  0.0322
   97MOL   C16531077   7.958   2.180   4.913  0.3311  0.8390 -0.0225
   97MOL   C16631078   7.858   2.081   4.893 -0.6170 -0.2714 -0.4066
   97MOL   F16731079   7.887   1.954   4.924 -0.2183  0.2967  0.4155
   97MOL   C16831080   7.735   2.126   4.849 -0.5179  0.0581 -0.8225
   97MOL   C16931081   7.703   2.262   4.824  0.3364  0.2596 -0.4213
   97MOL   C17031082   7.719   2.499   4.644 -0.5000 -0.3121  0.3119
   97MOL   H17131083   7.877   2.545   4.797  0.3946 -0.8921  0.1581
   97MOL   H17231084   8.016   2.381   4.865 -0.0661 -1.0401  1.4733
   97MOL   H17331085   8.060   2.159   4.944  0.2860 -2.3926 -1.7711
   97MOL   H17431086   7.654   2.054   4.848 -0.7061  0.1679  1.8023
   97MOL   H17531087   7.602   2.294   4.806  0.8694  2.8785  0.9534
   97MOL   H17631088   7.764   2.424   4.579 -0.0756 -0.6909  1.0299
   97MOL   H17731089   7.611   2.484   4.647 -0.1428 -2.9233  0.8921
   97MOL   C17831090   7.737   2.634   4.575 -0.2113 -0.6194 -0.5809
   97MOL   C17931091   7.875   2.702   4.595 -0.0728  0.2535  0.0534
   97MOL   C18031092   7.884   2.824   4.671  0.3869  0.8956  0.0911
   97MOL   C18131093   8.002   2.892   4.687  0.2229 -0.0646 -0.1340
   97MOL   C18231094   8.115   2.829   4.634  0.0523 -0.2433 -0.1119
   97MOL   F18331095   0.006   2.894   4.660  0.5728  0.3423 -0.5013
   97MOL   C18431096   8.108   2.703   4.568 -0.0871  0.5729 -0.5483
   97MOL   C18531097   7.987   2.635   4.551  0.4045  0.4341 -0.1458
   97MOL   C18631098   7.702   2.627   4.420 -0.3187 -0.5833 -0.3176
   97MOL   H18731099   7.665   2.701   4.621 -0.1096 -1.1526  0.3616
   97MOL   H18831100   7.796   2.871   4.713 -0.7559 -0.2292 -1.0035
   97MOL   H18931101   8.012   2.982   4.746 -0.3643  1.1566 -1.8470
   97MOL   H19031102   8.199   2.653   4.537  1.3680  1.9536  1.3631
   97MOL   H19131103   7.988   2.539   4.502  0.3318  0.4854 -0.2478
   97MOL   H19231104   7.762   2.550   4.370  0.9707 -0.4046  0.9149
   97MOL   H19331105   7.599   2.590   4.419 -0.9399  1.1141 -0.8443
   97MOL   C19431106   7.721   2.748   4.328 -0.7523  0.3341 -0.8400
   97MOL   C19531107   7.707   2.706   4.182  1.0231  0.3414  0.5738
   97MOL   C19631108   7.812   2.675   4.106  0.1177  0.3267 -0.3714
   97MOL   C19731109   7.796   2.623   3.977 -0.9305 -0.9536 -0.0292
   97MOL   C19831110   7.669   2.610   3.918  0.4859 -0.5972 -0.0935
   97MOL   F19931111   7.651   2.559   3.796 -0.9907 -0.2968 -0.4418
   97MOL   C20031112   7.555   2.640   3.997  0.9110 -0.2268 -0.5883
   97MOL   C20131113   7.576   2.688   4.127  0.2242 -0.1888 -0.4130
   97MOL   C20231114   7.639   2.863   4.375  0.6928  0.4238  0.9320
   97MOL   H20331115   7.823   2.777   4.353  0.0047 -2.0634 -1.0646
   97MOL   H20431116   7.910   2.682   4.151 -1.1180  0.7717  2.3650
   97MOL   H20531117   7.886   2.598   3.922 -0.3601  0.5363  0.1829
   97MOL   H20631118   7.457   2.621   3.957  1.2046  0.8977 -1.9173
   97MOL   H20731119   7.487   2.697   4.186  1.0868 -0.0300  0.8823
   97MOL   H20831120   7.541   2.834   4.337  0.3176  0.5088  1.8280
   97MOL   H20931121   7.626   2.850   4.482  2.8005 -1.0572  1.0384
   97MOL   C21031122   7.670   3.014   4.351  0.1808 -0.6806  0.4597
   97MOL   C21131123   7.699   3.040   4.207  0.3915 -0.7145  0.0196
   97MOL   C21231124   7.825   3.094   4.176 -0.5924 -0.2592  0.4375
   97MOL   C21331125   7.862   3.117   4.043  0.0334 -0.0299 -0.0958
   97MOL   C21431126   7.766   3.103   3.938 -1.2016  0.5198  0.1213
   97MOL   F21531127   7.802   3.132   3.814  0.4444  0.1562 -0.0220
   97MOL   C21631128   7.636   3.058   3.967  0.3590 -0.0316 -0.1128
   97MOL   C21731129   7.600   3.029   4.104  0.5658  0.3223  0.6845
   97MOL   C21831130   7.566   3.106   4.416 -0.0852  0.2203  0.3897
   97MOL   H21931131   7.756   3.031   4.416  0.1853 -0.9677  0.5289
   97MOL   H22031132   7.888   3.121   4.260 -0.4044  0.4531  0.0738
   97MOL   H22131133   7.960   3.160   4.028  0.3020 -0.4362  0.4883
   97MOL   H22231134   7.574   3.046   3.879  0.8565  0.7582 -0.5796
   97MOL   H22331135   7.506   2.978   4.122  0.3132  0.8896  1.0066
   97MOL   H22431136   7.472   3.107   4.360  0.7315 -1.1621 -1.0533
   97MOL   H22531137   7.529   3.056   4.506  1.6930  1.1866  1.6938
   97MOL   C22631138   7.612   3.252   4.461  0.3241 -0.1129 -0.2407
   97MOL   C22731139   7.642   3.360   4.354  0.8243 -0.4042 -0.2641
   97MOL   C22831140   7.721   3.470   4.385  0.0322  0.4533 -0.1988
   97MOL   C22931141   7.735   3.577   4.294 -0.7912  0.7087 -0.5980
   97MOL   C23031142   7.662   3.572   4.176 -0.2747 -0.0999 -1.0937
   97MOL   F23131143   7.655   3.686   4.104  0.0466 -0.2989  0.1914
   97MOL   C23231144   7.585   3.460   4.138  0.8801  0.4100 -0.1011
   97MOL   C23331145   7.576   3.356   4.229 -0.4666  0.1141  0.1994
   97MOL   C23431146   7.517   3.304   4.567  0.7760 -0.1414  0.5648
   97MOL   H23531147   7.708   3.234   4.509 -0.4337  1.5492  1.9358
   97MOL   H23631148   7.766   3.484   4.483 -1.2807 -1.6960  0.7586
   97MOL   H23731149   7.798   3.658   4.326  1.3279 -0.4541 -1.7221
   97MOL   H23831150   7.518   3.466   4.054 -1.6826 -0.3996  1.8036
   97MOL   H23931151   7.512   3.276   4.197 -0.6230 -0.0476  0.9092
   97MOL   H24031152   7.524   3.413   4.574 -0.7256 -0.0888  1.3455
   97MOL   H24131153   7.415   3.283   4.536  1.5716 -1.2492 -1.3328
   97MOL   C24231154   7.541   3.270   4.719  0.1805 -0.3960  0.4576
   97MOL   C24331155   7.671   3.336   4.773  0.1241  0.4509  0.2321
   97MOL   C24431156   7.792   3.265   4.788 -0.6631  0.1864  0.0829
   97MOL   C24531157   7.908   3.324   4.844 -0.0256 -0.9147  0.3382
   97MOL   C24631158   7.896   3.450   4.898  0.6881  0.8531 -0.2705
   97MOL   F24731159   8.004   3.494   4.963 -0.4668 -0.1335  0.4210
   97MOL   C24831160   7.779   3.525   4.884 -0.4068  0.2335 -0.3409
   97MOL   C24931161   7.665   3.468   4.825 -0.3858 -0.7580  0.0612
   97MOL   C25031162   7.417   3.314   4.806  0.2416  0.6922  0.2216
   97MOL   H25131163   7.571   3.166   4.724  0.0828 -0.6543 -3.3061
   97MOL   H25231164   7.802   3.161   4.762  2.5987  0.7100 -1.0021
   97MOL   H25331165   7.996   3.264   4.860  0.3590 -0.3699  0.3006
   97MOL   H25431166   7.789   3.630   4.910  2.1747  1.1051 -4.4787
   97MOL   H25531167   7.579   3.531   4.806  1.1623  1.3410 -0.1236
   97MOL   H25631168   7.437   3.287   4.910 -0.8685 -0.3176  0.1819
   97MOL   H25731169   7.380   3.416   4.793 -1.0337  0.2032 -0.0354
   97MOL   C25831170   7.289   3.224   4.770 -0.2378  0.2369 -0.0437
   97MOL   C25931171   7.324   3.073   4.748 -0.2560 -0.2916  0.1045
   97MOL   C26031172   7.303   3.006   4.627  0.5231  0.7307  0.0117
   97MOL   C26131173   7.334   2.868   4.622 -0.1228  0.3961 -0.6750
   97MOL   C26231174   7.374   2.796   4.737  0.1772 -0.1236 -0.6092
   97MOL   F26331175   7.399   2.661   4.733  0.4934 -0.5373  0.2535
   97MOL   C26431176   7.385   2.866   4.861  0.6604 -0.1760  0.1571
   97MOL   C26531177   7.368   3.003   4.864 -0.5308  0.2506  0.6940
   97MOL   C26631178   7.189   3.234   4.884  0.8764 -0.6304  0.0248
   97MOL   H26731179   7.244   3.273   4.683 -1.6453 -0.2548  0.3804
   97MOL   H26831180   7.260   3.063   4.546  2.1004  4.0015  1.3506
   97MOL   H26931181   7.312   2.810   4.534  0.1459 -4.7168  2.3873
   97MOL   H27031182   7.424   2.811   4.945  0.1244 -0.9761 -0.1061
   97MOL   H27131183   7.392   3.059   4.954  1.1610 -2.0070  1.7094
   97MOL   H27231184   7.212   3.191   4.982 -0.6265 -0.6796  0.3722
   97MOL   H27331185   7.182   3.340   4.905  0.2606 -0.5343 -0.6416
   97MOL   C27431186   7.048   3.186   4.840 -0.2397 -0.2585 -0.0066
   97MOL   C27531187   6.995   3.068   4.908  0.3603 -0.5570 -0.5304
   97MOL   C27631188   6.999   3.061   5.047 -0.1881  0.0078  0.1649
   97MOL   C27731189   6.946   2.950   5.114 -0.9637  0.0359  0.0327
   97MOL   C27831190   6.888   2.844   5.041  0.2163 -0.0918  0.2200
   97MOL   F27931191   6.854   2.725   5.111 -0.1267 -0.3486 -0.2166
   97MOL   C28031192   6.866   2.864   4.899  0.2812  0.7048  0.4852
   97MOL   C28131193   6.919   2.976   4.834 -0.6951  0.3864 -0.5060
   97MOL   C28231194   6.937   3.299   4.867 -0.1312 -0.8219  0.4845
   97MOL   H28331195   7.049   3.172   4.732  0.7095  2.9010 -0.4625
   97MOL   H28431196   7.047   3.135   5.109 -2.0198  1.8686 -0.6060
   97MOL   H28531197   6.957   2.934   5.220 -0.5024 -1.2183 -0.1993
   97MOL   H28631198   6.810   2.799   4.833 -0.3831  1.1453  0.6087
   97MOL   H28731199   6.904   2.983   4.727  1.1439  2.0534 -0.6714
   97MOL   H28831200   6.845   3.260   4.824  0.1822  1.2219 -2.1863
   97MOL   H28931201   6.924   3.309   4.975  0.0625 -0.1212  0.4432
   97MOL   C29031202   6.956   3.443   4.810  0.2760 -0.8170 -0.3034
   97MOL   C29131203   7.009   3.455   4.674 -0.3383 -0.7823  0.0660
   97MOL   C29231204   7.127   3.525   4.647 -0.1766 -0.5782  0.1628
   97MOL   C29331205   7.173   3.542   4.515 -0.2926  0.4541  0.1702
   97MOL   C29431206   7.116   3.472   4.407  0.3723 -0.4177 -0.8776
   97MOL   F29531207   7.166   3.484   4.280  0.0684  0.1921 -0.2042
   97MOL   C29631208   6.998   3.399   4.432  0.3592 -0.6643 -0.2462
   97MOL   C29731209   6.945   3.390   4.562  0.4165 -0.4613  0.0933
   97MOL   C29831210   6.822   3.511   4.808  0.5823 -0.5318  0.1764
   97MOL   H29931211   7.022   3.502   4.872 -2.4852  2.1218 -0.0273
   97MOL   H30031212   7.177   3.585   4.721  1.1171 -1.6802  0.2039
   97MOL   H30131213   7.257   3.608   4.500 -0.5690  0.8227  0.2194
   97MOL   H30231214   6.933   3.351   4.361 -0.3285  0.0667 -0.1186
   97MOL   H30331215   6.854   3.339   4.591  1.9453 -2.4091  1.5047
   97MOL   H30431216   6.823   3.592   4.735  1.2236  0.9844  1.8227
   97MOL   H30531217   6.746   3.452   4.757 -2.1094  2.5168  0.4529
   97MOL   C30631218   6.779   3.566   4.950 -0.4142 -0.5622  0.2851
   97MOL   C30731219   6.862   3.684   5.011  0.4615 -0.5286 -0.0978
   97MOL   C30831220   6.944   3.763   4.937 -0.7716 -0.6479  0.2412
   97MOL   C30931221   7.008   3.876   4.975 -0.0158  0.3356 -0.0573
   97MOL   C31031222   6.984   3.916   5.110 -0.8916 -0.8707  0.3391
   97MOL   F31131223   7.018   4.037   5.152  0.0248 -0.5298 -0.4048
   97MOL   C31231224   6.902   3.840   5.191 -0.7931  0.1236 -0.6175
   97MOL   C31331225   6.847   3.718   5.147 -0.1529  0.5034 -0.3848
   97MOL   C31431226   6.629   3.610   4.948  0.1324 -0.0247  0.2311
   97MOL   H31531227   6.790   3.486   5.024 -1.2888  1.8430  3.1375
   97MOL   H31631228   6.965   3.733   4.836 -0.6867 -3.0788  0.9450
   97MOL   H31731229   7.061   3.939   4.905  0.3503  0.0269 -0.0605
   97MOL   H31831230   6.894   3.868   5.295  2.9083 -0.5657 -0.0662
   97MOL   H31931231   6.797   3.655   5.218 -0.5322 -1.2294 -2.1364
   97MOL   H32031232   6.593   3.658   5.038  0.3068  1.1549 -0.3196
   97MOL   H32131233   6.605   3.671   4.861 -0.6482 -1.5686 -0.6754
   97MOL   H32231234   6.572   3.517   4.941  1.7451 -1.0675  0.5956
   98MOL     C131235   2.375   2.975   1.280  0.2499 -0.1806  0.1357
   98MOL     C231236   2.491   2.885   1.290 -0.0926  0.1047 -0.2570
   98MOL     C331237   2.493   2.771   1.376  0.1096  0.0866 -0.4478
   98MOL     C431238   2.619   2.705   1.394  0.5965 -0.0309 -0.5089
   98MOL     C531239   2.736   2.746   1.327  0.2369  0.1722 -0.4047
   98MOL     F631240   2.850   2.676   1.349  0.3459  0.1614  0.1210
   98MOL     C731241   2.731   2.849   1.233 -0.4305 -0.1324 -0.4594
   98MOL     C831242   2.610   2.923   1.226  0.5208 -0.1344  0.2273
   98MOL     C931243   2.372   3.095   1.377 -0.2819 -0.7927  0.4754
   98MOL    H1031244   2.289   2.910   1.298  0.5840 -0.4809  0.6324
   98MOL    H1131245   2.401   2.745   1.425 -0.2575  3.3936  0.7279
   98MOL    H1231246   2.627   2.612   1.450  0.2179 -1.3156 -2.5338
   98MOL    H1331247   2.812   2.880   1.169 -2.2420  1.0866 -2.2399
   98MOL    H1431248   2.615   3.005   1.157 -0.9583  1.4349  1.9474
   98MOL    H1531249   2.382   3.055   1.478  0.0522 -4.0310 -0.7755
   98MOL    H1631250   2.449   3.166   1.346 -0.4439 -0.6954  0.2980
   98MOL    H1731251   2.360   3.013   1.179 -0.2923  1.2979  0.7645
   98MOL    C1831252   2.245   3.179   1.379  0.1260 -0.4838  0.4208
   98MOL    C1931253   2.134   3.092   1.415  0.0885  0.4073  0.1307
   98MOL    C2031254   2.043   3.041   1.319  0.6736 -0.6803 -0.1531
   98MOL    C2131255   1.930   2.968   1.367  0.1360 -0.7248  0.2534
   98MOL    C2231256   1.914   2.937   1.501  0.4205 -0.0827 -0.7060
   98MOL    F2331257   1.802   2.877   1.545 -0.0533  0.5576 -0.3320
   98MOL    C2431258   2.012   2.980   1.592  0.3938 -0.7692 -0.4031
   98MOL    C2531259   2.119   3.058   1.549  0.0746  0.3007 -0.1591
   98MOL    C2631260   2.253   3.315   1.444  0.2950 -0.5851  0.0900
   98MOL    H2731261   2.229   3.196   1.272 -2.0695 -0.4725  0.7166
   98MOL    H2831262   2.063   3.069   1.216 -1.2415 -1.6424 -0.8134
   98MOL    H2931263   1.857   2.946   1.290 -0.8350 -0.0993  0.9792
   98MOL    H3031264   2.012   2.953   1.697 -2.0359 -1.3865 -0.5171
   98MOL    H3131265   2.181   3.098   1.628 -0.0841  1.9600 -0.8586
   98MOL    H3231266   2.167   3.360   1.492 -0.1064 -1.5723  0.3186
   98MOL    H3331267   2.324   3.304   1.527  1.3544 -0.6934 -0.8215
   98MOL    C3431268   2.316   3.417   1.344  0.3506 -0.4770  0.1928
   98MOL    C3531269   2.217   3.469   1.244  0.1566  0.4772  0.4351
   98MOL    C3631270   2.108   3.547   1.287  0.1350  0.3902  0.4353
   98MOL    C3731271   2.020   3.609   1.192 -0.4141  0.7650 -0.2644
   98MOL    C3831272   2.042   3.589   1.062  0.7608  0.1405  0.1923
   98MOL    F3931273   1.958   3.643   0.975 -0.5127 -0.4552  0.5532
   98MOL    C4031274   2.140   3.505   1.015  0.3279 -0.1450  0.1478
   98MOL    C4131275   2.235   3.456   1.107 -0.3406  0.7642 -0.1647
   98MOL    C4231276   2.391   3.545   1.397  0.6301  0.0256  0.1081
   98MOL    H4331277   2.394   3.365   1.288 -0.6079 -0.7271 -0.9521
   98MOL    H4431278   2.083   3.557   1.392 -2.6730 -0.5693 -0.0902
   98MOL    H4531279   1.942   3.675   1.225 -0.9342 -0.2304  0.5255
   98MOL    H4631280   2.146   3.467   0.914 -0.0482 -0.6398  0.3064
   98MOL    H4731281   2.313   3.394   1.067 -1.0880 -0.4590  0.2443
   98MOL    H4831282   2.431   3.595   1.309 -0.0069  0.4114  0.0402
   98MOL    H4931283   2.320   3.612   1.443 -0.5943 -1.9172  1.1134
   98MOL    C5031284   2.507   3.520   1.496 -0.3648 -0.1151 -0.8195
   98MOL    C5131285   2.609   3.431   1.432 -0.1427 -0.0905  0.2494
   98MOL    C5231286   2.615   3.299   1.480 -0.1250  0.6213 -0.2971
   98MOL    C5331287   2.703   3.204   1.422 -0.7254 -0.2331  0.6477
   98MOL    C5431288   2.795   3.248   1.326  0.9074  0.7355  0.5861
   98MOL    F5531289   2.890   3.168   1.290  0.1735  0.5642  0.5566
   98MOL    C5631290   2.796   3.378   1.288 -0.0927  0.0592 -0.0387
   98MOL    C5731291   2.701   3.470   1.333 -0.8968  0.4247 -0.7082
   98MOL    C5831292   2.552   3.656   1.554  0.1872 -0.2549  0.3229
   98MOL    H5931293   2.471   3.468   1.585  0.4647  2.2369  0.9647
   98MOL    H6031294   2.548   3.269   1.559 -2.1575 -1.5078 -2.7157
   98MOL    H6131295   2.714   3.104   1.461 -0.9061 -0.5110 -0.0270
   98MOL    H6231296   2.882   3.409   1.232  0.1085  0.2651  0.3820
   98MOL    H6331297   2.709   3.577   1.320 -0.7571  0.5153  0.1005
   98MOL    H6431298   2.656   3.648   1.587 -0.1119 -0.2136  1.2830
   98MOL    H6531299   2.551   3.727   1.472 -2.5167 -0.6946 -0.0621
   98MOL    C6631300   2.466   3.706   1.678 -0.1824 -0.6386  0.1547
   98MOL    C6731301   2.503   3.633   1.804 -0.3850  0.3442 -0.3387
   98MOL    C6831302   2.633   3.628   1.856 -0.0813  0.4257  0.2790
   98MOL    C6931303   2.659   3.559   1.978  0.2656 -0.3690  0.2970
   98MOL    C7031304   2.550   3.498   2.044 -0.6337  0.6297 -0.0444
   98MOL    F7131305   2.570   3.428   2.161  0.2640 -0.1422  0.3078
   98MOL    C7231306   2.424   3.494   1.988 -0.4281 -0.2428 -0.3804
   98MOL    C7331307   2.397   3.569   1.876 -0.0676  0.0485  0.0133
   98MOL    C7431308   2.483   3.856   1.695  0.4468  0.2597 -0.4698
   98MOL    H7531309   2.362   3.675   1.665 -0.6748  0.1723  2.0833
   98MOL    H7631310   2.712   3.675   1.800  0.9656 -1.4975  0.1086
   98MOL    H7731311   2.757   3.566   2.022 -0.4946 -1.5773  2.2414
   98MOL    H7831312   2.345   3.433   2.031 -0.2711  0.1044  0.4031
   98MOL    H7931313   2.293   3.568   1.847 -0.3034  1.0999  0.7968
   98MOL    H8031314   2.452   3.877   1.798  0.8647  2.1692 -0.7148
   98MOL    H8131315   2.589   3.879   1.702  0.6128 -0.4085 -0.7262
   98MOL    C8231316   2.407   3.953   1.593  0.0349 -0.0122  1.0046
   98MOL    C8331317   2.255   3.920   1.601  0.5472  0.0028 -0.3317
   98MOL    C8431318   2.174   3.912   1.490 -0.2987  0.3656  0.6130
   98MOL    C8531319   2.037   3.907   1.496  0.4109  0.3402  0.3587
   98MOL    C8631320   1.976   3.924   1.622 -0.1856  0.8584  0.2859
   98MOL    F8731321   1.842   3.938   1.632  0.6761 -0.5277 -0.2020
   98MOL    C8831322   2.048   3.919   1.738 -0.2013  0.3266  0.3604
   98MOL    C8931323   2.194   3.914   1.727 -0.2071  0.0726  0.2898
   98MOL    C9031324   2.433   4.095   1.635  0.0474 -0.0468 -0.0748
   98MOL    H9131325   2.435   3.943   1.489 -1.0553  1.6883  0.5321
   98MOL    H9231326   2.227   3.918   1.396  3.5476 -2.2052  2.4612
   98MOL    H9331327   1.980   3.906   1.405  1.4888 -1.9043 -0.3270
   98MOL    H9431328   2.002   3.921   1.836  3.2605  3.0715  2.0544
   98MOL    H9531329   2.253   3.912   1.817 -0.8644 -2.5036  0.6930
   98MOL    H9631330   2.357   4.159   1.589  1.0466  0.7451 -0.6536
   98MOL    H9731331   2.413   4.099   1.742  2.4767  0.4956  0.3864
   98MOL    C9831332   2.566   4.157   1.597  0.3532  0.4079 -0.0699
   98MOL    C9931333   2.581   4.164   1.449  0.0477  0.2314  0.1704
   98MOL   C10031334   2.531   4.272   1.371 -0.5414 -0.4633  0.0654
   98MOL   C10131335   2.538   4.274   1.232  0.4615  0.2850  0.0928
   98MOL   C10231336   2.605   4.167   1.171  0.3113  0.8051  0.0440
   98MOL   F10331337   2.625   4.161   1.031  0.1404  0.2475  0.0759
   98MOL   C10431338   2.656   4.061   1.247  0.6197  0.2100  0.0118
   98MOL   C10531339   2.652   4.059   1.388 -0.4310 -0.5932 -0.0857
   98MOL   C10631340   2.580   4.296   1.668 -0.6203  0.0936  0.1094
   98MOL   H10731341   2.650   4.098   1.631 -0.0311 -0.6702 -0.9688
   98MOL   H10831342   2.461   4.336   1.423 -0.7062  0.2522 -1.0288
   98MOL   H10931343   2.498   4.362   1.183  2.1431  1.8312  1.4172
   98MOL   H11031344   2.710   3.984   1.193  0.2654 -1.9061  2.5528
   98MOL   H11131345   2.691   3.972   1.439  1.2045  0.4897  0.5719
   98MOL   H11231346   2.670   4.344   1.628 -1.5579  0.0781 -2.1049
   98MOL   H11331347   2.501   4.363   1.633 -0.7139 -0.5601 -0.9503
   98MOL   C11431348   2.582   4.294   1.822 -0.3299  1.0026  0.7952
   98MOL   C11531349   2.670   4.176   1.867  0.0926  0.0596 -0.0393
   98MOL   C11631350   2.815   4.185   1.853 -0.0326 -0.6520 -0.0888
   98MOL   C11731351   2.889   4.068   1.888 -0.4610  0.3357 -0.0701
   98MOL   C11831352   2.836   3.956   1.952  0.5403 -0.0791  0.3236
   98MOL   F11931353   2.912   3.849   1.984  0.4204 -0.1119  0.2381
   98MOL   C12031354   2.695   3.956   1.978  0.1442 -0.1300  0.0655
   98MOL   C12131355   2.610   4.063   1.936  0.1984 -0.2319 -0.2140
   98MOL   C12231356   2.619   4.432   1.876  0.0211 -0.3983  0.0508
   98MOL   H12331357   2.483   4.268   1.859 -1.5639  2.1475 -1.5833
   98MOL   H12431358   2.858   4.270   1.801  3.0663 -0.0570  3.2629
   98MOL   H12531359   2.995   4.066   1.873 -0.3710  1.2657  0.4210
   98MOL   H12631360   2.640   3.885   2.037 -3.2779  0.3955 -2.3763
   98MOL   H12731361   2.506   4.056   1.961 -0.1028 -0.6229 -1.5517
   98MOL   H12831362   2.721   4.463   1.854 -0.1471 -0.2761 -0.5656
   98MOL   H12931363   2.542   4.488   1.823  0.6273  0.3993  0.0038
   98MOL   C13031364   2.589   4.448   2.030  0.8141  0.3383 -0.1253
   98MOL   C13131365   2.692   4.377   2.111 -0.0854  0.3658 -0.5272
   98MOL   C13231366   2.829   4.409   2.097  0.1428 -0.7030 -0.4372
   98MOL   C13331367   2.930   4.353   2.183 -0.6486 -0.0829 -0.3003
   98MOL   C13431368   2.894   4.247   2.268 -0.3210  0.5164  0.1325
   98MOL   F13531369   2.984   4.191   2.352  0.2554 -0.4252 -0.2840
   98MOL   C13631370   2.757   4.207   2.279  0.2318 -0.1476  0.4019
   98MOL   C13731371   2.656   4.281   2.210  0.0902 -0.3671  0.0278
   98MOL   C13831372   2.582   4.602   2.060 -0.1882  0.1073  0.2482
   98MOL   H13931373   2.490   4.409   2.057 -0.8761  4.0662 -0.6328
   98MOL   H14031374   2.858   4.492   2.035  3.1263 -1.5702 -0.2963
   98MOL   H14131375   3.036   4.374   2.174 -0.3890 -1.3967 -0.4069
   98MOL   H14231376   2.732   4.139   2.359  1.0579  0.8233  1.5137
   98MOL   H14331377   2.552   4.269   2.237  0.4124 -0.2801  1.3342
   98MOL   H14431378   2.599   4.607   2.167  0.6746 -0.4714  0.1456
   98MOL   H14531379   2.673   4.647   2.020 -0.3722  0.2120 -0.0549
   98MOL   C14631380   2.441   4.669   2.035 -0.0862 -0.5079 -0.6939
   98MOL   C14731381   2.335   4.640   2.140  0.1467  0.4221 -0.4500
   98MOL   C14831382   2.221   4.563   2.111  0.7237  0.1287  0.3687
   98MOL   C14931383   2.119   4.548   2.209  0.4925  0.1758 -0.7479
   98MOL   C15031384   2.134   4.604   2.344 -0.1760  0.0173  0.1425
   98MOL   F15131385   2.042   4.586   2.438  0.6768 -0.0616 -0.4056
   98MOL   C15231386   2.256   4.673   2.378  0.3931  0.9239  0.1174
   98MOL   C15331387   2.355   4.687   2.273 -0.2671  0.1877  0.2457
   98MOL   C15431388   2.459   4.817   2.011  0.0426 -0.2470  0.1634
   98MOL   H15531389   2.411   4.616   1.944 -2.0642 -3.5848  1.6387
   98MOL   H15631390   2.193   4.522   2.015 -0.8272 -1.8758  1.6390
   98MOL   H15731391   2.026   4.497   2.186 -0.0907  1.6702 -1.8125
   98MOL   H15831392   2.279   4.710   2.477  1.3053  0.8063 -0.0453
   98MOL   H15931393   2.436   4.754   2.294 -1.5116  1.4972  0.9508
   98MOL   H16031394   2.362   4.866   2.016 -0.4354 -1.2060  0.5029
   98MOL   H16131395   2.512   4.855   2.098 -2.3853  1.5349  0.9329
   98MOL   C16231396   2.524   4.856   1.880  0.8512  0.4067 -0.0175
   98MOL   C16331397   2.432   4.814   1.759  0.3257  0.2539 -0.7380
   98MOL   C16431398   2.300   4.859   1.749  0.1794  0.1772 -0.5587
   98MOL   C16531399   2.213   4.809   1.651  0.2570  0.3832  0.2112
   98MOL   C16631400   2.263   4.714   1.560  0.3474  0.7386  0.1366
   98MOL   F16731401   2.173   4.650   1.481 -0.3300 -0.1977  0.2052
   98MOL   C16831402   2.391   4.668   1.565 -0.0513  0.3085 -0.9039
   98MOL   C16931403   2.481   4.723   1.658  0.4881 -0.1304  0.0554
   98MOL   C17031404   2.554   5.007   1.866  0.2399 -0.1044 -0.4315
   98MOL   H17131405   2.615   4.800   1.857 -0.3599 -1.8959  0.5639
   98MOL   H17231406   2.263   4.917   1.832  2.8954  0.6964  0.3264
   98MOL   H17331407   2.111   4.842   1.644  0.3028  0.2961 -1.0229
   98MOL   H17431408   2.413   4.591   1.493 -2.5259 -0.0389 -1.3248
   98MOL   H17531409   2.579   4.680   1.668  0.7839  0.9881  2.3782
   98MOL   H17631410   2.582   5.039   1.766 -0.3039 -0.1176 -0.5915
   98MOL   H17731411   2.470   5.070   1.894  1.4651  1.5302 -0.3979
   98MOL   C17831412   2.665   5.057   1.964 -0.0866  0.3960 -0.0524
   98MOL   C17931413   2.783   4.961   1.995 -0.4473 -0.3387  0.7700
   98MOL   C18031414   2.867   4.924   1.893 -0.8800  0.2362 -0.4988
   98MOL   C18131415   2.962   4.831   1.923 -0.3104 -0.1688  0.4298
   98MOL   C18231416   2.989   4.776   2.048 -0.5013  0.4807 -0.3390
   98MOL   F18331417   3.092   4.683   2.056  0.2016  0.4214  0.0527
   98MOL   C18431418   2.913   4.812   2.155  0.6055  0.3407 -0.6048
   98MOL   C18531419   2.812   4.905   2.128  0.2656 -0.3198 -0.0222
   98MOL   C18631420   2.730   5.187   1.918 -0.4289 -0.3187  0.3679
   98MOL   H18731421   2.621   5.068   2.064  0.3929 -0.5291  0.2562
   98MOL   H18831422   2.876   4.970   1.795 -0.4831  0.7925 -0.2027
   98MOL   H18931423   3.032   4.812   1.843 -2.3652  1.4314 -1.8075
   98MOL   H19031424   2.936   4.782   2.256 -1.7986 -1.4002 -0.5587
   98MOL   H19131425   2.743   4.953   2.196  1.2200 -1.1645  1.5540
   98MOL   H19231426   2.816   5.213   1.980  0.1935 -1.8467  0.1519
   98MOL   H19331427   2.766   5.174   1.816 -1.6626 -0.0917 -0.1039
   98MOL   C19431428   2.644   5.312   1.919  0.1408  0.3274 -0.1611
   98MOL   C19531429   2.583   5.334   2.058  0.2747 -0.3579 -0.3080
   98MOL   C19631430   2.665   5.328   2.173  0.1546 -0.7064 -0.1214
   98MOL   C19731431   2.608   5.360   2.294 -0.3612 -0.1203  0.0261
   98MOL   C19831432   2.472   5.390   2.307 -0.2230  0.5808 -0.1403
   98MOL   F19931433   2.425   5.415   2.434 -0.1970 -0.1403 -0.4254
   98MOL   C20031434   2.385   5.386   2.196  0.0071 -0.3755  0.2169
   98MOL   C20131435   2.442   5.363   2.066 -0.0318  0.1908 -0.5591
   98MOL   C20231436   2.730   5.423   1.873  0.1750 -0.6056 -0.2732
   98MOL   H20331437   2.575   5.292   1.837  1.3856 -0.5868 -1.0116
   98MOL   H20431438   2.771   5.315   2.164  0.2852 -1.2070  1.9543
   98MOL   H20531439   2.667   5.372   2.384 -1.4607  3.9711  0.2828
   98MOL   H20631440   2.281   5.402   2.219  0.4122  1.5802  0.7939
   98MOL   H20731441   2.376   5.359   1.981 -2.9540 -1.2840  1.6598
   98MOL   H20831442   2.811   5.423   1.946  0.0246 -0.2493 -0.1046
   98MOL   H20931443   2.770   5.395   1.776 -0.3239 -2.1252 -0.0544
   98MOL   C21031444   2.681   5.571   1.868  0.2216  0.3934  0.6552
   98MOL   C21131445   2.802   5.655   1.828 -0.0960  0.0915 -0.1575
   98MOL   C21231446   2.863   5.650   1.708 -0.1098 -0.3127  0.2935
   98MOL   C21331447   2.968   5.740   1.683 -0.2048 -0.3708 -0.0128
   98MOL   C21431448   3.006   5.840   1.781 -0.4984  0.2259 -0.2374
   98MOL   F21531449   3.109   5.926   1.770 -0.5342 -0.1533  0.1860
   98MOL   C21631450   2.928   5.854   1.895  0.3473 -0.3709  0.2279
   98MOL   C21731451   2.830   5.763   1.920 -0.6010 -0.9054 -0.1115
   98MOL   C21831452   2.558   5.572   1.771  0.7083  0.1676  0.2572
   98MOL   H21931453   2.646   5.600   1.967  2.8940  0.1855  1.7023
   98MOL   H22031454   2.849   5.569   1.637 -2.2121  0.3638 -0.1063
   98MOL   H22131455   3.017   5.730   1.588  1.3336 -0.6524  0.8023
   98MOL   H22231456   2.935   5.937   1.964 -2.0153  2.2494 -2.5099
   98MOL   H22331457   2.761   5.782   2.001 -0.9774  1.3722 -0.9406
   98MOL   H22431458   2.581   5.526   1.675  0.8635 -1.9183  1.2627
   98MOL   H22531459   2.480   5.511   1.817 -0.1881  2.2551  1.6012
   98MOL   C22631460   2.486   5.704   1.776 -0.1429 -0.5956 -0.5761
   98MOL   C22731461   2.551   5.820   1.712  0.0400 -0.5371 -0.7230
   98MOL   C22831462   2.606   5.807   1.580  0.4767 -0.6078 -0.3494
   98MOL   C22931463   2.682   5.915   1.525 -0.3142 -0.8912 -0.4569
   98MOL   C23031464   2.689   6.029   1.592  0.2577  0.0618  0.6658
   98MOL   F23131465   2.755   6.131   1.535 -0.5265 -0.5065  0.7975
   98MOL   C23231466   2.639   6.045   1.721 -0.1563  0.0822 -0.1019
   98MOL   C23331467   2.564   5.942   1.781  0.0687 -0.3146 -0.4240
   98MOL   C23431468   2.345   5.682   1.715  0.3319  0.4489  0.6603
   98MOL   H23531469   2.459   5.737   1.876  0.1114 -1.9102 -0.0638
   98MOL   H23631470   2.605   5.707   1.539  3.3640 -1.1608  0.8103
   98MOL   H23731471   2.733   5.906   1.431 -1.4590 -0.2760 -1.1468
   98MOL   H23831472   2.654   6.142   1.767  1.2932  0.6304 -1.6739
   98MOL   H23931473   2.524   5.955   1.880 -0.6958 -0.1117 -0.7537
   98MOL   H24031474   2.361   5.620   1.627 -0.0691  0.2607  0.7216
   98MOL   H24131475   2.286   5.626   1.788 -0.0473  0.3350  0.2650
   98MOL   C24231476   2.241   5.799   1.694 -0.2171  0.9626 -0.0868
   98MOL   C24331477   2.119   5.747   1.615  0.0786  0.0584  0.1125
   98MOL   C24431478   2.038   5.649   1.678  0.0848 -0.1488  0.1067
   98MOL   C24531479   1.928   5.595   1.604 -0.4489  0.7374 -0.4301
   98MOL   C24631480   1.911   5.628   1.469  0.7027 -0.7259  0.0909
   98MOL   F24731481   1.820   5.561   1.385 -0.1807  0.1910  0.5513
   98MOL   C24831482   1.984   5.741   1.420 -0.0654 -0.0006  0.2907
   98MOL   C24931483   2.088   5.805   1.492  0.2297 -0.2714  0.2356
   98MOL   C25031484   2.203   5.874   1.816  0.9915  0.4423 -0.3934
   98MOL   H25131485   2.294   5.863   1.623 -1.1569  1.6770 -0.1550
   98MOL   H25231486   2.045   5.623   1.783 -0.0807  1.7329  0.6119
   98MOL   H25331487   1.857   5.523   1.641  2.1863 -0.9004  1.5988
   98MOL   H25431488   1.966   5.779   1.321 -1.8752 -1.9339 -0.1504
   98MOL   H25531489   2.147   5.885   1.451  0.0220  1.3785  3.0154
   98MOL   H25631490   2.146   5.798   1.870 -0.6118  1.5782 -0.4365
   98MOL   H25731491   2.288   5.907   1.875  0.5235  0.0451  0.5303
   98MOL   C25831492   2.102   5.992   1.794 -0.1547  0.4957  0.2645
   98MOL   C25931493   2.007   6.015   1.912  0.3373 -0.0577 -0.2344
   98MOL   C26031494   1.871   5.989   1.889 -0.6118 -0.3097  0.0780
   98MOL   C26131495   1.780   6.028   1.994 -0.4972  0.2539  0.1033
   98MOL   C26231496   1.830   6.097   2.104  0.1937 -0.6288  0.2654
   98MOL   F26331497   1.747   6.138   2.195  0.3719 -0.5993  0.4020
   98MOL   C26431498   1.966   6.113   2.129  0.6531  0.0466  0.6363
   98MOL   C26531499   2.054   6.065   2.032 -0.0461 -0.4906  0.2530
   98MOL   C26631500   2.186   6.121   1.765 -0.5947  0.3137 -0.3052
   98MOL   H26731501   2.034   5.976   1.710 -1.9870 -1.3772  2.0423
   98MOL   H26831502   1.834   5.945   1.798  1.0432  0.9383 -1.2273
   98MOL   H26931503   1.673   6.029   1.979 -0.7803 -0.4929  1.9653
   98MOL   H27031504   2.008   6.159   2.217  1.9747 -0.7214  0.4252
   98MOL   H27131505   2.160   6.079   2.048 -0.0105  1.0773 -1.3339
   98MOL   H27231506   2.276   6.115   1.826 -0.7719  0.1242 -0.0555
   98MOL   H27331507   2.223   6.110   1.663  0.6839  1.0942  0.0682
   98MOL   C27431508   2.125   6.264   1.780 -0.3077 -0.4698  0.0711
   98MOL   C27531509   2.243   6.367   1.783 -0.0283  0.3532 -0.8674
   98MOL   C27631510   2.274   6.433   1.903  0.2602 -0.4861 -0.7431
   98MOL   C27731511   2.371   6.535   1.912 -0.2644 -0.0400 -0.0622
   98MOL   C27831512   2.436   6.575   1.797  0.1596  0.1024  0.6633
   98MOL   F27931513   2.543   6.660   1.810  0.2355  0.6242  0.2609
   98MOL   C28031514   2.393   6.522   1.674 -0.2915 -0.2892 -0.0917
   98MOL   C28131515   2.299   6.419   1.665 -0.4303 -0.9136 -0.2569
   98MOL   C28231516   2.015   6.291   1.678 -0.6243  0.2179  0.0329
   98MOL   H28331517   2.083   6.271   1.881  1.3808 -0.2259  0.7901
   98MOL   H28431518   2.231   6.412   2.000  0.3693 -0.5181 -0.7014
   98MOL   H28531519   2.398   6.570   2.011 -0.9131 -1.2849  0.5581
   98MOL   H28631520   2.437   6.570   1.587 -0.9748  3.0534  1.3397
   98MOL   H28731521   2.271   6.378   1.569  2.5824  2.2030 -2.5935
   98MOL   H28831522   2.047   6.278   1.575 -1.2425 -0.7129 -0.0570
   98MOL   H28931523   1.940   6.211   1.676 -0.3609 -0.0353  0.2491
   98MOL   C29031524   1.945   6.427   1.694  0.0351  0.1167 -0.0149
   98MOL   C29131525   1.907   6.496   1.569  0.3872  0.7309 -0.3119
   98MOL   C29231526   1.829   6.422   1.479  0.6155 -0.0796  0.6825
   98MOL   C29331527   1.787   6.479   1.357  0.7089 -0.0107  0.3627
   98MOL   C29431528   1.836   6.606   1.321  0.6355 -0.8203  0.8285
   98MOL   F29531529   1.793   6.669   1.203 -0.3231  0.1076  0.0035
   98MOL   C29631530   1.921   6.678   1.404  0.3452 -0.2109  0.4852
   98MOL   C29731531   1.955   6.626   1.531  0.0320  0.1600 -0.6366
   98MOL   C29831532   1.810   6.421   1.779 -0.4239 -0.5327  0.9352
   98MOL   H29931533   2.008   6.500   1.744  0.0796  0.8565 -1.1388
   98MOL   H30031534   1.796   6.326   1.517  0.0845 -0.1997 -0.0791
   98MOL   H30131535   1.722   6.423   1.292  0.6596 -0.6235  0.9293
   98MOL   H30231536   1.951   6.770   1.357 -0.0669 -0.8983 -1.1982
   98MOL   H30331537   2.020   6.683   1.596 -1.1262 -0.7193  1.3601
   98MOL   H30431538   1.758   6.515   1.760  0.1810 -0.4186 -0.2076
   98MOL   H30531539   1.741   6.344   1.744 -0.4852  1.3132 -3.3877
   98MOL   C30631540   1.826   6.419   1.933  0.0522 -0.4072  1.1880
   98MOL   C30731541   1.900   6.542   2.002  0.1509  1.2943 -0.3285
   98MOL   C30831542   1.996   6.518   2.099  0.1652  0.6829  0.0072
   98MOL   C30931543   2.066   6.619   2.171  0.4830 -0.3885 -0.0023
   98MOL   C31031544   2.038   6.747   2.122  0.3924 -0.0932 -0.2959
   98MOL   F31131545   2.103   6.849   2.180  0.5304  0.1002  0.1100
   98MOL   C31231546   1.936   6.772   2.027 -0.0424  0.0999 -0.6127
   98MOL   C31331547   1.873   6.666   1.963 -0.0555 -0.1719 -0.1489
   98MOL   C31431548   1.691   6.404   2.001  0.2842 -0.4014 -0.1861
   98MOL   H31531549   1.882   6.327   1.950  1.3954  0.0836 -0.4285
   98MOL   H31631550   2.017   6.419   2.134  1.4062  0.3718 -1.5815
   98MOL   H31731551   2.130   6.591   2.253 -0.5744  0.3755  1.0923
   98MOL   H31831552   1.938   6.874   1.993  0.2610 -0.4155 -2.2329
   98MOL   H31931553   1.791   6.682   1.895  0.7062  1.4079 -0.7206
   98MOL   H32031554   1.690   6.391   2.109 -1.1213 -2.1445 -0.3776
   98MOL   H32131555   1.632   6.489   1.967 -1.1692 -0.1388  2.8172
   98MOL   H32231556   1.636   6.319   1.960  0.8463 -0.3964 -0.9605
   99MOL     C131557   3.447   4.078   2.018  0.3586 -0.8416 -0.0027
   99MOL     C231558   3.433   4.226   2.064 -0.2161 -0.0437  0.3034
   99MOL     C331559   3.342   4.316   2.002 -0.1182 -0.0010  0.2007
   99MOL     C431560   3.332   4.447   2.049  0.3219 -0.1030 -0.4010
   99MOL     C531561   3.408   4.492   2.151 -0.4019 -0.3238 -0.5438
   99MOL     F631562   3.388   4.619   2.199 -0.8159  0.2438  0.4546
   99MOL     C731563   3.497   4.409   2.221 -0.0207 -0.1993 -0.4879
   99MOL     C831564   3.514   4.274   2.177 -0.9132  0.7894 -0.1755
   99MOL     C931565   3.372   4.044   1.889  0.2852  0.3338 -0.0811
   99MOL    H1031566   3.425   4.016   2.105  0.4725 -3.0184 -1.4654
   99MOL    H1131567   3.283   4.298   1.914  0.2690  0.2152 -0.1029
   99MOL    H1231568   3.269   4.518   1.998  1.5136 -1.3075 -3.6440
   99MOL    H1331569   3.558   4.439   2.305 -2.2958  0.6830  0.8914
   99MOL    H1431570   3.585   4.201   2.212 -0.4058  0.0116 -2.7378
   99MOL    H1531571   3.264   4.060   1.899 -0.3227 -2.9971 -0.9262
   99MOL    H1631572   3.401   4.110   1.807 -0.2923 -1.8014 -2.0446
   99MOL    H1731573   3.550   4.052   1.995  0.4198 -1.2946  0.7458
   99MOL    C1831574   3.392   3.904   1.842 -0.2290  0.9637 -0.2766
   99MOL    C1931575   3.347   3.805   1.942 -0.4406 -0.2943  0.1545
   99MOL    C2031576   3.209   3.779   1.962  0.5669  0.0947 -0.3182
   99MOL    C2131577   3.162   3.675   2.049  0.2951 -0.4882  0.6593
   99MOL    C2231578   3.259   3.595   2.106 -0.4070 -0.2885 -0.7017
   99MOL    F2331579   3.217   3.486   2.173 -0.0305 -0.3236 -0.0358
   99MOL    C2431580   3.397   3.621   2.092  0.5824  0.1048  0.0714
   99MOL    C2531581   3.438   3.729   2.018  0.1827 -0.2545  0.2011
   99MOL    C2631582   3.335   3.875   1.707 -0.8533  0.1798 -0.1462
   99MOL    H2731583   3.499   3.891   1.829 -0.7476 -0.8173 -3.1302
   99MOL    H2831584   3.131   3.842   1.922  0.9804  1.3118  0.7737
   99MOL    H2931585   3.058   3.649   2.061  0.2002 -0.0859  0.7016
   99MOL    H3031586   3.466   3.548   2.131  0.8120 -1.4412 -3.1383
   99MOL    H3131587   3.545   3.742   2.021  0.2896 -0.9930 -0.1595
   99MOL    H3231588   3.230   3.903   1.711 -0.7350  0.9646 -2.0152
   99MOL    H3331589   3.388   3.939   1.636 -0.8128  0.6444  0.3033
   99MOL    C3431590   3.337   3.734   1.666  0.0444 -0.1766 -0.4628
   99MOL    C3531591   3.264   3.716   1.533  0.1218  0.4824  1.0719
   99MOL    C3631592   3.327   3.737   1.405  0.4544 -0.3114  0.5617
   99MOL    C3731593   3.260   3.714   1.284  0.6953 -1.0164 -0.3391
   99MOL    C3831594   3.125   3.667   1.289 -0.0791 -0.9188  0.9710
   99MOL    F3931595   3.067   3.647   1.166  0.2802 -0.1601  0.3854
   99MOL    C4031596   3.057   3.650   1.408  0.6965 -0.3638  0.1503
   99MOL    C4131597   3.127   3.672   1.531 -0.0036  0.1461 -0.0524
   99MOL    C4231598   3.478   3.666   1.668 -0.0997 -0.0525  0.0382
   99MOL    H4331599   3.273   3.683   1.738 -1.2534  1.2318 -0.5918
   99MOL    H4431600   3.429   3.771   1.396 -0.5789  2.8672  0.1914
   99MOL    H4531601   3.305   3.732   1.188 -0.9819 -1.9052 -1.3080
   99MOL    H4631602   2.951   3.628   1.405  0.5289  0.4005  0.4446
   99MOL    H4731603   3.078   3.662   1.626 -0.2473 -1.0100 -0.2913
   99MOL    H4831604   3.555   3.733   1.632  0.0481  0.4935  1.3415
   99MOL    H4931605   3.509   3.653   1.772  0.8348 -0.2534 -0.2707
   99MOL    C5031606   3.510   3.530   1.592  1.1075  0.5771 -0.4983
   99MOL    C5131607   3.655   3.473   1.619 -0.1542  0.2777  0.0748
   99MOL    C5231608   3.678   3.367   1.716  0.6235 -0.5859 -0.9816
   99MOL    C5331609   3.804   3.309   1.729 -0.1550  0.2355  0.3765
   99MOL    C5431610   3.904   3.339   1.632 -0.5403  0.0299 -0.1216
   99MOL    F5531611   4.022   3.266   1.633 -0.1198  0.2267  0.4325
   99MOL    C5631612   3.891   3.449   1.543 -0.1640 -0.0275  0.1454
   99MOL    C5731613   3.762   3.516   1.534 -0.0107 -0.1141  0.2556
   99MOL    C5831614   3.402   3.424   1.603  0.5734  0.3064  0.3053
   99MOL    H5931615   3.503   3.562   1.488  0.6583 -0.8806 -0.9281
   99MOL    H6031616   3.606   3.346   1.793  0.9694  0.3759 -0.3777
   99MOL    H6131617   3.820   3.243   1.812 -0.2674 -1.1302 -0.6729
   99MOL    H6231618   3.963   3.485   1.472 -2.9758  1.5732 -1.9890
   99MOL    H6331619   3.743   3.596   1.465 -0.4355  0.3180  0.8595
   99MOL    H6431620   3.403   3.397   1.708  1.4444  0.1526  0.2645
   99MOL    H6531621   3.303   3.465   1.585  0.0559 -1.2716 -0.5963
   99MOL    C6631622   3.416   3.291   1.519 -0.3713  0.3470  0.5291
   99MOL    C6731623   3.334   3.177   1.578  0.4394 -0.4549  0.3155
   99MOL    C6831624   3.189   3.175   1.569  0.0512 -0.1693 -0.3888
   99MOL    C6931625   3.116   3.070   1.617  0.0794 -0.2746 -0.1478
   99MOL    C7031626   3.177   2.951   1.666 -0.8603  0.3970  0.3953
   99MOL    F7131627   3.097   2.846   1.695 -0.3536 -0.2022 -0.2284
   99MOL    C7231628   3.315   2.949   1.665 -1.7084  0.0997 -0.0901
   99MOL    C7331629   3.395   3.065   1.636 -0.4822  0.0017  0.5090
   99MOL    C7431630   3.395   3.317   1.369  0.4741  0.7712  0.2922
   99MOL    H7531631   3.519   3.261   1.538 -0.2027  0.0462 -0.7731
   99MOL    H7631632   3.139   3.261   1.526 -0.5998  0.4923  1.6238
   99MOL    H7731633   3.009   3.089   1.609  0.1301 -0.9061 -2.6162
   99MOL    H7831634   3.365   2.855   1.683 -0.6170  0.8145  0.6580
   99MOL    H7931635   3.503   3.070   1.639 -0.3679 -2.2739  0.8001
   99MOL    H8031636   3.300   3.371   1.368  0.0877  0.1071  0.8273
   99MOL    H8131637   3.463   3.392   1.329 -0.3294  0.2650 -2.0840
   99MOL    C8231638   3.405   3.195   1.268  0.3479 -0.1140  0.3764
   99MOL    C8331639   3.296   3.234   1.161 -0.0340  1.4008  0.6906
   99MOL    C8431640   3.327   3.329   1.065 -0.0398 -0.6623 -0.5361
   99MOL    C8531641   3.238   3.364   0.960  0.3209 -0.4337  0.4758
   99MOL    C8631642   3.115   3.294   0.949 -0.3700 -0.1912  0.0490
   99MOL    F8731643   3.024   3.328   0.857  0.5943 -0.2265  0.5854
   99MOL    C8831644   3.083   3.197   1.048 -0.6117  0.9197  0.4275
   99MOL    C8931645   3.172   3.165   1.149 -0.4775 -0.1995 -0.7986
   99MOL    C9031646   3.551   3.192   1.221 -0.0185  0.2185 -0.7001
   99MOL    H9131647   3.373   3.104   1.318 -3.0054  0.2887 -0.8782
   99MOL    H9231648   3.413   3.393   1.080 -2.1023  1.5938  2.2168
   99MOL    H9331649   3.263   3.448   0.897  1.6334 -0.0671  1.4764
   99MOL    H9431650   2.990   3.143   1.037  0.4686 -1.2279  1.5802
   99MOL    H9531651   3.142   3.109   1.237  0.8889 -1.0071 -0.8301
   99MOL    H9631652   3.569   3.284   1.166  0.6558 -0.6357 -1.9471
   99MOL    H9731653   3.611   3.205   1.311  1.4319 -1.2168 -1.4288
   99MOL    C9831654   3.592   3.067   1.143 -0.3791 -0.0325 -0.8803
   99MOL    C9931655   3.647   2.956   1.230 -0.3442  0.3469 -0.2984
   99MOL   C10031656   3.788   2.952   1.261  0.3731  0.2198  0.4119
   99MOL   C10131657   3.844   2.846   1.333  0.0901  0.1135 -0.0359
   99MOL   C10231658   3.767   2.748   1.389  0.6159 -0.1596 -0.8510
   99MOL   F10331659   3.825   2.639   1.448  0.4334 -0.5363 -0.9169
   99MOL   C10431660   3.626   2.761   1.380 -0.1377  0.8640  0.7820
   99MOL   C10531661   3.566   2.865   1.303  0.3246 -0.1002  0.2028
   99MOL   C10631662   3.503   3.024   1.027  0.7719  0.2729 -0.2195
   99MOL   H10731663   3.685   3.101   1.096  0.4890 -1.1627 -0.0096
   99MOL   H10831664   3.856   3.031   1.231  2.3550 -1.7246 -0.3666
   99MOL   H10931665   3.952   2.846   1.347  0.4157  2.0480 -2.2781
   99MOL   H11031666   3.562   2.684   1.422  0.6297 -1.7387 -2.5930
   99MOL   H11131667   3.459   2.863   1.292  0.0892 -2.6858  2.4659
   99MOL   H11231668   3.419   2.972   1.074  0.8960  0.2430 -0.0310
   99MOL   H11331669   3.471   3.112   0.971  0.0171 -0.7827 -1.4862
   99MOL   C11431670   3.574   2.923   0.925  0.5744 -0.2726 -0.7962
   99MOL   C11531671   3.482   2.810   0.894  0.4051  0.0049  0.3580
   99MOL   C11631672   3.531   2.674   0.882  0.8067  0.7454  0.4307
   99MOL   C11731673   3.447   2.570   0.838  0.2996 -0.4009  0.1869
   99MOL   C11831674   3.310   2.596   0.798 -1.1463 -0.5781  0.8114
   99MOL   F11931675   3.231   2.501   0.741  0.0185 -0.1975 -0.1783
   99MOL   C12031676   3.261   2.727   0.814  0.6010 -0.0482 -0.0108
   99MOL   C12131677   3.344   2.826   0.860 -0.9140  0.1195 -0.4549
   99MOL   C12231678   3.627   2.989   0.799 -0.0450 -0.3395  0.3418
   99MOL   H12331679   3.662   2.881   0.975  0.7187  1.2448  0.2538
   99MOL   H12431680   3.626   2.643   0.924  0.4774 -1.4315 -0.3945
   99MOL   H12531681   3.468   2.464   0.846 -0.6518 -0.6070  0.0639
   99MOL   H12631682   3.162   2.760   0.783  0.0870  1.1075  2.7326
   99MOL   H12731683   3.312   2.929   0.861  0.2963  0.5453  3.6604
   99MOL   H12831684   3.595   2.942   0.706  2.1833 -1.0280 -0.1091
   99MOL   H12931685   3.583   3.088   0.788 -0.4162 -0.3617  1.5105
   99MOL   C13031686   3.780   2.999   0.787 -0.5491  0.6774 -0.4381
   99MOL   C13131687   3.856   2.872   0.741 -0.2229  0.8616 -0.1162
   99MOL   C13231688   3.799   2.788   0.645  0.8895  0.6302 -0.4979
   99MOL   C13331689   3.879   2.686   0.582 -1.0570  0.0681 -1.4194
   99MOL   C13431690   4.010   2.663   0.636  0.1491 -0.0125 -0.3048
   99MOL   F13531691   4.082   2.560   0.586  0.3666 -0.3163  0.2505
   99MOL   C13631692   4.068   2.745   0.732 -0.5660 -0.0069  0.3301
   99MOL   C13731693   3.988   2.843   0.795  0.7465 -0.5081 -0.3877
   99MOL   C13831694   3.814   3.123   0.704  0.2994  0.6355  0.1940
   99MOL   H13931695   3.822   3.013   0.887 -2.7075 -1.3081  0.8109
   99MOL   H14031696   3.695   2.789   0.618  0.4233 -0.5782  1.1348
   99MOL   H14131697   3.840   2.619   0.507  0.2307 -2.2733 -0.0559
   99MOL   H14231698   4.172   2.728   0.755 -0.1951 -0.1753 -1.3965
   99MOL   H14331699   4.026   2.898   0.879 -0.0062 -0.6699  0.0621
   99MOL   H14431700   3.919   3.111   0.678  0.2204  1.7719 -0.7195
   99MOL   H14531701   3.775   3.125   0.602 -0.1096  2.6303  0.3726
   99MOL   C14631702   3.803   3.265   0.763 -0.1340  0.7048  0.0242
   99MOL   C14731703   3.855   3.287   0.903 -0.4065 -0.0666 -0.1878
   99MOL   C14831704   3.778   3.373   0.986  0.4399 -0.0175 -0.6164
   99MOL   C14931705   3.833   3.402   1.112  0.5621  0.0780 -0.0143
   99MOL   C15031706   3.958   3.356   1.159 -0.2681 -0.4469  0.3653
   99MOL   F15131707   4.008   3.393   1.277 -0.3770 -0.2481  0.1548
   99MOL   C15231708   4.034   3.278   1.072  0.7342 -0.1830  0.3078
   99MOL   C15331709   3.982   3.241   0.945 -0.0364 -0.6644  0.9082
   99MOL   C15431710   3.860   3.370   0.667 -0.5766 -0.8385  0.0205
   99MOL   H15531711   3.699   3.293   0.779 -0.3664  0.1513 -0.4695
   99MOL   H15631712   3.680   3.404   0.955  0.5916 -0.1771 -1.2559
   99MOL   H15731713   3.781   3.477   1.170  0.5990  0.8703 -0.9941
   99MOL   H15831714   4.129   3.241   1.110  1.1062 -0.7397 -1.1254
   99MOL   H15931715   4.033   3.179   0.873 -1.3341  2.0097 -2.4525
   99MOL   H16031716   3.951   3.419   0.701 -0.6351 -0.6729 -0.0622
   99MOL   H16131717   3.890   3.319   0.576 -0.5167 -1.1071  0.1931
   99MOL   C16231718   3.765   3.482   0.619  0.1058 -0.3539  0.3411
   99MOL   C16331719   3.710   3.581   0.727 -0.0453  0.6238 -1.0981
   99MOL   C16431720   3.569   3.581   0.758 -0.5250 -0.3754 -0.1056
   99MOL   C16531721   3.522   3.667   0.859 -0.2858  0.6231  0.7108
   99MOL   C16631722   3.607   3.743   0.942 -1.3521  0.1637  0.3310
   99MOL   F16731723   3.558   3.831   1.035  0.0019 -0.3901 -0.9280
   99MOL   C16831724   3.740   3.744   0.905 -0.5788 -0.6130 -0.7174
   99MOL   C16931725   3.796   3.662   0.805  0.4189  0.1462  0.0256
   99MOL   C17031726   3.832   3.573   0.504 -0.6178 -0.9285  0.2772
   99MOL   H17131727   3.678   3.433   0.576 -0.1159  0.7029 -0.4343
   99MOL   H17231728   3.494   3.537   0.694 -0.2217 -1.0199 -0.0141
   99MOL   H17331729   3.418   3.682   0.882 -0.2947 -0.1664  1.2165
   99MOL   H17431730   3.815   3.799   0.960 -2.1581  3.1868 -2.1787
   99MOL   H17531731   3.903   3.663   0.788  0.2856 -0.0815 -0.8832
   99MOL   H17631732   3.914   3.629   0.548  0.7687 -0.1814 -3.0961
   99MOL   H17731733   3.891   3.512   0.435 -0.2126 -0.1785 -0.0421
   99MOL   C17831734   3.732   3.671   0.437  0.4286 -0.0300 -0.2899
   99MOL   C17931735   3.803   3.810   0.438 -0.0742  0.5653 -0.5931
   99MOL   C18031736   3.780   3.893   0.548  0.3652 -0.1247 -0.1164
   99MOL   C18131737   3.843   4.019   0.559  0.0093 -0.0012 -0.9304
   99MOL   C18231738   3.945   4.055   0.465  0.1002 -0.9249 -0.3362
   99MOL   F18331739   4.009   4.172   0.466  0.1124  0.3076 -0.0938
   99MOL   C18431740   3.976   3.965   0.361  0.7627 -0.2657  0.1858
   99MOL   C18531741   3.902   3.851   0.345 -0.0192  0.1396 -0.1212
   99MOL   C18631742   3.693   3.604   0.294  0.4493 -0.1463  0.0003
   99MOL   H18731743   3.641   3.694   0.493  0.4056 -1.5521  0.3119
   99MOL   H18831744   3.701   3.873   0.619 -0.2152 -0.4883 -0.8583
   99MOL   H18931745   3.822   4.093   0.634 -1.4762 -0.1021 -1.2377
   99MOL   H19031746   4.052   3.985   0.287 -0.3666  2.8215 -0.1958
   99MOL   H19131747   3.944   3.784   0.272  5.4314  1.7971  1.2556
   99MOL   H19231748   3.786   3.577   0.245  0.5032  0.7047 -0.3736
   99MOL   H19331749   3.632   3.514   0.298  0.9272 -0.4230  1.8250
   99MOL   C19431750   3.636   3.715   0.202 -0.1641  0.2173  0.0898
   99MOL   C19531751   3.642   3.681   0.050  0.1305  0.0439  0.2884
   99MOL   C19631752   3.571   3.577   8.230  0.1332 -0.1702 -0.3211
   99MOL   C19731753   3.567   3.557   8.088  0.1736  0.0821  0.3603
   99MOL   C19831754   3.650   3.634   8.007 -0.1096 -0.2909  0.2057
   99MOL   F19931755   3.666   3.606   7.882  0.0783 -0.4085  0.0825
   99MOL   C20031756   3.724   3.742   8.066 -0.0663  0.3634  0.8987
   99MOL   C20131757   3.723   3.768   8.205  0.1402 -0.3905 -0.2022
   99MOL   C20231758   3.489   3.754   0.253  0.6738  0.0742  0.2128
   99MOL   H20331759   3.693   3.807   0.215  0.4746 -0.0504 -0.7757
   99MOL   H20431760   3.512   3.512   0.059 -1.8734  2.4824  0.6359
   99MOL   H20531761   3.513   3.472   8.049 -0.5057 -0.0112  1.4536
   99MOL   H20631762   3.797   3.796   8.007 -0.6128  0.3243  0.1787
   99MOL   H20731763   3.785   3.847   0.010 -0.2160  0.1728 -0.7578
   99MOL   H20831764   3.424   3.672   0.226  1.4339 -0.5862  0.3808
   99MOL   H20931765   3.483   3.769   0.361  0.1230  0.1563  0.1701
   99MOL   C21031766   3.437   3.877   0.182  0.7295 -0.4174 -0.5346
   99MOL   C21131767   3.284   3.862   0.166 -0.2583 -0.3750  0.2585
   99MOL   C21231768   3.232   3.864   0.036  0.8508  0.4585 -0.8649
   99MOL   C21331769   3.092   3.888   0.025 -0.3217 -0.3736  0.1346
   99MOL   C21431770   3.004   3.887   0.137  0.1545 -0.1923 -0.2857
   99MOL   F21531771   2.871   3.917   0.119 -0.3178  0.3338  0.4576
   99MOL   C21631772   3.057   3.884   0.269  0.2724  0.2366  0.0158
   99MOL   C21731773   3.198   3.863   0.276 -0.1427 -0.1592  0.6284
   99MOL   C21831774   3.474   4.001   0.259  0.3384  0.1394 -0.5373
   99MOL   H21931775   3.477   3.866   0.082  1.6824 -2.1179  0.0160
   99MOL   H22031776   3.299   3.875   8.187  1.9057  1.1532  0.0482
   99MOL   H22131777   3.057   3.908   8.160  1.1944 -0.7449 -0.4863
   99MOL   H22231778   2.985   3.886   0.349  0.3450  1.4659  0.0481
   99MOL   H22331779   3.240   3.846   0.374 -1.5996  0.2549  1.3407
   99MOL   H22431780   3.396   4.010   0.335 -0.9491  1.2825 -1.9641
   99MOL   H22531781   3.568   3.980   0.311 -0.7388 -0.8876  1.0236
   99MOL   C22631782   3.501   4.132   0.183  0.1124  0.0750 -0.0895
   99MOL   C22731783   3.516   4.245   0.285  0.6035 -0.3709  0.5912
   99MOL   C22831784   3.405   4.323   0.317 -0.3994  0.0678 -0.5470
   99MOL   C22931785   3.417   4.437   0.398 -0.2067 -0.0550  0.4631
   99MOL   C23031786   3.543   4.463   0.465 -0.1723  0.4662 -0.0604
   99MOL   F23131787   3.551   4.572   0.548 -1.0018 -0.2950  0.4647
   99MOL   C23231788   3.652   4.376   0.455 -0.4119 -0.4357  0.6075
   99MOL   C23331789   3.637   4.270   0.362 -0.1367 -0.3123  0.4070
   99MOL   C23431790   3.618   4.118   0.074 -0.0724 -0.1981  0.1285
   99MOL   H23531791   3.406   4.157   0.136  1.1519  1.5584 -1.4241
   99MOL   H23631792   3.310   4.303   0.270  0.3027 -2.1984 -1.0608
   99MOL   H23731793   3.331   4.496   0.422 -0.4735 -0.2546  0.0015
   99MOL   H23831794   3.750   4.394   0.495 -0.1990 -1.8474  0.7463
   99MOL   H23931795   3.724   4.216   0.328  0.6007  2.5174 -2.4244
   99MOL   H24031796   3.697   4.059   0.120  1.4215  0.4965 -1.5079
   99MOL   H24131797   3.566   4.062   8.231 -1.8691  1.2832  0.2304
   99MOL   C24231798   3.677   4.254   0.026  0.2609 -0.2985 -0.6492
   99MOL   C24331799   3.800   4.233   8.173 -0.0307 -0.0620  0.0676
   99MOL   C24431800   3.808   4.133   8.070  0.2660 -0.4342  0.1655
   99MOL   C24531801   3.926   4.115   7.996 -0.3323  0.0355  0.0905
   99MOL   C24631802   4.032   4.216   8.002  1.0431  0.0643  0.2191
   99MOL   F24731803   4.139   4.199   7.920 -0.2944 -0.1675 -0.3577
   99MOL   C24831804   4.028   4.318   8.100  0.7518  0.5417 -0.2221
   99MOL   C24931805   3.908   4.330   8.178 -0.1457 -0.2679 -0.0796
   99MOL   C25031806   3.570   4.337   8.179  0.1816 -0.4711  0.2647
   99MOL   H25131807   3.717   4.306   0.113  0.3444  0.2266 -1.0001
   99MOL   H25231808   3.721   4.073   8.047 -0.0904 -0.1098  0.6756
   99MOL   H25331809   3.928   4.031   7.927  0.4326  0.4872 -0.4388
   99MOL   H25431810   4.110   4.387   8.113 -1.6418  3.7312 -1.3169
   99MOL   H25531811   3.890   4.409   0.015 -1.3982 -2.0258  1.6121
   99MOL   H25631812   3.607   4.342   8.076 -0.4838 -0.9241 -0.0051
   99MOL   H25731813   3.477   4.279   8.176 -0.3870  0.4250  0.3745
   99MOL   C25831814   3.531   4.480   8.226 -0.1086  0.5763 -0.4394
   99MOL   C25931815   3.645   4.580   8.219  0.2940  0.4331 -0.0853
   99MOL   C26031816   3.696   4.628   8.095  0.3122  0.1760 -0.5545
   99MOL   C26131817   3.798   4.728   8.091  0.8630 -0.2529  0.8392
   99MOL   C26231818   3.865   4.761   8.210  0.5097  0.4579  0.1272
   99MOL   F26331819   3.968   4.859   8.209  0.4585  0.5628  0.2601
   99MOL   C26431820   3.828   4.703   0.095  0.7400  0.4714  0.1771
   99MOL   C26531821   3.714   4.621   0.102 -0.0581  0.5183 -0.6270
   99MOL   C26631822   3.410   4.534   8.138  0.0350 -0.1879 -0.3556
   99MOL   H26731823   3.508   4.469   0.097  0.5250 -2.3427 -0.5531
   99MOL   H26831824   3.656   4.593   8.001  1.7014  2.0183 -1.8700
   99MOL   H26931825   3.823   4.774   7.997  1.6375 -1.4338  0.4443
   99MOL   H27031826   3.873   4.727   0.190  0.4107 -1.7627  0.9311
   99MOL   H27131827   3.688   4.575   0.196  0.2225 -1.6243 -1.5612
   99MOL   H27231828   3.446   4.528   8.035  2.5849 -0.9480  0.5291
   99MOL   H27331829   3.321   4.472   8.145  0.1849 -0.4338 -0.6064
   99MOL   C27431830   3.369   4.678   8.175 -0.1731  0.1538 -0.6121
   99MOL   C27531831   3.256   4.731   8.086 -0.4788  0.0802 -0.0996
   99MOL   C27631832   3.133   4.661   8.074  0.0371 -0.0382 -0.6656
   99MOL   C27731833   3.033   4.701   7.977 -0.1549  0.6941  0.0716
   99MOL   C27831834   3.074   4.803   7.895  0.3881  0.3244  0.5282
   99MOL   F27931835   2.991   4.840   7.788  0.0843 -0.1793 -0.1067
   99MOL   C28031836   3.198   4.872   7.896  1.0096 -0.2769 -0.4424
   99MOL   C28131837   3.288   4.840   7.996  0.6466 -0.5235 -0.5974
   99MOL   C28231838   3.320   4.694   0.088  0.1993 -0.1591 -0.3284
   99MOL   H28331839   3.447   4.751   8.151 -0.8941  0.9192 -0.6384
   99MOL   H28431840   3.107   4.588   8.150 -0.8733  1.4189  0.4497
   99MOL   H28531841   2.936   4.658   7.958  0.0917  1.0092 -2.0157
   99MOL   H28631842   3.214   4.949   7.822 -0.1426  0.7829  0.3918
   99MOL   H28731843   3.388   4.882   8.004  0.0692  0.6617  0.4920
   99MOL   H28831844   3.257   4.607   0.111  2.0392 -1.6077 -0.6441
   99MOL   H28931845   3.408   4.680   0.151 -0.7937  1.5410  1.4993
   99MOL   C29031846   3.240   4.816   0.142  0.4740  0.0433  0.2896
   99MOL   C29131847   3.218   4.792   0.292  0.1703  0.3638 -0.1279
   99MOL   C29231848   3.322   4.794   0.381 -0.5943  0.4376 -0.0071
   99MOL   C29331849   3.304   4.760   0.516  0.0812 -0.1340  0.4164
   99MOL   C29431850   3.173   4.752   0.562 -0.6390  0.2725 -0.3445
   99MOL   F29531851   3.160   4.737   0.696 -0.2315  0.2581 -0.3696
   99MOL   C29631852   3.060   4.753   0.475 -0.4955  0.4905  0.4472
   99MOL   C29731853   3.086   4.785   0.341  0.3747 -0.1062  0.2846
   99MOL   C29831854   3.317   4.942   0.106 -0.7639  0.7001 -0.2739
   99MOL   H29931855   3.144   4.805   0.093  1.4150 -2.3384 -1.0824
   99MOL   H30031856   3.423   4.807   0.345 -0.1518 -1.9003  0.3398
   99MOL   H30131857   3.380   4.767   0.592 -0.8123 -1.1528  1.4310
   99MOL   H30231858   2.963   4.746   0.521 -0.8320 -3.0223 -0.6532
   99MOL   H30331859   3.003   4.780   0.272  1.7885 -1.5272 -1.3400
   99MOL   H30431860   3.391   4.955   0.185  1.0979  1.0364 -2.0256
   99MOL   H30531861   3.369   4.922   0.012  1.4870  2.3827  0.5752
   99MOL   C30631862   3.241   5.072   0.081 -0.5238 -0.1319  0.1338
   99MOL   C30731863   3.145   5.118   0.191  0.0965  0.3096  0.3652
   99MOL   C30831864   3.003   5.126   0.157  0.4198  0.4941  0.3740
   99MOL   C30931865   2.905   5.160   0.253  0.0235 -0.0734 -0.0823
   99MOL   C31031866   2.940   5.175   0.388  0.4169 -0.2859 -0.1410
   99MOL   F31131867   2.844   5.194   0.482  0.1739 -0.2998 -0.2807
   99MOL   C31231868   3.077   5.170   0.423 -0.1637 -0.0788 -0.0093
   99MOL   C31331869   3.176   5.144   0.325  0.2815 -0.9195  0.2210
   99MOL   C31431870   3.346   5.182   0.049  0.1260 -0.0591 -0.3146
   99MOL   H31531871   3.177   5.055   8.229  1.0651 -0.2033 -1.0428
   99MOL   H31631872   2.960   5.111   0.059  0.4789 -2.9693  0.8043
   99MOL   H31731873   2.802   5.180   0.227  0.3328  0.8125 -0.6206
   99MOL   H31831874   3.106   5.186   0.526  0.0565 -1.2335  0.1169
   99MOL   H31931875   3.277   5.140   0.364  0.3142 -1.5764  0.0767
   99MOL   H32031876   3.294   5.276   0.031  0.1702 -0.0418 -0.3539
   99MOL   H32131877   3.401   5.202   0.140  0.9954 -0.6219 -0.7129
   99MOL   H32231878   3.410   5.155   8.200  0.1549 -2.7143  0.5298
  100MOL     C131879   7.887   5.758   6.371  0.0738 -0.0436  0.5249
  100MOL     C231880   7.949   5.645   6.451  0.6447 -0.5747  0.5301
  100MOL     C331881   8.039   5.556   6.396 -0.0612 -0.2936 -0.0640
  100MOL     C431882   8.105   5.460   6.475  0.2197 -0.3345  0.2093
  100MOL     C531883   8.071   5.449   6.614 -0.1201 -0.6908 -0.0580
  100MOL     F631884   8.135   5.359   6.687 -0.0042 -0.1923 -0.1224
  100MOL     C731885   7.971   5.531   6.669  0.2125 -0.5901 -0.0793
  100MOL     C831886   7.913   5.633   6.588 -0.2711 -0.1183 -0.2384
  100MOL     C931887   7.935   5.896   6.405 -0.5956  0.4218  0.0645
  100MOL    H1031888   7.779   5.753   6.380 -0.0966  0.1782 -1.3196
  100MOL    H1131889   8.061   5.564   6.290 -1.7645  1.9459 -0.3078
  100MOL    H1231890   8.184   5.398   6.436 -0.1090 -1.3280  1.0921
  100MOL    H1331891   7.943   5.517   6.773  0.3986  2.0067  0.3698
  100MOL    H1431892   7.848   5.709   6.628  0.8703  0.4256  0.6289
  100MOL    H1531893   7.892   5.968   6.336  1.2085 -0.9412 -2.5428
  100MOL    H1631894   7.908   5.924   6.507 -0.0694 -1.8865  0.8703
  100MOL    H1731895   7.917   5.754   6.266 -1.3747 -0.1976  0.1115
  100MOL    C1831896   8.096   5.901   6.402  0.3547  0.1629 -0.2571
  100MOL    C1931897   8.161   5.889   6.265  0.3426 -0.3681  0.1154
  100MOL    C2031898   0.014   5.777   6.237 -0.5644 -0.5268  0.1497
  100MOL    C2131899   0.088   5.782   6.113  0.1227 -0.0427  0.4894
  100MOL    C2231900   0.062   5.879   6.018  0.6445  0.2741  0.2924
  100MOL    F2331901   0.115   5.869   5.898  0.5874 -0.6452 -0.3851
  100MOL    C2431902   8.204   5.981   6.042  0.2981 -0.7080 -0.0851
  100MOL    C2531903   8.130   5.987   6.165 -0.5738  0.0722  0.0421
  100MOL    C2631904   8.128   6.039   6.479  0.4812  0.2904  0.3783
  100MOL    H2731905   8.132   5.818   6.464  1.0443  2.7768  3.0006
  100MOL    H2831906   0.041   5.704   6.313  0.4767 -1.2958 -0.9253
  100MOL    H2931907   0.167   5.711   6.090 -0.3338  0.1599 -1.7679
  100MOL    H3031908   8.182   6.060   5.971 -0.7434 -2.0995 -1.3564
  100MOL    H3131909   8.065   6.070   6.189 -0.1632  0.9014 -1.6574
  100MOL    H3231910   8.233   6.061   6.459  0.4064 -1.4337 -2.1615
  100MOL    H3331911   8.076   6.125   6.437  1.9565  1.4823  0.9635
  100MOL    C3431912   8.118   6.052   6.633  0.1638 -0.0533  0.2449
  100MOL    C3531913   0.015   6.010   6.695 -0.2190 -0.4418  0.4733
  100MOL    C3631914   0.125   6.094   6.682 -0.9532  0.5186 -0.3045
  100MOL    C3731915   0.248   6.057   6.733 -0.3632 -0.0209  0.3879
  100MOL    C3831916   0.267   5.931   6.791  0.5007 -0.2305 -0.4526
  100MOL    F3931917   0.389   5.885   6.834  0.0993  0.1927 -0.1556
  100MOL    C4031918   0.158   5.845   6.799  0.4771  0.3994  0.2274
  100MOL    C4131919   0.027   5.882   6.761  0.3808 -0.8122 -0.0721
  100MOL    C4231920   8.083   6.203   6.668  0.1733  0.8398  0.1478
  100MOL    H4331921   8.039   5.988   6.674  1.3070 -0.4521  1.8733
  100MOL    H4431922   0.120   6.193   6.639  0.0401  0.3006 -0.9355
  100MOL    H4531923   0.332   6.124   6.719  1.1394 -1.2059  3.1421
  100MOL    H4631924   0.173   5.750   6.849  0.6715  0.0352 -0.5067
  100MOL    H4731925   8.175   5.818   6.777 -0.0878 -0.5749 -1.5979
  100MOL    H4831926   8.102   6.236   6.770  1.9743  1.3036 -0.3252
  100MOL    H4931927   8.145   6.274   6.613  0.5685  1.3532  1.2320
  100MOL    C5031928   7.940   6.253   6.638  0.1372 -0.1565 -0.0439
  100MOL    C5131929   7.842   6.193   6.736  0.2989  0.6459  0.4967
  100MOL    C5231930   7.727   6.123   6.684 -0.5815  0.2232 -0.0354
  100MOL    C5331931   7.623   6.072   6.764 -0.0102  0.4828  0.2462
  100MOL    C5431932   7.635   6.084   6.899 -0.5881 -0.5162 -0.3153
  100MOL    F5531933   7.558   6.023   6.985  0.3501 -0.0897  0.0778
  100MOL    C5631934   7.749   6.146   6.952  0.5179 -0.3647 -0.2140
  100MOL    C5731935   7.852   6.198   6.870 -0.3871 -0.0863 -0.7158
  100MOL    C5831936   7.917   6.408   6.640  0.2017 -0.0542  0.0421
  100MOL    H5931937   7.919   6.225   6.535  2.5818  2.4038 -1.3090
  100MOL    H6031938   7.724   6.110   6.577 -0.3069  1.4230 -0.1987
  100MOL    H6131939   7.533   6.024   6.727  1.6565 -1.9144 -0.8486
  100MOL    H6231940   7.763   6.151   7.059 -3.9348 -3.0932  0.5829
  100MOL    H6331941   7.944   6.230   6.917 -1.2734  1.4183  0.0708
  100MOL    H6431942   7.819   6.438   6.603  0.6829  4.3479  2.0765
  100MOL    H6531943   7.907   6.449   6.740  0.3393  2.8171 -1.0598
  100MOL    C6631944   8.010   6.495   6.566 -0.8786  0.3957  0.0970
  100MOL    C6731945   8.044   6.435   6.427 -1.0029  0.5151  0.0449
  100MOL    C6831946   7.938   6.404   6.340 -0.0195  0.2701  0.3109
  100MOL    C6931947   7.970   6.369   6.207 -0.4024  1.0376  0.3589
  100MOL    C7031948   8.104   6.345   6.165  0.0473 -0.0226  0.5931
  100MOL    F7131949   8.127   6.286   6.048 -0.1674 -0.0727  0.2869
  100MOL    C7231950   8.212   6.381   6.255  0.2979  0.5206  0.8334
  100MOL    C7331951   8.180   6.424   6.384 -0.7293  0.0782 -0.3371
  100MOL    C7431952   7.956   6.641   6.550 -0.3774  0.0923 -0.5459
  100MOL    H7531953   8.102   6.508   6.624  0.9756  0.9843 -2.8516
  100MOL    H7631954   7.837   6.421   6.373 -0.2913  1.6040 -1.1667
  100MOL    H7731955   7.889   6.335   6.143 -0.5605  2.0249  0.0207
  100MOL    H7831956   0.080   6.375   6.221 -0.1750 -0.1964 -0.5242
  100MOL    H7931957   0.026   6.452   6.449 -1.4116  0.1263  0.4984
  100MOL    H8031958   7.999   6.698   6.467  0.7315 -0.0449 -0.0712
  100MOL    H8131959   7.857   6.640   6.504 -0.7204  1.4688  0.1627
  100MOL    C8231960   7.961   6.726   6.679 -0.2504  0.7309 -0.1289
  100MOL    C8331961   8.094   6.800   6.704 -0.1513  0.0188  0.5471
  100MOL    C8431962   8.173   6.769   6.814 -0.5457  0.2498  0.3832
  100MOL    C8531963   0.054   6.849   6.838  0.4234  0.3730  0.4520
  100MOL    C8631964   0.092   6.952   6.745 -0.5354 -0.3907  0.7228
  100MOL    F8731965   0.202   7.026   6.767 -0.0803 -0.2264 -0.6445
  100MOL    C8831966   0.024   6.963   6.629  0.2631  0.5014  0.7137
  100MOL    C8931967   8.138   6.897   6.603 -0.1974 -0.4260  0.6274
  100MOL    C9031968   7.844   6.829   6.683  0.4522 -0.3233 -0.0555
  100MOL    H9131969   7.950   6.655   6.760 -2.0287  2.4843  1.1940
  100MOL    H9231970   8.149   6.684   6.876  2.8057  0.1753  1.6857
  100MOL    H9331971   0.119   6.838   6.924 -1.2094  1.7597  1.9270
  100MOL    H9431972   0.052   7.035   6.553 -0.1410 -0.5010 -0.4052
  100MOL    H9531973   8.086   6.912   6.510  0.3711 -1.0544  0.2061
  100MOL    H9631974   7.866   6.889   6.772  1.1185 -1.2268  0.3967
  100MOL    H9731975   7.848   6.892   6.594 -0.3996 -1.5366 -0.9536
  100MOL    C9831976   7.699   6.775   6.698  0.3045  0.5555  0.3951
  100MOL    C9931977   7.688   6.678   6.812 -0.0009 -0.0242 -0.0987
  100MOL   C10031978   7.711   6.717   6.947 -0.2080 -0.3799  0.0090
  100MOL   C10131979   7.707   6.635   7.059  0.3584  0.0497  1.0440
  100MOL   C10231980   7.663   6.503   7.041  0.2445  0.2021  0.4971
  100MOL   F10331981   7.657   6.408   7.138 -0.0532 -0.1314  1.2290
  100MOL   C10431982   7.623   6.462   6.913  0.5657 -0.3072  0.0067
  100MOL   C10531983   7.633   6.548   6.803  0.0346 -0.7031  0.4731
  100MOL   C10631984   7.598   6.892   6.710  0.2852 -0.5895  0.0876
  100MOL   H10731985   7.674   6.724   6.605 -0.2831  0.8392  0.3958
  100MOL   H10831986   7.742   6.820   6.960  1.0308 -0.7395 -0.0332
  100MOL   H10931987   7.733   6.671   7.157  1.2706  1.1904  0.4016
  100MOL   H11031988   7.591   6.359   6.906 -0.8148 -0.0472  2.1471
  100MOL   H11131989   7.604   6.505   6.708  0.9164  1.2407 -0.7149
  100MOL   H11231990   7.644   6.947   6.792 -0.4572 -0.7214  0.5963
  100MOL   H11331991   7.610   6.953   6.621 -2.4510 -0.8218 -0.4897
  100MOL   C11431992   7.447   6.857   6.731 -0.0241 -0.1158  0.0348
  100MOL   C11531993   7.411   6.866   6.881 -0.2871  0.0163 -0.5729
  100MOL   C11631994   7.366   6.750   6.955  0.5992 -0.0621  0.3108
  100MOL   C11731995   7.346   6.760   7.096  0.2935  0.3450  0.4844
  100MOL   C11831996   7.346   6.881   7.158 -0.0909  0.0121 -0.4040
  100MOL   F11931997   7.332   6.891   7.285 -0.1723  0.4278 -0.3831
  100MOL   C12031998   7.386   6.999   7.090  0.2400 -0.6142  0.1939
  100MOL   C12131999   7.423   6.991   6.950 -0.1851 -0.8958 -0.5979
  100MOL   C12232000   7.359   6.959   6.649 -0.3321 -0.8566  0.7489
  100MOL   H12332001   7.424   6.761   6.684 -0.3206 -0.0742  0.0914
  100MOL   H12432002   7.369   6.653   6.909  1.2756  0.8024 -1.5454
  100MOL   H12532003   7.324   6.668   7.147 -0.6331 -0.9702 -2.2076
  100MOL   H12632004   7.395   7.096   7.137  4.0044 -2.0379  2.6403
  100MOL   H12732005   7.455   7.079   6.897 -3.7626  1.5298  1.0600
  100MOL   H12832006   7.258   6.950   6.689 -0.5588 -0.3823  0.2833
  100MOL   H12932007   7.386   7.062   6.673 -2.2465  0.6430 -3.1215
  100MOL   C13032008   7.352   6.940   6.496 -0.2395 -0.1517 -0.6030
  100MOL   C13132009   7.215   6.880   6.455 -0.0250 -0.7578 -0.3987
  100MOL   C13232010   7.093   6.955   6.450  1.4312 -0.2198  0.5523
  100MOL   C13332011   6.977   6.890   6.402  0.6168 -0.0015  0.0805
  100MOL   C13432012   6.982   6.755   6.357 -0.4381 -0.1848  0.4137
  100MOL   F13532013   6.874   6.700   6.292  0.0588 -0.4235  0.1099
  100MOL   C13632014   7.098   6.678   6.373  0.2953  0.3175  0.3165
  100MOL   C13732015   7.212   6.741   6.423 -0.1504 -0.4839 -0.0632
  100MOL   C13832016   7.380   7.066   6.416 -0.0499 -0.4192  0.1963
  100MOL   H13932017   7.429   6.866   6.479 -1.7925 -2.2110  1.0324
  100MOL   H14032018   7.108   7.053   6.492  1.9305  0.1616 -0.5003
  100MOL   H14132019   6.879   6.935   6.399 -0.8539 -3.1130 -0.8099
  100MOL   H14232020   7.100   6.577   6.336  1.6971  0.8804 -1.2226
  100MOL   H14332021   7.307   6.689   6.421 -1.1391 -2.3034 -2.3411
  100MOL   H14432022   7.299   7.137   6.430 -1.1277 -1.6985  0.5750
  100MOL   H14532023   7.465   7.115   6.462 -0.5173  0.7117 -0.1224
  100MOL   C14632024   7.427   7.052   6.271 -0.0590 -0.6733  0.6017
  100MOL   C14732025   7.312   6.998   6.182  0.6653 -0.1401  0.2446
  100MOL   C14832026   7.199   7.080   6.145 -0.6245  0.4502  0.2263
  100MOL   C14932027   7.094   7.028   6.063  0.4509  0.2361 -0.1922
  100MOL   C15032028   7.099   6.896   6.016 -0.7142  0.8663  0.4882
  100MOL   F15132029   7.012   6.845   5.920  0.3934 -0.3259  0.0000
  100MOL   C15232030   7.204   6.816   6.055 -0.3696 -0.7167  0.2319
  100MOL   C15332031   7.313   6.866   6.132  0.5887 -0.7376 -0.2567
  100MOL   C15432032   7.486   7.179   6.209  0.4305  0.2217  0.0941
  100MOL   H15532033   7.506   6.977   6.267  1.1656  0.5495  1.3629
  100MOL   H15632034   7.179   7.181   6.178 -1.0231 -0.0142  1.4688
  100MOL   H15732035   7.004   7.086   6.043 -0.3777 -1.1182 -0.4288
  100MOL   H15832036   7.216   6.714   6.021 -1.4632 -0.9159  0.4304
  100MOL   H15932037   7.385   6.797   6.172 -0.8396 -1.2623  1.4698
  100MOL   H16032038   7.407   7.248   6.181 -1.7784 -1.6278  1.6290
  100MOL   H16132039   7.549   7.234   6.280  0.6200 -0.1433  0.2092
  100MOL   C16232040   7.574   7.151   6.086  0.4903  0.1139 -0.6008
  100MOL   C16332041   7.597   7.281   6.005 -0.3459  0.2690 -0.1494
  100MOL   C16432042   7.545   7.292   5.873 -0.2795  0.1224  0.2489
  100MOL   C16532043   7.569   7.409   5.794 -0.2464 -0.2194 -0.6308
  100MOL   C16632044   7.661   7.508   5.848 -0.5052 -0.3855  0.2695
  100MOL   F16732045   7.704   7.609   5.770  0.3850  0.2744 -0.1018
  100MOL   C16832046   7.720   7.485   5.978 -0.5341 -0.0657  0.0951
  100MOL   C16932047   7.692   7.375   6.057 -0.4877 -0.3934 -0.1963
  100MOL   C17032048   7.707   7.075   6.114  0.3479  0.2325 -0.9146
  100MOL   H17132049   7.512   7.089   6.022  2.0176  0.8381 -2.8373
  100MOL   H17232050   7.489   7.208   5.833  1.8865 -0.9362 -0.6846
  100MOL   H17332051   7.526   7.418   5.695 -1.7423  0.4143  0.0646
  100MOL   H17432052   7.794   7.554   6.015  0.4700 -2.0447  1.8562
  100MOL   H17532053   7.752   7.370   6.147  0.8538 -0.7983 -1.0935
  100MOL   H17632054   7.773   7.128   6.183 -0.6352  2.1021 -1.3727
  100MOL   H17732055   7.681   6.981   6.161 -0.9882  1.5043  0.9679
  100MOL   C17832056   7.798   7.057   5.996 -0.0501 -0.2358 -0.4098
  100MOL   C17932057   7.926   6.990   6.030 -0.1314 -0.5629 -0.4019
  100MOL   C18032058   8.046   7.066   6.029 -0.6792 -0.5459  0.0708
  100MOL   C18132059   8.167   7.012   6.084  0.9763  0.4476 -0.5551
  100MOL   C18232060   8.170   6.880   6.136 -0.3492  0.0202  0.7747
  100MOL   F18332061   0.056   6.836   6.188  0.0387 -0.0039  0.0527
  100MOL   C18432062   8.055   6.806   6.148  0.2360 -0.8057 -0.4389
  100MOL   C18532063   7.935   6.863   6.094 -0.5812 -0.3566  0.5532
  100MOL   C18632064   7.737   6.989   5.870 -0.0041 -0.2458  0.1302
  100MOL   H18732065   7.821   7.159   5.963 -2.1238  0.0131 -1.1698
  100MOL   H18832066   8.040   7.164   5.982  1.3628  0.6148  2.1318
  100MOL   H18932067   0.026   7.066   6.073  2.1515 -1.6117 -0.8212
  100MOL   H19032068   8.047   6.710   6.197  1.8058 -0.2822  0.8846
  100MOL   H19132069   7.841   6.810   6.098 -1.7945  1.4361 -2.8856
  100MOL   H19232070   7.721   6.884   5.895  0.8289 -0.3847  0.0607
  100MOL   H19332071   7.637   7.032   5.856  0.9936  1.5967 -1.5529
  100MOL   C19432072   7.819   7.018   5.742 -0.4724  0.4921  0.1148
  100MOL   C19532073   7.737   6.943   5.635 -0.2978  0.6698 -0.7101
  100MOL   C19632074   7.736   6.804   5.621 -0.0989 -0.0458  0.4316
  100MOL   C19732075   7.660   6.737   5.522  0.7347 -0.5479  0.1076
  100MOL   C19832076   7.591   6.815   5.430  0.4693 -0.2686 -0.4699
  100MOL   F19932077   7.533   6.756   5.324  0.1293 -0.0881 -0.6525
  100MOL   C20032078   7.574   6.953   5.455  0.8459 -0.1982 -0.8187
  100MOL   C20132079   7.647   7.011   5.555 -0.0581 -0.1322  0.0854
  100MOL   C20232080   7.853   7.162   5.704 -0.0156 -0.3720 -0.1061
  100MOL   H20332081   7.913   6.966   5.760 -0.8849 -0.2092  0.2504
  100MOL   H20432082   7.792   6.742   5.689 -1.0308  0.1411  1.3884
  100MOL   H20532083   7.673   6.630   5.508  2.0895 -0.4930  0.8455
  100MOL   H20632084   7.523   7.015   5.382  0.7884 -1.4536 -1.8596
  100MOL   H20732085   7.634   7.118   5.562 -1.2441 -0.1899 -1.1050
  100MOL   H20832086   7.756   7.211   5.708 -0.1201 -0.7632  3.0567
  100MOL   H20932087   7.917   7.209   5.778  0.6062 -2.2833  0.6113
  100MOL   C21032088   7.919   7.193   5.566  0.0388 -0.2133  0.6378
  100MOL   C21132089   7.934   7.350   5.545 -0.7589  0.1265 -0.4800
  100MOL   C21232090   7.961   7.447   5.645  0.2877 -0.0803  0.5813
  100MOL   C21332091   7.957   7.585   5.619 -0.1077 -0.4177  0.4543
  100MOL   C21432092   7.947   7.636   5.481  0.4450  0.8500 -0.8543
  100MOL   F21532093   7.966   7.765   5.449  0.3145  0.3162 -0.6148
  100MOL   C21632094   7.926   7.538   5.376  0.6156 -0.2475  0.8003
  100MOL   C21732095   7.925   7.401   5.410  0.2737 -0.4294  0.7875
  100MOL   C21832096   8.060   7.123   5.548  0.3000  0.1604 -0.6596
  100MOL   H21932097   7.859   7.160   5.481  0.6916 -2.5062  1.0149
  100MOL   H22032098   8.003   7.424   5.742 -0.2691 -0.3740  0.7487
  100MOL   H22132099   7.989   7.654   5.696  1.6547 -1.5831  0.7923
  100MOL   H22232100   7.912   7.574   5.275 -2.5268 -0.4766  1.1057
  100MOL   H22332101   7.907   7.329   5.331 -0.1960  1.8022 -1.1794
  100MOL   H22432102   8.122   7.196   5.497 -0.6083  1.8451  0.5924
  100MOL   H22532103   8.110   7.127   5.645 -0.2635 -0.9037 -0.3113
  100MOL   C22632104   8.055   6.986   5.480 -0.0046  0.1138  0.4897
  100MOL   C22732105   8.022   6.998   5.328  0.7507  0.5489 -0.3083
  100MOL   C22832106   8.097   7.082   5.247 -0.3452  0.2023  0.7981
  100MOL   C22932107   8.064   7.108   5.113 -0.1551  0.0340  0.0671
  100MOL   C23032108   7.968   7.022   5.044  0.1121 -0.2820 -0.0399
  100MOL   F23132109   7.945   7.041   4.911 -0.1409 -0.2478  0.1435
  100MOL   C23232110   7.893   6.930   5.124 -0.0003 -0.1448  0.5834
  100MOL   C23332111   7.919   6.920   5.263 -0.5545  0.4094  0.4330
  100MOL   C23432112   8.189   6.908   5.490  0.0338  0.0174  0.3048
  100MOL   H23532113   7.981   6.930   5.536 -0.3134  0.4031  0.3695
  100MOL   H23632114   8.178   7.139   5.291  0.5492 -0.8841  0.5880
  100MOL   H23732115   8.118   7.181   5.054 -0.0795 -0.2044 -0.1645
  100MOL   H23832116   7.821   6.865   5.076 -0.6674 -0.3013  1.7922
  100MOL   H23932117   7.869   6.843   5.319 -0.7464  0.0795 -0.1868
  100MOL   H24032118   8.208   6.834   5.413  1.1739 -0.0972  0.6786
  100MOL   H24132119   0.030   6.978   5.453 -1.1590  1.9520  1.4413
  100MOL   C24232120   8.217   6.832   5.612 -1.6852  0.6211  0.6786
  100MOL   C24332121   8.127   6.711   5.639  0.6066 -0.1469 -0.1570
  100MOL   C24432122   8.089   6.623   5.534 -0.1861 -0.8902  0.5628
  100MOL   C24532123   8.007   6.511   5.556  0.1858  0.0885 -0.2473
  100MOL   C24632124   7.971   6.489   5.689 -1.1705 -0.1576 -0.1322
  100MOL   F24732125   7.897   6.376   5.712 -0.0315  0.4296  0.7252
  100MOL   C24832126   7.999   6.581   5.797 -1.0649 -0.0615  0.2636
  100MOL   C24932127   8.085   6.690   5.768  0.1414  0.2304  0.2982
  100MOL   C25032128   0.114   6.762   5.607  0.4520 -0.2802 -0.1507
  100MOL   H25132129   8.220   6.897   5.699  0.4826 -0.1843  1.2324
  100MOL   H25232130   8.119   6.633   5.431 -0.3892 -3.5761  0.1892
  100MOL   H25332131   7.983   6.438   5.480 -0.5571 -0.9450  0.9748
  100MOL   H25432132   7.964   6.558   5.896  1.4929  0.7285  1.3793
  100MOL   H25532133   8.129   6.754   5.843 -1.0299  0.6913  0.5914
  100MOL   H25632134   0.123   6.718   5.706 -0.8757 -1.3416 -0.4945
  100MOL   H25732135   0.115   6.679   5.536 -0.6782  0.0325 -0.5406
  100MOL   C25832136   0.247   6.845   5.588 -0.1164 -0.6414  0.3036
  100MOL   C25932137   0.235   6.985   5.657 -0.6019  0.4098  0.2792
  100MOL   C26032138   0.212   6.997   5.799 -0.3707  0.0975 -0.4411
  100MOL   C26132139   0.200   7.118   5.864  0.1252  0.1536  0.4276
  100MOL   C26232140   0.213   7.234   5.787 -0.2735 -0.2319 -0.4711
  100MOL   F26332141   0.179   7.353   5.843  0.3687 -0.5463 -0.4814
  100MOL   C26432142   0.249   7.229   5.652  0.1925  0.2302  0.0726
  100MOL   C26532143   0.260   7.108   5.582  0.4502  0.1877 -0.2389
  100MOL   C26632144   0.374   6.773   5.630  0.0469  0.0496  0.4674
  100MOL   H26732145   0.256   6.869   5.482 -0.3716 -1.2621  0.1420
  100MOL   H26832146   0.210   6.906   5.857  1.2950  0.2641 -0.0965
  100MOL   H26932147   0.176   7.132   5.968  0.7589 -2.9188  1.0346
  100MOL   H27032148   0.269   7.322   5.600 -0.0795  1.5324  2.2295
  100MOL   H27132149   0.282   7.117   5.476  1.5824  2.1851  0.1415
  100MOL   H27232150   0.364   6.734   5.731  1.5685 -2.0935 -0.1635
  100MOL   H27332151   0.377   6.685   5.566  1.7409  0.0481  0.5263
  100MOL   C27432152   0.504   6.853   5.624 -0.1899  0.3228 -0.5259
  100MOL   C27532153   0.621   6.782   5.700  0.3574 -0.3383 -0.2188
  100MOL   C27632154   0.656   6.825   5.831 -0.4193  0.3084 -0.5290
  100MOL   C27732155   0.751   6.751   5.910 -0.1832  0.4463  0.3312
  100MOL   C27832156   0.813   6.638   5.856  1.3652 -0.4034 -0.1118
  100MOL   F27932157   0.898   6.565   5.930  0.7365 -0.7189  0.2604
  100MOL   C28032158   0.776   6.600   5.723 -0.0212  0.2426 -0.8209
  100MOL   C28132159   0.683   6.671   5.646 -0.2276  0.1141 -0.6488
  100MOL   C28232160   0.543   6.896   5.482  0.4155  0.3709 -0.0695
  100MOL   H28332161   0.483   6.947   5.676 -1.4051  0.4247 -1.1710
  100MOL   H28432162   0.604   6.907   5.879  0.0750 -0.1966  0.9192
  100MOL   H28532163   0.778   6.790   6.007 -0.2978  0.9113  0.1782
  100MOL   H28632164   0.833   6.512   5.693  2.5327  1.4214  0.4218
  100MOL   H28732165   0.654   6.642   5.546 -1.7718  1.3839 -0.5926
  100MOL   H28832166   0.574   6.804   5.433 -1.1778 -0.3800  0.3130
  100MOL   H28932167   0.461   6.950   5.434  0.3672  0.8738  0.5744
  100MOL   C29032168   0.670   6.981   5.466  0.1659  0.1075 -0.4138
  100MOL   C29132169   0.705   6.994   5.315  0.0577  0.1660 -0.1040
  100MOL   C29232170   0.619   7.074   5.237  0.2979  0.0572  0.4424
  100MOL   C29332171   0.638   7.094   5.101 -0.2347  0.0980 -0.1124
  100MOL   C29432172   0.755   7.035   5.043  0.2785  0.2622  0.0773
  100MOL   F29532173   0.773   7.041   4.907 -0.0802  0.2310  0.2005
  100MOL   C29632174   0.842   6.958   5.118  0.3598  0.2353  1.0127
  100MOL   C29732175   0.823   6.929   5.255  0.0729 -0.1629 -0.2240
  100MOL   C29832176   0.657   7.117   5.534  0.3250 -0.3371 -0.5029
  100MOL   H29932177   0.748   6.927   5.521 -1.8704 -2.1164  0.4081
  100MOL   H30032178   0.528   7.113   5.279  1.2233  0.7488  1.8571
  100MOL   H30132179   0.576   7.150   5.032  0.6271  1.3677  0.1109
  100MOL   H30232180   0.929   6.917   5.069 -0.9697  0.5630 -1.7209
  100MOL   H30332181   0.892   6.874   5.317 -1.4499 -0.4893  1.2379
  100MOL   H30432182   0.561   7.160   5.507 -1.5235 -2.9099  1.6454
  100MOL   H30532183   0.637   7.095   5.639 -3.0973 -0.5183 -1.1369
  100MOL   C30632184   0.764   7.222   5.511 -0.3819  0.0257 -0.4846
  100MOL   C30732185   0.725   7.354   5.576  0.3765  0.3936 -0.1865
  100MOL   C30832186   0.620   7.427   5.514  1.0575  0.2028  0.2748
  100MOL   C30932187   0.573   7.550   5.562  0.7158 -0.3566 -0.2220
  100MOL   C31032188   0.639   7.605   5.674  0.5426 -0.2446 -0.0451
  100MOL   F31132189   0.609   7.729   5.721  0.5455  0.3627  0.0763
  100MOL   C31232190   0.738   7.531   5.745 -0.1843  0.1992 -0.1142
  100MOL   C31332191   0.778   7.406   5.695 -0.1090 -0.9719  0.8773
  100MOL   C31432192   0.907   7.170   5.536  0.0764  0.7000 -0.2423
  100MOL   H31532193   0.761   7.242   5.404 -1.5249  0.5901 -0.3494
  100MOL   H31632194   0.581   7.392   5.419  0.0006  0.6017  0.5570
  100MOL   H31732195   0.491   7.600   5.514  0.0670 -0.7456  0.4728
  100MOL   H31832196   0.781   7.567   5.838 -0.4782  0.7687 -0.1978
  100MOL   H31932197   0.859   7.360   5.749 -0.1050 -1.7478  0.2282
  100MOL   H32032198   0.923   7.143   5.640  1.9450 -0.5147 -0.8237
  100MOL   H32132199   0.910   7.079   5.475 -1.9304 -0.3531  1.1851
  100MOL   H32232200   0.994   7.233   5.519  1.0042 -0.9382 -1.7757
  101MOL     C132201   8.105   0.939   7.473 -0.1421  0.1686 -0.1428
  101MOL     C232202   8.039   1.073   7.450 -1.2769 -0.7448 -0.0821
  101MOL     C332203   8.063   1.180   7.535  0.4255 -0.4547  0.2779
  101MOL     C432204   7.997   1.300   7.517  0.0104 -1.0578 -0.1739
  101MOL     C532205   7.905   1.313   7.409  0.2620 -0.0917 -0.0767
  101MOL     F632206   7.834   1.426   7.396 -0.0375  0.6215  0.1583
  101MOL     C732207   7.886   1.207   7.318  0.1391  0.2362 -0.4734
  101MOL     C832208   7.953   1.090   7.342 -0.3916  0.2125  0.0277
  101MOL     C932209   0.017   0.935   7.457  0.0817  0.2265 -0.2123
  101MOL    H1032210   8.057   0.855   7.422  0.0757 -0.0675  0.0451
  101MOL    H1132211   8.131   1.180   7.619 -0.9244 -0.0592  1.3878
  101MOL    H1232212   8.010   1.388   7.579 -2.2483 -0.5602 -0.3696
  101MOL    H1332213   7.796   1.205   7.259 -0.4749  1.0981  0.4114
  101MOL    H1432214   7.923   1.008   7.278  2.0996  0.1505 -1.1053
  101MOL    H1532215   0.063   1.002   7.530  0.5138  0.5942 -0.8196
  101MOL    H1632216   0.037   0.837   7.500  1.8218  1.4148  1.8368
  101MOL    H1732217   8.076   0.909   7.574  0.2082 -0.8055 -0.3318
  101MOL    C1832218   0.082   0.943   7.320  0.3898  0.2948  0.4912
  101MOL    C1932219   0.030   0.833   7.223 -0.2237  0.1429  0.2112
  101MOL    C2032220   8.151   0.858   7.144  0.9664 -0.8320 -0.3660
  101MOL    C2132221   8.104   0.761   7.055 -0.5347  0.6925 -0.8190
  101MOL    C2232222   8.162   0.630   7.056  0.2321 -0.5166 -0.4413
  101MOL    F2332223   8.101   0.530   6.985 -0.4077 -0.1186 -0.4707
  101MOL    C2432224   0.034   0.604   7.143 -0.3883  0.6533 -0.2318
  101MOL    C2532225   0.090   0.706   7.228  0.4085 -0.7992 -0.0012
  101MOL    C2632226   0.089   1.086   7.255 -0.6009 -0.6246 -0.1827
  101MOL    H2732227   0.186   0.914   7.332 -0.0640 -1.1095  1.0994
  101MOL    H2832228   8.105   0.956   7.138  0.4324 -1.0460  0.1818
  101MOL    H2932229   8.019   0.777   6.991 -1.0402  2.0115  0.1617
  101MOL    H3032230   0.055   0.499   7.155  1.3253  0.7346 -2.1881
  101MOL    H3132231   0.173   0.683   7.293  1.1593  0.2738 -0.5633
  101MOL    H3232232   0.138   1.086   7.157  0.4870 -1.8978  0.3529
  101MOL    H3332233   8.220   1.115   7.234 -1.1748 -3.0590 -0.8667
  101MOL    C3432234   0.142   1.198   7.345  0.2765 -0.1572 -0.0035
  101MOL    C3532235   0.277   1.167   7.405 -0.7631  0.0778 -0.3156
  101MOL    C3632236   0.387   1.159   7.317 -0.3967 -0.9339 -0.2610
  101MOL    C3732237   0.517   1.140   7.359 -0.1126 -0.5005 -0.2617
  101MOL    C3832238   0.547   1.123   7.497 -0.5466 -0.3568  0.1922
  101MOL    F3932239   0.673   1.103   7.533 -0.2558 -0.3413 -0.2281
  101MOL    C4032240   0.442   1.128   7.582 -0.6077  0.0441 -0.3220
  101MOL    C4132241   0.306   1.142   7.540 -0.0684 -0.0253 -0.5396
  101MOL    C4232242   0.133   1.337   7.283  0.5834 -0.0298 -0.1477
  101MOL    H4332243   0.075   1.201   7.431  0.2228 -3.2582  0.1177
  101MOL    H4432244   0.375   1.170   7.210  0.9427  3.8483 -0.0595
  101MOL    H4532245   0.597   1.132   7.286  1.1247 -1.0550  1.1249
  101MOL    H4632246   0.470   1.116   7.686  0.9037  1.3813 -0.5493
  101MOL    H4732247   0.223   1.145   7.609  0.5960 -0.9173  0.3160
  101MOL    H4832248   0.189   1.322   7.191  0.1866  1.8078 -0.7120
  101MOL    H4932249   0.031   1.366   7.255  1.1489  2.5470  0.2943
  101MOL    C5032250   0.191   1.453   7.375  0.3379 -0.2515  0.1359
  101MOL    C5132251   0.210   1.586   7.294 -0.2486 -0.5294 -0.2878
  101MOL    C5232252   0.098   1.665   7.259  0.5087 -0.9056 -0.2317
  101MOL    C5332253   0.129   1.783   7.190  0.1647  0.0812 -0.2509
  101MOL    C5432254   0.265   1.823   7.160  0.4430  0.4597  0.4389
  101MOL    F5532255   0.303   1.944   7.111  0.4541  0.4154  0.1641
  101MOL    C5632256   0.372   1.737   7.199 -0.3657 -0.6841  0.8449
  101MOL    C5732257   0.343   1.621   7.261 -0.5187  0.0767 -0.4095
  101MOL    C5832258   0.096   1.468   7.497 -0.0170 -0.8503 -0.3638
  101MOL    H5932259   0.292   1.427   7.410  0.5273  1.5318  0.9693
  101MOL    H6032260   8.234   1.640   7.297  0.2651  2.3672  1.4520
  101MOL    H6132261   0.051   1.843   7.146 -0.7011 -0.1542  0.9481
  101MOL    H6232262   0.476   1.754   7.174 -0.6671 -0.9829 -0.6306
  101MOL    H6332263   0.425   1.554   7.286  0.6730  1.5735 -0.2635
  101MOL    H6432264   8.228   1.482   7.462  0.2287  1.1351 -0.3920
  101MOL    H6532265   0.071   1.374   7.546 -3.6066  0.4208  0.3870
  101MOL    C6632266   0.127   1.577   7.611 -0.7046  0.5469 -0.8277
  101MOL    C6732267   8.226   1.621   7.660 -0.3876  0.6797 -0.2466
  101MOL    C6832268   8.158   1.551   7.768 -0.2332 -0.2269 -0.0701
  101MOL    C6932269   8.025   1.580   7.797 -0.2102 -0.0920 -0.3412
  101MOL    C7032270   7.951   1.674   7.725 -0.2171 -0.4170  0.6612
  101MOL    F7132271   7.826   1.701   7.756 -1.0357 -0.2997 -0.3323
  101MOL    C7232272   8.010   1.740   7.615 -0.9367  0.2352 -0.5749
  101MOL    C7332273   8.151   1.716   7.588  0.4165  0.3788 -0.2150
  101MOL    C7432274   0.236   1.517   7.712  0.4305  0.1876 -0.4587
  101MOL    H7532275   0.170   1.664   7.562  1.7782 -0.2736 -0.1854
  101MOL    H7632276   8.210   1.481   7.831 -2.2134 -0.5438  1.2663
  101MOL    H7732277   7.982   1.535   7.885  2.7480 -2.9420 -0.2500
  101MOL    H7832278   7.965   1.819   7.556  1.0357  1.6832 -0.2077
  101MOL    H7932279   8.198   1.769   7.507 -0.7409 -1.0436 -1.8565
  101MOL    H8032280   0.183   1.453   7.783 -3.1039  0.2565 -2.8971
  101MOL    H8132281   0.306   1.451   7.662 -1.3444 -1.1844 -1.1827
  101MOL    C8232282   0.314   1.623   7.785  0.5138 -0.3529 -0.4401
  101MOL    C8332283   0.406   1.570   7.892  0.0920  1.0846 -0.4879
  101MOL    C8432284   0.496   1.463   7.853 -0.0616 -0.1183 -0.0111
  101MOL    C8532285   0.583   1.409   7.953  1.0902 -0.1129  0.3493
  101MOL    C8632286   0.585   1.458   8.089  0.6202  1.2010 -0.0197
  101MOL    F8732287   0.669   1.400   8.184 -0.4240 -0.1461  0.0765
  101MOL    C8832288   0.496   1.569   8.124 -0.2278 -1.0083  0.3193
  101MOL    C8932289   0.405   1.618   8.025 -0.1697  0.1129  0.4809
  101MOL    C9032290   0.402   1.703   7.689 -0.2904  0.0810 -0.8578
  101MOL    H9132291   0.240   1.679   7.843  2.0266  1.3453 -0.1248
  101MOL    H9232292   0.520   1.437   7.751 -0.9804 -0.3472 -0.1722
  101MOL    H9332293   0.656   1.335   7.924  0.8933  0.4047 -1.5509
  101MOL    H9432294   0.500   1.618   8.220 -0.5290  2.5211 -1.3951
  101MOL    H9532295   0.346   1.708   8.035 -0.9771 -0.3222 -0.2638
  101MOL    H9632296   0.506   1.715   7.720 -0.6046  0.5269  0.0612
  101MOL    H9732297   0.420   1.655   7.593  1.6954 -1.9965  0.5069
  101MOL    C9832298   0.352   1.848   7.688 -0.1616  0.3439 -0.0989
  101MOL    C9932299   0.361   1.926   7.821  0.1233  0.1816 -0.0995
  101MOL   C10032300   0.489   1.943   7.879 -0.6969  0.2776  0.1006
  101MOL   C10132301   0.503   2.014   7.996 -0.4311  0.1778 -0.0442
  101MOL   C10232302   0.390   2.066   8.059  0.3400  0.0870 -0.6350
  101MOL   F10332303   0.407   2.122   8.180  0.4488 -0.1451  0.2023
  101MOL   C10432304   0.260   2.056   8.001  0.0233 -0.3800  0.3993
  101MOL   C10532305   0.244   1.982   7.879  0.2848  1.3724  0.5904
  101MOL   C10632306   0.416   1.925   7.568  0.4016  0.2647 -0.2093
  101MOL   H10732307   0.244   1.848   7.677 -0.0364  1.1053 -1.4503
  101MOL   H10832308   0.577   1.894   7.838 -1.5326 -1.6712  0.5786
  101MOL   H10932309   0.598   2.020   8.048 -0.8870  0.9714  0.7010
  101MOL   H11032310   0.172   2.089   8.055  0.0522  2.3367 -1.1301
  101MOL   H11132311   0.145   1.971   7.836  1.0466  0.9810 -1.0997
  101MOL   H11232312   0.520   1.944   7.594 -0.2128 -0.3096  2.8930
  101MOL   H11332313   0.416   1.854   7.486 -0.7806 -0.6959  0.6110
  101MOL   C11432314   0.334   2.049   7.532  0.1683  0.0029 -0.8780
  101MOL   C11532315   0.424   2.150   7.471  0.1444 -0.6354  0.0151
  101MOL   C11632316   0.450   2.269   7.545  0.4895 -0.9723 -0.2289
  101MOL   C11732317   0.550   2.354   7.499 -0.3655 -0.6437  0.8987
  101MOL   C11832318   0.617   2.339   7.375 -0.4660 -0.3012 -0.0368
  101MOL   F11932319   0.707   2.435   7.337  0.1223 -0.1518  0.2959
  101MOL   C12032320   0.582   2.224   7.303 -0.3022 -0.5952  0.7478
  101MOL   C12132321   0.491   2.128   7.349  0.9743  0.4972  0.1064
  101MOL   C12232322   0.208   2.016   7.445 -0.0754 -0.3870 -0.6398
  101MOL   H12332323   0.297   2.093   7.625  0.7106 -2.5404  0.5908
  101MOL   H12432324   0.414   2.284   7.646 -0.4965  0.6840 -0.7942
  101MOL   H12532325   0.580   2.440   7.557  0.5487 -0.9949  0.9558
  101MOL   H12632326   0.629   2.196   7.210 -1.9175 -2.8685  0.5568
  101MOL   H12732327   0.482   2.032   7.300  0.9979  0.6110 -0.1220
  101MOL   H12832328   0.243   1.992   7.344  1.4863 -1.1960  0.0648
  101MOL   H12932329   0.167   1.918   7.470  1.5368 -0.7276  0.7452
  101MOL   C13032330   0.096   2.125   7.442 -0.7192  0.3372 -0.0228
  101MOL   C13132331   0.006   2.106   7.324  0.0808 -0.0080 -0.2365
  101MOL   C13232332   0.011   2.206   7.224  0.2577 -0.0576  0.2700
  101MOL   C13332333   8.164   2.190   7.109  0.1045 -0.3997 -0.3929
  101MOL   C13432334   8.069   2.092   7.096 -0.3581 -0.0860 -0.2395
  101MOL   F13532335   7.988   2.095   6.988 -0.1187 -0.5117 -0.4707
  101MOL   C13632336   8.061   2.002   7.201  0.3518 -0.1616  0.1058
  101MOL   C13732337   8.142   2.007   7.316  0.3441  0.8557  0.5875
  101MOL   C13832338   0.028   2.142   7.583 -0.2983  0.3537 -0.3222
  101MOL   H13932339   0.146   2.222   7.438 -0.8037  0.4231  0.8912
  101MOL   H14032340   0.068   2.297   7.230 -0.9445  0.7556 -0.4423
  101MOL   H14132341   8.162   2.255   7.022  0.0207 -3.9965 -3.1860
  101MOL   H14232342   7.980   1.931   7.205  0.4028 -0.2784 -0.8577
  101MOL   H14332343   8.124   1.930   7.389 -1.2754 -1.6669 -2.3674
  101MOL   H14432344   0.030   2.043   7.629  0.0258 -0.6235 -2.3803
  101MOL   H14532345   0.092   2.192   7.656  0.8793 -2.2925  0.4971
  101MOL   C14632346   8.123   2.198   7.585 -0.2966  0.0621  0.2572
  101MOL   C14732347   8.050   2.183   7.719 -0.2519  0.1166  0.8193
  101MOL   C14832348   7.909   2.191   7.727 -0.3342  0.4514  0.4938
  101MOL   C14932349   7.848   2.177   7.851  0.2122  0.5300 -0.2070
  101MOL   C15032350   7.923   2.173   7.970 -0.7193 -0.6745  0.1434
  101MOL   F15132351   7.861   2.149   8.093 -0.5459 -0.3966  0.0139
  101MOL   C15232352   8.064   2.165   7.960 -0.3905  0.0418 -0.4305
  101MOL   C15332353   8.127   2.174   7.835 -0.1689 -0.0429 -0.0636
  101MOL   C15432354   8.108   2.352   7.529  0.1917  0.1642 -0.4484
  101MOL   H15532355   8.062   2.132   7.524 -2.0868  0.4879  1.5388
  101MOL   H15632356   7.842   2.200   7.642 -0.1382 -0.4187  0.2439
  101MOL   H15732357   7.741   2.164   7.856  0.1123  1.0826 -0.7131
  101MOL   H15832358   8.121   2.159   8.052  2.2461  0.9352 -1.9522
  101MOL   H15932359   0.001   2.171   7.832 -0.1940 -0.0449 -1.2015
  101MOL   H16032360   8.167   2.372   7.439  2.8014  3.5927  1.8948
  101MOL   H16132361   8.009   2.342   7.484 -1.1069  0.3480  2.2830
  101MOL   C16232362   8.120   2.466   7.628 -0.1890  0.2752  0.1322
  101MOL   C16332363   0.028   2.503   7.657 -0.3039  0.3212 -0.4582
  101MOL   C16432364   0.116   2.535   7.545 -0.0172  0.1993 -0.7753
  101MOL   C16532365   0.255   2.564   7.563 -0.5881  0.4380  0.1869
  101MOL   C16632366   0.306   2.565   7.695  0.2251 -0.5385 -0.2233
  101MOL   F16732367   0.435   2.591   7.708  0.0775 -0.3543 -0.0493
  101MOL   C16832368   0.220   2.525   7.805 -0.0001  0.3020 -0.2737
  101MOL   C16932369   0.087   2.493   7.786 -0.9500  0.3291 -0.2742
  101MOL   C17032370   8.043   2.599   7.597  0.1265 -0.0896  0.3756
  101MOL   H17132371   8.073   2.429   7.720  1.6348  1.0986  1.4185
  101MOL   H17232372   0.074   2.542   7.446  1.2154  2.5944 -1.1478
  101MOL   H17332373   0.316   2.572   7.475  2.1081  0.0664  1.9515
  101MOL   H17432374   0.267   2.512   7.901 -0.3232  0.0296 -0.1532
  101MOL   H17532375   0.023   2.451   7.862  1.3302 -3.0047 -0.0951
  101MOL   H17632376   8.080   2.678   7.662 -1.0275  2.0366 -1.4741
  101MOL   H17732377   8.060   2.618   7.491 -1.3374  0.7245  0.2833
  101MOL   C17832378   7.891   2.590   7.613  0.7737 -0.0474  0.2922
  101MOL   C17932379   7.842   2.581   7.761  0.1572 -0.2665  0.3619
  101MOL   C18032380   7.741   2.483   7.790  0.5427 -0.6164  0.4771
  101MOL   C18132381   7.684   2.461   7.920 -0.6280 -0.3306  0.5109
  101MOL   C18232382   7.728   2.542   8.023 -0.0352  0.1535  0.0895
  101MOL   F18332383   7.682   2.510   8.145  0.3841 -0.3595  0.1435
  101MOL   C18432384   7.820   2.644   7.998  0.5618  0.1694 -0.7957
  101MOL   C18532385   7.875   2.660   7.871  0.1014  0.1867  0.0114
  101MOL   C18632386   7.820   2.718   7.551 -0.4658  0.0372 -0.3829
  101MOL   H18732387   7.844   2.507   7.559  2.2849 -0.2813 -0.6966
  101MOL   H18832388   7.700   2.413   7.718  1.0450 -0.1136 -0.2975
  101MOL   H18932389   7.610   2.387   7.945 -0.1398 -1.0848 -0.2247
  101MOL   H19032390   7.860   2.705   8.078  0.2838  0.5929 -0.9758
  101MOL   H19132391   7.957   2.730   7.858  0.2505  0.2435  1.2717
  101MOL   H19232392   7.716   2.714   7.585  0.7615 -1.6021  3.5226
  101MOL   H19332393   7.873   2.807   7.586  0.8110 -0.4810 -0.9707
  101MOL   C19432394   7.817   2.734   7.399 -0.1115 -0.4382 -0.1361
  101MOL   C19532395   7.789   2.606   7.324  0.4826 -0.0992 -0.3299
  101MOL   C19632396   7.888   2.542   7.243  0.0393  0.1851 -0.2588
  101MOL   C19732397   7.858   2.419   7.184 -0.3914 -0.0141  0.5318
  101MOL   C19832398   7.737   2.352   7.216  0.0724  0.0071  0.0067
  101MOL   F19932399   7.707   2.232   7.171 -0.5688 -0.1502  0.2048
  101MOL   C20032400   7.648   2.411   7.307 -0.2849  0.3932  0.0961
  101MOL   C20132401   7.673   2.535   7.361 -0.3842 -0.4893 -0.2380
  101MOL   C20232402   7.729   2.856   7.355  0.4217  0.3466 -0.1941
  101MOL   H20332403   7.915   2.774   7.371 -0.3460  0.6139  0.5289
  101MOL   H20432404   7.984   2.592   7.230 -0.1367  0.9442  1.2263
  101MOL   H20532405   7.928   2.362   7.123  0.1242  0.5712  0.5766
  101MOL   H20632406   7.558   2.358   7.332  0.3309 -1.5442 -1.7168
  101MOL   H20732407   7.602   2.575   7.431  0.6827 -0.4579  0.8466
  101MOL   H20832408   7.635   2.857   7.411  0.8478 -1.6425  0.5875
  101MOL   H20932409   7.783   2.944   7.392  2.1286 -0.3470 -0.9857
  101MOL   C21032410   7.698   2.872   7.206  0.5899 -0.1513  0.2604
  101MOL   C21132411   7.621   3.002   7.182 -0.3498 -0.1426  0.0173
  101MOL   C21232412   7.687   3.126   7.209  0.7137  0.3128  0.2078
  101MOL   C21332413   7.611   3.245   7.210  0.7072  0.2662 -0.3886
  101MOL   C21432414   7.488   3.240   7.152  0.5268 -0.5598 -0.1137
  101MOL   F21532415   7.410   3.358   7.146 -0.3664 -0.1696 -0.4375
  101MOL   C21632416   7.432   3.122   7.097  0.2364  0.3801  1.4299
  101MOL   C21732417   7.497   3.002   7.119  0.4846  0.1775 -0.0620
  101MOL   C21832418   7.810   2.864   7.106 -0.3425  0.0957 -0.2034
  101MOL   H21932419   7.626   2.792   7.189  0.1602  0.4335 -0.7219
  101MOL   H22032420   7.783   3.123   7.259  0.9015 -1.6090 -0.1982
  101MOL   H22132421   7.650   3.336   7.253  0.7339  1.1073 -2.1305
  101MOL   H22232422   7.337   3.125   7.046 -0.2615  1.4010  2.3881
  101MOL   H22332423   7.451   2.907   7.097 -0.5748  1.0588 -1.7733
  101MOL   H22432424   7.873   2.953   7.107 -1.3894  0.8548 -1.0904
  101MOL   H22532425   7.880   2.786   7.135 -0.3850  0.1112 -0.0584
  101MOL   C22632426   7.768   2.828   6.961 -0.2890 -0.2154 -0.6550
  101MOL   C22732427   7.683   2.931   6.881 -0.3403  0.1435  0.2215
  101MOL   C22832428   7.563   2.884   6.821  0.5727  0.6824  0.2996
  101MOL   C22932429   7.480   2.973   6.749  1.0754  0.7018  0.3593
  101MOL   C23032430   7.510   3.108   6.749 -0.0346  0.0546 -0.0592
  101MOL   F23132431   7.425   3.192   6.680  0.5686  0.4316 -0.1480
  101MOL   C23232432   7.620   3.157   6.819  0.1471 -0.5475  0.1266
  101MOL   C23332433   7.711   3.070   6.876 -0.1609  0.2157 -0.1421
  101MOL   C23432434   7.900   2.792   6.873 -0.3722 -0.2217 -0.2752
  101MOL   H23532435   7.702   2.743   6.980 -1.0089  0.2353 -1.0972
  101MOL   H23632436   7.530   2.782   6.829  5.1477 -0.7952  1.8576
  101MOL   H23732437   7.395   2.931   6.697  0.2685  1.1606  1.2986
  101MOL   H23832438   7.647   3.261   6.823  0.0343 -0.4239 -1.7407
  101MOL   H23932439   7.800   3.114   6.918  0.0274  0.8489 -1.1822
  101MOL   H24032440   7.940   2.892   6.858 -0.3202 -0.3439 -0.9387
  101MOL   H24132441   7.975   2.728   6.919 -1.2981 -0.2624  1.2393
  101MOL   C24232442   7.871   2.727   6.743 -0.6067 -0.3633  0.4788
  101MOL   C24332443   8.008   2.721   6.664 -0.3835 -0.7546 -0.2244
  101MOL   C24432444   8.119   2.643   6.705  0.2410 -0.4406  0.8930
  101MOL   C24532445   0.009   2.652   6.639  0.4899  0.4303 -0.4619
  101MOL   C24632446   0.023   2.729   6.528  0.8810  0.2264 -0.0075
  101MOL   F24732447   0.140   2.725   6.452  0.3646  0.4220  0.2111
  101MOL   C24832448   8.144   2.801   6.480 -0.1575  0.5208  0.4767
  101MOL   C24932449   8.021   2.804   6.553 -0.0765 -0.6550  0.5050
  101MOL   C25032450   7.804   2.590   6.750  0.5734  0.2357 -0.2222
  101MOL   H25132451   7.806   2.796   6.689 -0.7693  0.1921  1.3743
  101MOL   H25232452   8.108   2.574   6.788  1.1689  1.2790  2.4945
  101MOL   H25332453   0.092   2.593   6.676 -1.4099 -2.0982 -0.1035
  101MOL   H25432454   8.153   2.873   6.400 -2.6626  0.7409  0.3743
  101MOL   H25532455   7.933   2.859   6.523  0.0975 -2.2049 -3.1532
  101MOL   H25632456   7.880   2.511   6.752  0.7636  0.4314  0.6476
  101MOL   H25732457   7.769   2.581   6.853  1.8937 -0.5065  0.1863
  101MOL   C25832458   7.697   2.557   6.642 -0.3003 -0.3274  0.2195
  101MOL   C25932459   7.727   2.621   6.505 -1.0993  0.1717 -0.5899
  101MOL   C26032460   7.844   2.578   6.438  0.3290 -0.2340  0.2511
  101MOL   C26132461   7.875   2.634   6.309  0.2287 -0.4583 -0.3058
  101MOL   C26232462   7.783   2.719   6.243  0.6103  0.5634 -0.1145
  101MOL   F26332463   7.813   2.765   6.122 -0.1755  0.2456  0.6208
  101MOL   C26432464   7.667   2.768   6.320 -0.6098 -0.5193  0.2957
  101MOL   C26532465   7.644   2.714   6.448  0.0658  0.2932  0.4967
  101MOL   C26632466   7.662   2.404   6.658 -0.3029 -0.1571  0.3201
  101MOL   H26732467   7.615   2.614   6.687  0.8835  0.9773  0.7573
  101MOL   H26832468   7.920   2.521   6.489 -0.5256 -0.9033  0.8017
  101MOL   H26932469   7.973   2.610   6.270  0.6753  1.1357 -0.1895
  101MOL   H27032470   7.590   2.834   6.283 -0.6124 -1.6389 -1.7469
  101MOL   H27132471   7.558   2.742   6.507 -0.4406  0.5826 -0.3735
  101MOL   H27232472   7.742   2.335   6.627  0.1533  0.6486 -0.3153
  101MOL   H27332473   7.641   2.376   6.761 -0.1962  0.8890  0.6231
  101MOL   C27432474   7.532   2.372   6.575 -0.5253  0.5639  0.8567
  101MOL   C27532475   7.517   2.222   6.558  0.5002  0.0617  0.4893
  101MOL   C27632476   7.514   2.169   6.429 -0.2177 -0.3575  0.0258
  101MOL   C27732477   7.507   2.031   6.412 -0.4605 -0.4787  0.3004
  101MOL   C27832478   7.520   1.943   6.524  0.7134  0.4052  0.9085
  101MOL   F27932479   7.532   1.807   6.507 -0.4248  0.0891 -0.6798
  101MOL   C28032480   7.524   2.002   6.653  0.6157  0.1135  0.6772
  101MOL   C28132481   7.518   2.139   6.672  0.2878  0.4604 -0.0870
  101MOL   C28232482   7.410   2.436   6.642  0.2178 -0.2753  0.3068
  101MOL   H28332483   7.546   2.411   6.475 -1.0691 -1.6821 -0.1212
  101MOL   H28432484   7.521   2.232   6.341  2.3530 -0.9174 -0.2045
  101MOL   H28532485   7.500   1.980   6.318  1.1081 -0.9061  0.3917
  101MOL   H28632486   7.528   1.935   6.738 -0.0788 -2.2390 -1.0718
  101MOL   H28732487   7.540   2.184   6.768  1.3648 -1.0164  0.3859
  101MOL   H28832488   7.389   2.378   6.732 -2.5296  2.4873  1.5826
  101MOL   H28932489   7.418   2.539   6.678 -0.6967 -0.1917  0.2976
  101MOL   C29032490   7.286   2.430   6.551  0.7710 -0.7916 -0.9653
  101MOL   C29132491   7.159   2.428   6.645 -0.6942 -0.2272  0.3026
  101MOL   C29232492   7.084   2.310   6.650 -0.2004 -0.2564  0.2428
  101MOL   C29332493   6.966   2.307   6.726 -0.2325  0.1153 -0.1832
  101MOL   C29432494   6.912   2.419   6.791  0.5417  0.0772  0.1830
  101MOL   F29532495   6.797   2.399   6.863 -0.5740 -0.0120  0.2635
  101MOL   C29632496   6.984   2.542   6.782 -0.4379 -0.0820 -0.2219
  101MOL   C29732497   7.106   2.543   6.706  0.0873  0.1966 -0.2373
  101MOL   C29832498   7.281   2.559   6.454 -0.2154  0.2239 -0.0614
  101MOL   H29932499   7.291   2.339   6.493 -0.8211 -1.3772 -0.2283
  101MOL   H30032500   7.125   2.222   6.602  0.3782 -0.1753  0.5905
  101MOL   H30132501   6.906   2.218   6.737  0.1879 -0.1081  0.3411
  101MOL   H30232502   6.954   2.638   6.820 -0.3582 -0.1745  0.0755
  101MOL   H30332503   7.149   2.642   6.696  0.8041 -0.3453 -2.7774
  101MOL   H30432504   7.254   2.638   6.524  1.6849 -0.2621  1.2448
  101MOL   H30532505   7.383   2.577   6.422  0.4125  0.4494  1.9845
  101MOL   C30632506   7.170   2.551   6.358 -0.1689  0.4643  0.0544
  101MOL   C30732507   7.153   2.698   6.307 -0.4668  1.2300 -0.4853
  101MOL   C30832508   7.260   2.742   6.223  0.3012  0.5604  0.0823
  101MOL   C30932509   7.262   2.877   6.178  0.8182 -0.2716 -0.0733
  101MOL   C31032510   7.164   2.964   6.244 -0.8171  0.0389  0.2626
  101MOL   F31132511   7.172   3.097   6.221  0.0141  0.1262 -0.5851
  101MOL   C31232512   7.074   2.924   6.337  0.5939  0.5717 -0.2107
  101MOL   C31332513   7.054   2.789   6.360  0.3541  0.9153  0.1166
  101MOL   C31432514   7.184   2.454   6.245 -0.5012 -0.5038 -0.0642
  101MOL   H31532515   7.074   2.536   6.408 -0.7565 -0.5172 -1.3276
  101MOL   H31632516   7.334   2.678   6.178 -0.7299  0.3839 -1.4012
  101MOL   H31732517   7.341   2.917   6.116  1.6960 -0.8290  0.6672
  101MOL   H31832518   7.021   3.007   6.383  0.9886  0.3136  0.7347
  101MOL   H31932519   6.995   2.755   6.444  0.3100  0.2098 -0.1971
  101MOL   H32032520   7.193   2.352   6.283 -0.3917 -0.1365  0.9086
  101MOL   H32132521   7.101   2.456   6.174 -1.0350  0.7167  0.5949
  101MOL   H32232522   7.274   2.469   6.184  0.2298 -0.6728  0.9496
  102MOL     C132523   1.208   4.069   2.867  0.1863  0.3204  0.2847
  102MOL     C232524   1.363   4.078   2.883  0.6037  0.5616 -0.2641
  102MOL     C332525   1.412   4.076   3.015 -0.1900 -0.0999 -0.0331
  102MOL     C432526   1.544   4.098   3.055  0.1307  0.1470 -0.0195
  102MOL     C532527   1.637   4.114   2.949 -0.2406 -0.8556  0.1998
  102MOL     F632528   1.766   4.130   2.973  0.2866 -0.0128 -0.1001
  102MOL     C732529   1.586   4.120   2.815 -0.2894  0.3453 -0.1954
  102MOL     C832530   1.452   4.106   2.779 -0.4414 -0.2632  0.1134
  102MOL     C932531   1.148   4.208   2.827  0.4353  0.0594  0.1342
  102MOL    H1032532   1.146   4.042   2.953 -0.8819 -3.6314 -1.5702
  102MOL    H1132533   1.338   4.051   3.090  0.4881 -3.7211 -0.4469
  102MOL    H1232534   1.581   4.092   3.156  2.1465 -1.2595 -0.8084
  102MOL    H1332535   1.665   4.127   2.741  1.1169 -2.2255  0.9954
  102MOL    H1432536   1.411   4.104   2.679 -1.4367  0.5117  0.4973
  102MOL    H1532537   1.176   4.286   2.897  2.3955 -2.6026  2.4368
  102MOL    H1632538   1.201   4.233   2.735  0.5141 -1.4901 -0.2579
  102MOL    H1732539   1.183   4.002   2.785 -2.3427  2.1797 -0.5165
  102MOL    C1832540   0.992   4.202   2.812  0.1472  0.4075 -0.2057
  102MOL    C1932541   0.949   4.087   2.728 -0.3465  0.2071 -0.3260
  102MOL    C2032542   0.942   4.103   2.591  0.0667  0.0365 -0.1985
  102MOL    C2132543   0.889   4.009   2.505  0.0853 -0.1897 -0.2663
  102MOL    C2232544   0.839   3.891   2.558 -0.4428  0.2152  0.1481
  102MOL    F2332545   0.774   3.799   2.477 -0.0713 -0.3132  0.3889
  102MOL    C2432546   0.843   3.872   2.697 -0.3301 -0.2257  0.3931
  102MOL    C2532547   0.903   3.965   2.781  0.5886  0.0471  0.2619
  102MOL    C2632548   0.934   4.207   2.956 -0.3239  0.0419  0.1294
  102MOL    H2732549   0.967   4.296   2.762 -2.0934 -1.2736 -2.3425
  102MOL    H2832550   0.972   4.201   2.558 -0.8833  0.2636 -0.3940
  102MOL    H2932551   0.887   4.034   2.400 -1.4934  0.8622 -0.0029
  102MOL    H3032552   0.791   3.786   2.735  0.3344 -1.5227 -1.5275
  102MOL    H3132553   0.915   3.948   2.887  1.0294 -1.4972 -0.0264
  102MOL    H3232554   0.954   4.115   3.011 -0.8731 -0.0342  0.2072
  102MOL    H3332555   0.980   4.286   3.015 -1.3042 -0.5825  1.7853
  102MOL    C3432556   0.773   4.207   2.954 -0.3355 -0.5960 -0.3895
  102MOL    C3532557   0.722   4.154   3.082 -0.4207  0.3384 -0.1543
  102MOL    C3632558   0.777   4.207   3.204 -0.1620  0.1623  0.6491
  102MOL    C3732559   0.735   4.155   3.328  0.1167 -0.3067  0.4235
  102MOL    C3832560   0.649   4.042   3.327 -0.1854  0.2777 -0.0739
  102MOL    F3932561   0.602   3.998   3.446  0.2264  0.1194 -0.0186
  102MOL    C4032562   0.596   3.987   3.204  0.5387 -0.5476 -0.1280
  102MOL    C4132563   0.637   4.042   3.083  0.0567  0.0621  0.1606
  102MOL    C4232564   0.721   4.351   2.933  0.1353  0.1390 -0.2181
  102MOL    H4332565   0.739   4.133   2.881  1.3893 -2.9789  1.1521
  102MOL    H4432566   0.840   4.295   3.207  2.9199 -1.9709  0.2198
  102MOL    H4532567   0.772   4.194   3.422  0.2664 -1.1268  0.7048
  102MOL    H4632568   0.537   3.897   3.205  0.2590 -0.4074 -1.9977
  102MOL    H4732569   0.605   3.999   2.989 -1.1294  1.0748  0.0841
  102MOL    H4832570   0.684   4.385   3.030  3.2949 -0.7749  1.3966
  102MOL    H4932571   0.806   4.415   2.912  0.3008 -0.0181 -0.0253
  102MOL    C5032572   0.604   4.362   2.825 -0.1722 -0.4591  0.8646
  102MOL    C5132573   0.505   4.250   2.834  0.0764 -0.1647  0.6131
  102MOL    C5232574   0.507   4.143   2.735  0.0173  0.1391 -0.5482
  102MOL    C5332575   0.422   4.034   2.749 -0.0334 -0.0172  0.0527
  102MOL    C5432576   0.319   4.046   2.839  0.7296  0.3951 -0.0690
  102MOL    F5532577   0.227   3.953   2.833  0.0056  0.3895 -0.4044
  102MOL    C5632578   0.308   4.147   2.936  0.2207 -0.5740  1.3306
  102MOL    C5732579   0.402   4.253   2.935 -1.0373  0.2154 -1.0896
  102MOL    C5832580   0.534   4.498   2.813 -0.2107  0.3948  0.2875
  102MOL    H5932581   0.652   4.341   2.729 -0.0411 -2.4252  1.3440
  102MOL    H6032582   0.573   4.147   2.650  1.4605  0.8201  0.5837
  102MOL    H6132583   0.421   3.950   2.682 -2.0735 -0.5214  0.6890
  102MOL    H6232584   0.224   4.164   3.002 -0.5504  3.2967 -0.4917
  102MOL    H6332585   0.381   4.329   3.009 -1.2756 -1.1980  0.3078
  102MOL    H6432586   0.459   4.485   2.735  1.2193  1.8911 -1.3703
  102MOL    H6532587   0.486   4.518   2.909 -1.6312 -1.5588  0.0249
  102MOL    C6632588   0.624   4.619   2.777  0.2258  0.0792  0.0402
  102MOL    C6732589   0.703   4.590   2.648  0.3002 -0.4127  0.3333
  102MOL    C6832590   0.842   4.560   2.651  0.0969 -0.0354  0.1504
  102MOL    C6932591   0.910   4.544   2.530  0.2807 -0.8036 -0.2554
  102MOL    C7032592   0.844   4.561   2.405 -0.1045 -0.4456 -0.2217
  102MOL    F7132593   0.913   4.557   2.292  0.4880 -0.1573 -0.1661
  102MOL    C7232594   0.705   4.579   2.402 -0.2445  0.7831 -0.1829
  102MOL    C7332595   0.638   4.593   2.527  0.7683  0.3978  0.6118
  102MOL    C7432596   0.563   4.761   2.795 -0.2633  0.0543 -0.5083
  102MOL    H7532597   0.696   4.609   2.858  0.7813 -0.9380 -0.5619
  102MOL    H7632598   0.899   4.565   2.743 -0.3034  1.1154  0.3400
  102MOL    H7732599   1.013   4.512   2.524 -0.1062 -2.1382  0.2007
  102MOL    H7832600   0.646   4.594   2.313  1.9711  1.9150 -1.4982
  102MOL    H7932601   0.530   4.595   2.517  0.6972 -0.8175  1.0767
  102MOL    H8032602   0.587   4.809   2.890 -3.1564 -1.1562  0.8864
  102MOL    H8132603   0.612   4.824   2.720 -1.0857  0.8817 -0.3686
  102MOL    C8232604   0.411   4.772   2.769  0.3748 -0.2160 -0.4530
  102MOL    C8332605   0.324   4.717   2.884 -0.4271  0.7238 -0.1715
  102MOL    C8432606   0.338   4.777   3.011 -0.1768  0.2200 -0.2131
  102MOL    C8532607   0.273   4.731   3.122  0.1666  0.2125  0.0135
  102MOL    C8632608   0.186   4.620   3.110 -0.7419  0.0569  0.5192
  102MOL    F8732609   0.127   4.558   3.220 -0.4544  0.3878 -0.3146
  102MOL    C8832610   0.171   4.555   2.985 -0.1331  0.5596  0.3421
  102MOL    C8932611   0.235   4.607   2.866  0.7454 -0.6011  0.3391
  102MOL    C9032612   0.359   4.909   2.734  0.6075 -1.1073 -0.3339
  102MOL    H9132613   0.383   4.705   2.688 -0.5316  1.4620 -1.5593
  102MOL    H9232614   0.403   4.863   3.008 -0.0103  0.0972 -0.1038
  102MOL    H9332615   0.279   4.793   3.211  1.0558  1.4565 -0.8879
  102MOL    H9432616   0.102   4.472   2.977  0.8231 -0.1454 -0.7148
  102MOL    H9532617   0.213   4.572   2.766  1.8416  2.0797 -0.9142
  102MOL    H9632618   0.256   4.922   2.767 -0.1224 -0.8051 -2.6497
  102MOL    H9732619   0.417   4.981   2.792 -1.7379  0.7776 -0.2499
  102MOL    C9832620   0.373   4.940   2.581  0.7513 -0.4250  0.3094
  102MOL    C9932621   0.256   4.881   2.506  0.4127  0.3353 -0.2037
  102MOL   C10032622   0.118   4.928   2.527 -0.1392 -0.2336  0.0681
  102MOL   C10132623   0.011   4.874   2.450 -0.0263  0.1439 -0.4172
  102MOL   C10232624   0.035   4.767   2.361  0.2559  0.2874  0.3399
  102MOL   F10332625   8.165   4.717   2.290  0.1145  0.0649  0.0771
  102MOL   C10432626   0.163   4.718   2.345 -0.3492 -0.0475 -0.1571
  102MOL   C10532627   0.277   4.770   2.418  0.0407  0.2676 -0.0865
  102MOL   C10632628   0.407   5.086   2.541 -0.2212 -1.1136 -0.1052
  102MOL   H10732629   0.464   4.885   2.556  0.1167 -0.7171 -1.4137
  102MOL   H10832630   0.100   5.001   2.604  2.1088 -0.6570  1.0149
  102MOL   H10932631   8.145   4.906   2.473 -0.8352 -3.3848  1.2443
  102MOL   H11032632   0.174   4.642   2.269  0.4105 -1.0184  0.9164
  102MOL   H11132633   0.372   4.721   2.403 -1.3701 -2.9140  1.0156
  102MOL   H11232634   0.350   5.157   2.600  2.3959  1.3173 -0.3671
  102MOL   H11332635   0.503   5.111   2.586  0.0952 -1.0960 -0.7773
  102MOL   C11432636   0.394   5.126   2.386 -0.1754 -0.0596 -0.4603
  102MOL   C11532637   0.401   5.282   2.375 -0.3736  0.2305  0.2117
  102MOL   C11632638   0.295   5.360   2.335  0.3597 -0.8896  1.1544
  102MOL   C11732639   0.313   5.501   2.323 -0.2653  0.4039 -0.3099
  102MOL   C11832640   0.436   5.561   2.341  0.3626  0.2933 -0.5008
  102MOL   F11932641   0.453   5.695   2.324 -0.5616  0.2257 -0.2314
  102MOL   C12032642   0.542   5.482   2.382 -0.3084  0.0347 -0.3002
  102MOL   C12132643   0.521   5.346   2.397  0.3625 -0.5407  0.0737
  102MOL   C12232644   0.502   5.052   2.305  0.6158 -0.2527  0.1900
  102MOL   H12332645   0.290   5.103   2.366 -0.7661  1.8387  0.3175
  102MOL   H12432646   0.198   5.320   2.310  0.9528 -1.0598 -0.9101
  102MOL   H12532647   0.234   5.562   2.285  1.3434  3.1403  0.6089
  102MOL   H12632648   0.646   5.512   2.390 -0.1276 -0.7866  0.4980
  102MOL   H12732649   0.607   5.290   2.431  2.0790  2.5922  1.1658
  102MOL   H12832650   0.600   5.095   2.326  0.9337  0.9550 -3.2851
  102MOL   H12932651   0.500   4.951   2.344 -0.7225 -0.4754 -0.4193
  102MOL   C13032652   0.494   5.057   2.154 -0.4149  0.1546  0.5048
  102MOL   C13132653   0.627   4.996   2.085 -0.3883  0.5552 -0.3230
  102MOL   C13232654   0.677   4.867   2.127  0.2286  0.4324 -0.7478
  102MOL   C13332655   0.793   4.807   2.076  0.1577  0.2461  0.0630
  102MOL   C13432656   0.867   4.874   1.979 -0.4657  0.8175 -0.3351
  102MOL   F13532657   0.982   4.816   1.937 -0.6763  0.0891  0.6032
  102MOL   C13632658   0.827   5.000   1.931 -0.0682 -0.3599  0.0460
  102MOL   C13732659   0.709   5.063   1.993 -0.2903  0.2579  0.3872
  102MOL   C13832660   0.374   4.974   2.107  0.2103 -0.2992 -0.0139
  102MOL   H13932661   0.474   5.160   2.123 -0.0310  0.0874  0.0198
  102MOL   H14032662   0.635   4.815   2.212  0.9277 -0.2532 -0.8195
  102MOL   H14132663   0.833   4.715   2.117  1.5087  0.5854 -0.4658
  102MOL   H14232664   0.872   5.035   1.840  0.5567  0.3440  0.6285
  102MOL   H14332665   0.678   5.161   1.959 -1.0208  0.2771  1.1149
  102MOL   H14432666   0.387   4.869   2.135 -1.6934 -0.7271 -0.7092
  102MOL   H14532667   0.287   5.005   2.164  0.1681 -1.1657  0.4083
  102MOL   C14632668   0.328   4.984   1.962  0.6780 -0.8330 -0.2326
  102MOL   C14732669   0.226   4.877   1.929 -0.3656  0.1879 -0.5617
  102MOL   C14832670   0.096   4.878   1.990  0.2221 -0.4075  0.4944
  102MOL   C14932671   8.225   4.803   1.941  0.2660  0.2553 -0.5376
  102MOL   C15032672   0.010   4.717   1.834  0.2171  0.3809 -0.0665
  102MOL   F15132673   8.145   4.653   1.764 -0.3508  0.1391  1.0108
  102MOL   C15232674   0.140   4.714   1.770 -0.5082  0.4429  0.1653
  102MOL   C15332675   0.246   4.784   1.822 -0.1174 -0.0135 -0.3285
  102MOL   C15432676   0.271   5.122   1.936  0.6199 -0.6263  0.1117
  102MOL   H15532677   0.413   4.977   1.894  2.6568 -1.3344  2.2040
  102MOL   H15632678   0.084   4.929   2.084  0.9988  0.7112  0.0000
  102MOL   H15732679   8.129   4.805   1.991  0.7178  3.0677  0.2980
  102MOL   H15832680   0.153   4.654   1.682 -2.6563  0.1584  0.0298
  102MOL   H15932681   0.341   4.784   1.770  1.1715 -2.2435  1.9555
  102MOL   H16032682   0.202   5.110   1.852 -0.8046 -1.3391  1.3479
  102MOL   H16132683   0.222   5.170   2.021 -0.1962  1.3783 -1.4536
  102MOL   C16232684   0.371   5.231   1.877 -0.6063  0.2939  0.1616
  102MOL   C16332685   0.419   5.193   1.735 -0.4861 -0.3861  0.0858
  102MOL   C16432686   0.344   5.130   1.635  0.5738  0.1460 -0.4479
  102MOL   C16532687   0.399   5.089   1.515  0.2514 -0.3681  0.5919
  102MOL   C16632688   0.530   5.132   1.483  0.0455 -0.1154 -0.3226
  102MOL   F16732689   0.586   5.101   1.361 -0.4461 -0.2748 -0.4267
  102MOL   C16832690   0.609   5.203   1.578  0.4651 -0.1989  0.5070
  102MOL   C16932691   0.555   5.229   1.701  0.0859  0.4406 -0.2133
  102MOL   C17032692   0.314   5.377   1.885 -0.1194 -0.2951 -0.6396
  102MOL   H17132693   0.461   5.242   1.937  0.3221 -0.6267 -1.0513
  102MOL   H17232694   0.243   5.102   1.663 -0.1513  1.4599 -1.6445
  102MOL   H17332695   0.345   5.030   1.442 -0.8196  0.9841  0.2605
  102MOL   H17432696   0.713   5.219   1.555  0.5068 -0.3621  0.5779
  102MOL   H17532697   0.616   5.282   1.773 -0.9036 -0.7982  1.5912
  102MOL   H17632698   0.274   5.401   1.983 -2.9016 -0.2495 -1.7221
  102MOL   H17732699   0.395   5.447   1.867  0.7032  0.3712  4.9045
  102MOL   C17832700   0.200   5.411   1.788 -0.0291  0.5407  0.2378
  102MOL   C17932701   0.060   5.339   1.811  1.0133 -0.3871  0.8908
  102MOL   C18032702   0.010   5.263   1.695 -0.1507  0.3864 -0.7379
  102MOL   C18132703   8.122   5.198   1.702  0.5226  0.1748 -0.5915
  102MOL   C18232704   8.054   5.190   1.826  0.4579 -0.5258  0.0618
  102MOL   F18332705   7.956   5.104   1.846 -0.8401 -0.0258 -0.0969
  102MOL   C18432706   8.091   5.277   1.929 -0.1537  0.5758  0.1034
  102MOL   C18532707   8.214   5.348   1.923 -0.4959 -0.4607 -1.0902
  102MOL   C18632708   0.191   5.558   1.785  0.0388 -0.8172 -0.1969
  102MOL   H18732709   0.226   5.399   1.683 -1.0488  0.9029 -0.0701
  102MOL   H18832710   0.060   5.268   1.600  0.7369  1.0042 -0.2472
  102MOL   H18932711   8.094   5.132   1.622 -2.2700 -0.6894  1.0209
  102MOL   H19032712   8.039   5.274   2.024  1.0300 -2.2505  0.7251
  102MOL   H19132713   0.015   5.414   2.001 -0.8626 -0.6670 -0.7415
  102MOL   H19232714   0.104   5.578   1.723 -0.3464  0.2380  0.6601
  102MOL   H19332715   0.174   5.604   1.883  0.5946 -1.4750  0.2124
  102MOL   C19432716   0.293   5.643   1.709  0.5292  0.3095 -0.0737
  102MOL   C19532717   0.317   5.596   1.567  0.1731 -0.5141  0.3119
  102MOL   C19632718   0.211   5.610   1.477 -0.2185  0.5846 -0.4402
  102MOL   C19732719   0.226   5.559   1.345 -0.1810 -0.3771  0.5533
  102MOL   C19832720   0.348   5.504   1.303  0.2219  0.3615 -0.1263
  102MOL   F19932721   0.367   5.464   1.179  0.1990 -0.0893  0.1501
  102MOL   C20032722   0.448   5.485   1.396  0.7509  0.1525  0.2411
  102MOL   C20132723   0.434   5.528   1.528  0.8286 -0.0556 -0.3853
  102MOL   C20232724   0.247   5.799   1.717  0.2113  0.3348 -0.0932
  102MOL   H20332725   0.389   5.641   1.760  0.3391 -0.4141  0.2489
  102MOL   H20432726   0.126   5.671   1.503 -0.4210 -0.2978  1.0154
  102MOL   H20532727   0.142   5.561   1.277 -0.9788 -0.9267  1.5024
  102MOL   H20632728   0.538   5.442   1.354  1.3582  3.3582 -1.9191
  102MOL   H20732729   0.514   5.512   1.599  1.3691 -0.1059 -1.0072
  102MOL   H20832730   0.144   5.802   1.684  1.2711 -0.7204 -3.7564
  102MOL   H20932731   0.244   5.819   1.824  0.4505 -0.0398 -0.0130
  102MOL   C21032732   0.324   5.919   1.648  0.6102  0.1117 -0.0140
  102MOL   C21132733   0.246   6.041   1.659 -0.3378  0.2030  0.8108
  102MOL   C21232734   0.193   6.106   1.549  0.1327 -0.3814 -0.2607
  102MOL   C21332735   0.111   6.220   1.559  0.4271 -0.0715  0.0901
  102MOL   C21432736   0.078   6.267   1.683 -0.5837 -0.1603  0.4368
  102MOL   F21532737   0.002   6.375   1.688 -0.0632  0.0342  0.2060
  102MOL   C21632738   0.136   6.211   1.798  0.0456  0.1233  1.0146
  102MOL   C21732739   0.223   6.097   1.784  0.0519  0.5512 -0.2107
  102MOL   C21832740   0.474   5.923   1.689  0.1084 -0.0702  0.0088
  102MOL   H21932741   0.320   5.885   1.544 -2.1406  0.0294  0.0771
  102MOL   H22032742   0.217   6.062   1.453 -1.7449 -2.8818  0.3505
  102MOL   H22132743   0.084   6.270   1.467 -0.4919 -1.3591 -0.3573
  102MOL   H22232744   0.111   6.260   1.890 -1.3999  1.2518  0.0396
  102MOL   H22332745   0.269   6.054   1.872  0.2689  1.3549  0.0688
  102MOL   H22432746   0.472   5.940   1.797  1.2556  0.1881 -0.0040
  102MOL   H22532747   0.525   5.828   1.676  2.6703  1.5130 -1.9475
  102MOL   C22632748   0.547   6.049   1.630  0.0400 -0.1425 -0.1004
  102MOL   C22732749   0.668   6.085   1.714  0.7088  0.3305 -0.8988
  102MOL   C22832750   0.662   6.215   1.774  0.1007 -0.0323  0.5757
  102MOL   C22932751   0.769   6.252   1.859  0.5186 -0.4414  0.9626
  102MOL   C23032752   0.878   6.163   1.888  0.2902  0.5361  1.0093
  102MOL   F23132753   0.975   6.213   1.971 -0.1574 -0.1272 -0.6798
  102MOL   C23232754   0.869   6.033   1.837  0.1796  0.0280 -0.1147
  102MOL   C23332755   0.769   5.992   1.747 -0.1631  0.0884 -0.1543
  102MOL   C23432756   0.585   6.041   1.480  0.1509 -0.0192 -0.0597
  102MOL   H23532757   0.484   6.137   1.644 -0.6826 -0.7039  0.1855
  102MOL   H23632758   0.585   6.287   1.751 -0.6736 -0.0961  2.8577
  102MOL   H23732759   0.778   6.349   1.906  0.9265 -0.1036  0.2116
  102MOL   H23832760   0.948   5.963   1.861  1.0986  1.1378  0.1553
  102MOL   H23932761   0.766   5.905   1.684  1.4053  1.0114 -1.5392
  102MOL   H24032762   0.611   5.935   1.467 -1.3662 -0.5901  1.3532
  102MOL   H24132763   0.498   6.062   1.418 -0.8595 -2.1326  0.5928
  102MOL   C24232764   0.693   6.142   1.428  0.1628 -0.2559 -0.6559
  102MOL   C24332765   0.732   6.102   1.289  0.1549 -0.0495 -0.2225
  102MOL   C24432766   0.646   6.124   1.182 -0.2782  0.0695 -0.2250
  102MOL   C24532767   0.690   6.094   1.053  0.3957 -0.3113 -0.0873
  102MOL   C24632768   0.819   6.048   1.026  0.8642  1.1802 -0.3039
  102MOL   F24732769   0.871   6.047   0.904  0.5597 -0.0880  0.0380
  102MOL   C24832770   0.904   6.010   1.138 -0.1886 -0.2232  0.2932
  102MOL   C24932771   0.856   6.035   1.269  0.2512 -0.2202  0.3192
  102MOL   C25032772   0.658   6.290   1.438  0.4049 -0.2146 -0.2934
  102MOL   H25132773   0.784   6.128   1.485  0.0330 -0.3814 -0.4761
  102MOL   H25232774   0.547   6.165   1.194 -0.4680 -0.3705 -0.2767
  102MOL   H25332775   0.626   6.126   0.972  1.5104  1.5971 -0.2615
  102MOL   H25432776   1.005   5.971   1.130  0.3074  1.3313 -1.2832
  102MOL   H25532777   0.918   6.018   1.355  0.1459  0.7283  0.5952
  102MOL   H25632778   0.560   6.309   1.393  0.7638  0.9872 -0.5970
  102MOL   H25732779   0.649   6.300   1.546  4.0939 -1.1572  0.1666
  102MOL   C25832780   0.762   6.390   1.378 -0.2149  0.3900 -0.6202
  102MOL   C25932781   0.731   6.536   1.415 -0.8431 -0.6537 -0.4710
  102MOL   C26032782   0.700   6.616   1.308  0.8466  0.3259  0.1048
  102MOL   C26132783   0.674   6.756   1.334  0.1166  0.9180 -0.4618
  102MOL   C26232784   0.679   6.806   1.465 -0.0308  0.5056  0.2439
  102MOL   F26332785   0.663   6.943   1.486 -0.3823 -0.1581  0.1155
  102MOL   C26432786   0.711   6.720   1.574  0.3604  0.4082 -0.2151
  102MOL   C26532787   0.736   6.586   1.548  0.4097  0.0826 -0.5959
  102MOL   C26632788   0.912   6.351   1.415 -0.3994  0.4283 -0.1322
  102MOL   H26732789   0.739   6.376   1.273  3.3813 -1.7856 -1.2079
  102MOL   H26832790   0.694   6.571   1.210  0.6868  0.9918 -0.1957
  102MOL   H26932791   0.648   6.825   1.254  3.2648  0.3536 -2.0272
  102MOL   H27032792   0.699   6.737   1.680  0.9729 -0.5157  0.0166
  102MOL   H27132793   0.757   6.517   1.629 -1.4413 -1.6260 -1.5350
  102MOL   H27232794   0.926   6.349   1.523  0.3107  0.3972 -0.2190
  102MOL   H27332795   0.928   6.249   1.379  1.1515 -0.2247  2.2609
  102MOL   C27432796   1.024   6.435   1.360  0.0981 -0.0898 -0.1687
  102MOL   C27532797   1.046   6.564   1.437  0.8872 -0.4701 -0.2289
  102MOL   C27632798   1.080   6.561   1.571 -0.5797 -0.1052  0.2831
  102MOL   C27732799   1.090   6.680   1.643  0.0958  0.2856  0.3303
  102MOL   C27832800   1.070   6.802   1.581 -0.2558 -0.2093 -0.2228
  102MOL   F27932801   1.097   6.923   1.646 -0.1710  0.0356  0.3078
  102MOL   C28032802   1.044   6.808   1.442  0.3669  0.0120 -0.0573
  102MOL   C28132803   1.031   6.687   1.370  0.5405  0.5604 -0.9260
  102MOL   C28232804   1.144   6.337   1.340  0.3634 -0.8803  0.8027
  102MOL   H28332805   0.986   6.470   1.264 -0.6134  0.4473  0.3018
  102MOL   H28432806   1.091   6.469   1.626 -0.6227  1.0754  2.3099
  102MOL   H28532807   1.128   6.679   1.745  4.4292 -1.9980 -1.1686
  102MOL   H28632808   1.028   6.906   1.399 -0.4792 -1.4849 -3.3049
  102MOL   H28732809   0.991   6.679   1.270 -1.6380 -2.1825  0.0920
  102MOL   H28832810   1.164   6.277   1.430 -0.0879 -0.2554  1.3179
  102MOL   H28932811   1.112   6.262   1.267 -0.8489 -0.6016  1.0408
  102MOL   C29032812   1.282   6.404   1.292 -0.1054  0.7344 -0.2670
  102MOL   C29132813   1.396   6.313   1.340 -0.4356 -0.3232  0.6914
  102MOL   C29232814   1.441   6.329   1.473 -0.5530  0.0016  0.0511
  102MOL   C29332815   1.539   6.241   1.523 -0.1735  0.6562  0.2534
  102MOL   C29432816   1.611   6.150   1.435 -0.1604 -0.8635  0.1521
  102MOL   F29532817   1.713   6.074   1.487  0.8906 -0.3211  0.4391
  102MOL   C29632818   1.568   6.139   1.303  0.0373 -0.2825 -0.2123
  102MOL   C29732819   1.462   6.222   1.255 -0.1760  0.5172  0.0894
  102MOL   C29832820   1.283   6.441   1.140 -0.5470  0.2135 -0.1942
  102MOL   H29932821   1.297   6.497   1.347  1.9313  0.0358  0.4230
  102MOL   H30032822   1.409   6.419   1.524 -2.0224 -0.2801 -0.3563
  102MOL   H30132823   1.562   6.235   1.628  1.7115 -2.0193 -0.2586
  102MOL   H30232824   1.631   6.076   1.244  0.4023  0.4921 -0.6511
  102MOL   H30332825   1.443   6.206   1.149  1.0855  3.0191 -0.5534
  102MOL   H30432826   1.264   6.342   1.099  1.7624 -0.5099  0.4241
  102MOL   H30532827   1.199   6.504   1.110 -2.2316 -1.4935  0.8233
  102MOL   C30632828   1.416   6.514   1.087 -0.5374  0.2226 -0.5978
  102MOL   C30732829   1.401   6.539   0.939  0.3397  0.0814  0.4544
  102MOL   C30832830   1.341   6.657   0.885  0.2111 -0.3437 -0.4315
  102MOL   C30932831   1.318   6.673   0.740 -0.3505  0.4600 -0.3330
  102MOL   C31032832   1.349   6.567   0.658  0.2484 -0.3649  0.4727
  102MOL   F31132833   1.323   6.579   0.528  0.1599  0.3793 -0.0862
  102MOL   C31232834   1.406   6.452   0.714 -0.1631  0.4052  0.6045
  102MOL   C31332835   1.429   6.436   0.846 -0.3171  0.0256  0.5699
  102MOL   C31432836   1.459   6.639   1.172  0.1168  0.1875 -1.0016
  102MOL   H31532837   1.504   6.450   1.080 -0.3695  0.5661 -1.8493
  102MOL   H31632838   1.313   6.735   0.954  1.1063  0.4085 -0.9093
  102MOL   H31732839   1.280   6.759   0.687 -0.6326  2.4213  2.9846
  102MOL   H31832840   1.433   6.369   0.650 -0.7245  0.2189  0.6091
  102MOL   H31932841   1.474   6.344   0.882 -1.5146 -1.1244 -0.8139
  102MOL   H32032842   1.392   6.725   1.173 -0.3796 -0.2020 -0.2386
  102MOL   H32132843   1.468   6.610   1.276 -1.7813 -0.4117 -0.9782
  102MOL   H32232844   1.550   6.683   1.132  0.4743  3.0739  2.7142
  103MOL     C132845   2.396   3.108   5.706  0.3652  0.2326 -0.0941
  103MOL     C232846   2.325   3.077   5.834 -0.5345 -0.2142  0.2866
  103MOL     C332847   2.188   3.076   5.843 -0.3522  0.1965  0.2978
  103MOL     C432848   2.114   3.051   5.957 -0.1035 -0.1216 -0.4065
  103MOL     C532849   2.181   3.018   6.069 -0.7346 -0.0250  0.1188
  103MOL     F632850   2.103   2.983   6.177  0.1543  0.2167  0.1656
  103MOL     C732851   2.320   3.023   6.075  0.3251  0.2150  0.7993
  103MOL     C832852   2.392   3.049   5.962  0.2501 -0.0969  0.5733
  103MOL     C932853   2.384   2.983   5.607 -1.2162 -0.2567  0.4268
  103MOL    H1032854   2.502   3.117   5.728  0.5791 -1.4054 -0.3924
  103MOL    H1132855   2.137   3.099   5.751  0.2785 -1.3480 -0.4452
  103MOL    H1232856   2.007   3.037   5.946 -0.1937  0.3130 -0.0946
  103MOL    H1332857   2.359   3.005   6.174 -2.1637 -0.4232  1.7103
  103MOL    H1432858   2.500   3.047   5.954  0.2158 -0.8599  0.2510
  103MOL    H1532859   2.410   2.889   5.655  1.1227  0.6830  1.0992
  103MOL    H1632860   2.277   2.987   5.584 -1.3423  1.6929  1.2497
  103MOL    H1732861   2.365   3.201   5.660  0.3593  0.3045  0.0554
  103MOL    C1832862   2.462   3.003   5.475  0.0565 -0.5242 -0.3999
  103MOL    C1932863   2.605   3.034   5.502  0.1809 -0.0429 -0.3713
  103MOL    C2032864   2.666   3.153   5.465 -0.0136  0.1367 -0.4429
  103MOL    C2132865   2.804   3.176   5.471 -0.0386 -0.5041 -0.7668
  103MOL    C2232866   2.882   3.077   5.536  0.5425  0.0409  0.0436
  103MOL    F2332867   3.011   3.105   5.563 -0.6546 -0.1697 -0.0081
  103MOL    C2432868   2.818   2.962   5.590 -0.2251 -0.3979  0.8688
  103MOL    C2532869   2.682   2.948   5.579  0.3579  0.0198  0.0109
  103MOL    C2632870   2.438   2.889   5.365 -0.2410  0.0511 -0.2931
  103MOL    H2732871   2.411   3.091   5.435  1.7474  0.7879  0.2681
  103MOL    H2832872   2.616   3.227   5.405  1.5751  1.8468  0.2767
  103MOL    H2932873   2.853   3.268   5.443  2.5512 -1.4621  0.3727
  103MOL    H3032874   2.883   2.887   5.633 -1.5677 -2.1350 -0.0834
  103MOL    H3132875   2.627   2.863   5.615 -1.0485  0.5884 -0.7778
  103MOL    H3232876   2.515   2.817   5.392  2.4865  2.9228 -0.0692
  103MOL    H3332877   2.347   2.831   5.381  0.3587 -0.4016  1.6422
  103MOL    C3432878   2.453   2.950   5.214  0.0897  0.0744 -0.7560
  103MOL    C3532879   2.505   2.853   5.101  0.9024 -0.3408  0.5457
  103MOL    C3632880   2.411   2.795   5.016 -0.0202  0.2879 -0.3764
  103MOL    C3732881   2.449   2.710   4.911 -0.0266  0.2757 -0.2375
  103MOL    C3832882   2.585   2.676   4.899 -0.0036  0.3610  0.1894
  103MOL    F3932883   2.630   2.587   4.802  0.7579 -0.1609 -0.3143
  103MOL    C4032884   2.680   2.729   4.985 -0.3659  0.1939  0.5188
  103MOL    C4132885   2.643   2.818   5.084  0.1730 -0.1999 -0.2717
  103MOL    C4232886   2.349   3.060   5.168  0.4932 -0.6641 -0.0122
  103MOL    H4332887   2.544   3.009   5.229 -0.6725  0.4532  2.9236
  103MOL    H4432888   2.306   2.811   5.036  0.6150  2.1357  1.6890
  103MOL    H4532889   2.381   2.660   4.843  0.0494 -1.4967  0.9676
  103MOL    H4632890   2.787   2.715   4.983 -0.1513  1.8011 -0.0079
  103MOL    H4732891   2.724   2.857   5.143  1.8416 -2.0403 -1.2909
  103MOL    H4832892   2.269   2.990   5.144 -1.3206  0.9448  1.1813
  103MOL    H4932893   2.319   3.120   5.254  0.2816 -2.1444  0.9733
  103MOL    C5032894   2.397   3.152   5.054  0.5876 -0.4764  0.2858
  103MOL    C5132895   2.276   3.224   4.988 -0.1647 -0.2482 -0.3645
  103MOL    C5232896   2.247   3.217   4.853  0.7031  0.0991  0.5894
  103MOL    C5332897   2.134   3.291   4.807 -0.3636  0.2703  0.3273
  103MOL    C5432898   2.053   3.366   4.891  0.1929  0.3325  0.2290
  103MOL    F5532899   1.959   3.439   4.833  0.0419  0.2046 -0.5223
  103MOL    C5632900   2.080   3.371   5.024 -0.6137 -0.2949  0.0722
  103MOL    C5732901   2.192   3.294   5.071 -0.1757 -0.6646 -0.7135
  103MOL    C5832902   2.496   3.260   5.112  0.2123  0.1168 -0.4118
  103MOL    H5932903   2.459   3.099   4.980  2.5921  2.1361  0.0177
  103MOL    H6032904   2.300   3.159   4.779 -1.3280 -1.3419  0.2030
  103MOL    H6132905   2.107   3.309   4.704 -1.0654  3.2274  0.9819
  103MOL    H6232906   2.026   3.440   5.087 -0.4836  0.2264 -0.3764
  103MOL    H6332907   2.211   3.297   5.178  0.9698 -1.2866 -0.8837
  103MOL    H6432908   2.457   3.295   5.207  2.5981 -3.2833  1.9787
  103MOL    H6532909   2.581   3.206   5.153 -1.3617 -2.3287 -0.2841
  103MOL    C6632910   2.547   3.361   5.008 -0.8549  0.5061  0.0934
  103MOL    C6732911   2.458   3.486   5.010 -0.2464  0.1438  0.4386
  103MOL    C6832912   2.437   3.552   4.885 -0.0980  0.1721 -0.2419
  103MOL    C6932913   2.358   3.664   4.877 -0.8592  0.1890 -0.2130
  103MOL    C7032914   2.305   3.723   4.995  0.2125 -0.2636 -0.1951
  103MOL    F7132915   2.222   3.827   4.983  0.1737  0.6374  0.3669
  103MOL    C7232916   2.336   3.667   5.122  0.0363  0.0445 -0.0210
  103MOL    C7332917   2.415   3.548   5.127 -0.3297 -0.3814 -0.2593
  103MOL    C7432918   2.704   3.389   5.018 -0.2360 -0.2240  0.1925
  103MOL    H7532919   2.526   3.313   4.913 -0.5733  1.2512 -0.3547
  103MOL    H7632920   2.478   3.502   4.798  1.6213 -1.5730  1.5485
  103MOL    H7732921   2.337   3.708   4.780 -1.0207  1.7423  0.5204
  103MOL    H7832922   2.302   3.714   5.213  1.9464  2.8634 -0.6671
  103MOL    H7932923   2.435   3.504   5.224 -1.4908 -1.3418 -0.4477
  103MOL    H8032924   2.730   3.495   5.010 -2.4888  0.2530 -1.3947
  103MOL    H8132925   2.725   3.375   5.124  1.5930 -0.2098 -0.1574
  103MOL    C8232926   2.801   3.291   4.945 -0.1272  0.6689 -0.7323
  103MOL    C8332927   2.778   3.298   4.791  0.0088 -0.9010 -0.2279
  103MOL    C8432928   2.759   3.180   4.715 -0.0805 -0.0888 -0.8229
  103MOL    C8532929   2.741   3.184   4.576 -0.1755  0.5164 -0.6491
  103MOL    C8632930   2.734   3.309   4.514 -0.2177  0.3460 -0.3650
  103MOL    F8732931   2.717   3.305   4.377  0.2254 -0.1525  0.5449
  103MOL    C8832932   2.750   3.427   4.585 -0.5896  0.4167  0.5885
  103MOL    C8932933   2.781   3.419   4.723  0.5634 -0.2298 -0.6551
  103MOL    C9032934   2.946   3.316   4.978  0.0740  0.8143  0.1873
  103MOL    H9132935   2.779   3.187   4.969  1.6671  0.3536 -0.3704
  103MOL    H9232936   2.740   3.082   4.757 -0.1690  0.0937 -0.4326
  103MOL    H9332937   2.724   3.088   4.529  1.4154  0.3356 -0.8702
  103MOL    H9432938   2.738   3.522   4.536 -1.5738  0.0760  0.1575
  103MOL    H9532939   2.803   3.503   4.787  3.4378 -1.1153 -0.3984
  103MOL    H9632940   3.004   3.282   4.892 -0.5790  0.3974 -0.0937
  103MOL    H9732941   2.960   3.424   4.976 -1.1309  0.9851  0.7029
  103MOL    C9832942   3.013   3.247   5.099 -0.2221  0.3242  0.2809
  103MOL    C9932943   3.016   3.094   5.083  0.0192  0.2194  0.1179
  103MOL   C10032944   3.013   3.024   4.962  0.2779  0.8977  0.4579
  103MOL   C10132945   3.016   2.883   4.961 -0.5835  0.0787  0.7584
  103MOL   C10232946   3.014   2.809   5.082 -0.5412 -0.0697 -0.6701
  103MOL   F10332947   3.013   2.676   5.086  0.4178  0.0196  0.0901
  103MOL   C10432948   3.030   2.880   5.200  0.0412  0.6737  0.2367
  103MOL   C10532949   3.031   3.022   5.205 -0.0289  0.1073 -0.1807
  103MOL   C10632950   3.157   3.297   5.122  0.2106 -0.4057 -0.5211
  103MOL   H10732951   2.940   3.271   5.177 -0.7554  0.2298 -0.1780
  103MOL   H10832952   3.014   3.075   4.866 -0.2954  1.1543  0.5917
  103MOL   H10932953   3.010   2.824   4.871 -3.2333  0.9232  0.3421
  103MOL   H11032954   3.033   2.832   5.296 -1.9116  1.8239  0.9077
  103MOL   H11132955   3.031   3.073   5.300  1.4884  0.0701 -0.1539
  103MOL   H11232956   3.217   3.223   5.175  0.6319 -0.1734 -0.6742
  103MOL   H11332957   3.200   3.303   5.022  0.0776  0.0316 -0.5528
  103MOL   C11432958   3.184   3.430   5.191  0.0293  0.2275 -0.1832
  103MOL   C11532959   3.133   3.424   5.328 -0.4855 -0.1051 -0.2801
  103MOL   C11632960   3.194   3.345   5.427 -0.3127 -0.0263  0.5437
  103MOL   C11732961   3.156   3.354   5.558 -0.3567 -0.4242  0.0651
  103MOL   C11832962   3.040   3.431   5.598 -0.5896 -0.3161 -0.0228
  103MOL   F11932963   3.013   3.459   5.728 -0.3499 -0.1342  0.1823
  103MOL   C12032964   2.975   3.507   5.502  0.7734  1.0690  0.2364
  103MOL   C12132965   3.016   3.499   5.370 -0.0710 -0.3274 -0.3556
  103MOL   C12232966   3.331   3.491   5.184  0.6410  0.2004 -0.2256
  103MOL   H12332967   3.115   3.496   5.139 -0.0789  0.2092 -0.0617
  103MOL   H12432968   3.280   3.288   5.393  0.6675  0.9947  1.2635
  103MOL   H12532969   3.221   3.310   5.633 -0.5029 -0.2787  0.2765
  103MOL   H12632970   2.889   3.569   5.522 -0.3145 -0.2629 -0.1906
  103MOL   H12732971   2.959   3.558   5.300 -0.5520  0.0673  0.3655
  103MOL   H12832972   3.345   3.573   5.254  0.1938  1.1694 -1.2488
  103MOL   H12932973   3.407   3.423   5.221  0.9359  0.8219  0.3080
  103MOL   C13032974   3.383   3.530   5.048 -0.6543 -0.1131 -0.5789
  103MOL   C13132975   3.278   3.613   4.969 -0.3060 -0.6021  0.2092
  103MOL   C13232976   3.242   3.743   5.019 -0.6894 -0.6058 -0.1374
  103MOL   C13332977   3.151   3.823   4.944 -0.3537  0.0046  1.0052
  103MOL   C13432978   3.108   3.776   4.816 -0.7416 -0.3927 -0.2301
  103MOL   F13532979   3.039   3.859   4.732 -0.6233 -0.2282 -0.3470
  103MOL   C13632980   3.138   3.649   4.769  0.4433 -0.3518  0.1758
  103MOL   C13732981   3.227   3.562   4.850  0.2354  0.0018  0.7034
  103MOL   C13832982   3.527   3.590   5.054  0.8876 -0.0028  0.5303
  103MOL   H13932983   3.398   3.438   4.992  0.4428 -0.3887  0.1465
  103MOL   H14032984   3.279   3.776   5.114 -0.5769 -0.4871 -0.2225
  103MOL   H14132985   3.114   3.919   4.976 -1.8370  0.1471 -1.0248
  103MOL   H14232986   3.101   3.611   4.675 -0.0004 -1.3345  0.7425
  103MOL   H14332987   3.244   3.461   4.815 -1.0337 -0.3648  1.1161
  103MOL   H14432988   3.536   3.656   5.140  0.4429 -0.1891  0.7228
  103MOL   H14532989   3.592   3.509   5.087  0.5058  0.1623  1.6926
  103MOL   C14632990   3.583   3.671   4.936  0.0842 -0.2476  0.4835
  103MOL   C14732991   3.711   3.731   4.991  0.5872 -0.2262 -0.4108
  103MOL   C14832992   3.717   3.865   5.042  1.0055 -0.3874  0.2788
  103MOL   C14932993   3.826   3.917   5.115 -0.7264 -0.2347  0.8435
  103MOL   C15032994   3.938   3.830   5.133 -0.7738  0.0552  0.3451
  103MOL   F15132995   4.051   3.872   5.198  0.6945 -0.0679  0.0753
  103MOL   C15232996   3.931   3.695   5.089 -0.5706 -0.4802 -0.0621
  103MOL   C15332997   3.815   3.640   5.023 -0.1639 -0.0104  0.5395
  103MOL   C15432998   3.608   3.600   4.799  0.4589  0.5847 -0.9448
  103MOL   H15532999   3.508   3.744   4.907  1.0429  0.1820 -0.9575
  103MOL   H15633000   3.630   3.927   5.025  0.8886 -0.6322 -0.0271
  103MOL   H15733001   3.828   4.018   5.155  0.2801  0.2332 -0.3253
  103MOL   H15833002   4.018   3.641   5.123  2.1338  2.3934 -2.1975
  103MOL   H15933003   3.805   3.539   4.988 -0.3174  0.7450 -1.7004
  103MOL   H16033004   3.696   3.536   4.807 -0.6326 -0.7663  0.6418
  103MOL   H16133005   3.517   3.541   4.787  0.9410 -0.4873  0.4699
  103MOL   C16233006   3.605   3.680   4.669 -0.2324 -0.2570  0.9459
  103MOL   C16333007   3.640   3.823   4.680  0.1795 -0.3594  0.1126
  103MOL   C16433008   3.768   3.873   4.710 -0.2049 -0.4852  0.1317
  103MOL   C16533009   3.789   4.007   4.726 -0.7660  0.2867  0.2021
  103MOL   C16633010   3.684   4.100   4.713 -0.0639  0.2430 -0.3226
  103MOL   F16733011   3.724   4.232   4.713 -0.2624  0.4067  0.2724
  103MOL   C16833012   3.558   4.054   4.676 -0.3641  0.0240  0.3335
  103MOL   C16933013   3.536   3.917   4.655  0.1727  0.3198 -0.0932
  103MOL   C17033014   3.695   3.614   4.561 -0.5751 -0.5227  0.8623
  103MOL   H17133015   3.504   3.688   4.630  0.1927  0.7309 -0.0001
  103MOL   H17233016   3.854   3.808   4.717  1.3275  1.1746 -2.6561
  103MOL   H17333017   3.889   4.046   4.739 -0.6785  0.4494 -0.9103
  103MOL   H17433018   3.488   4.128   4.641 -1.7387 -1.7609 -0.8415
  103MOL   H17533019   3.437   3.885   4.625  0.2370  0.8732 -0.9149
  103MOL   H17633020   3.678   3.665   4.466 -0.4457 -2.5130 -0.2647
  103MOL   H17733021   3.801   3.623   4.586  0.0120  2.5507 -2.3351
  103MOL   C17833022   3.665   3.473   4.521 -0.4961  0.4404 -0.3812
  103MOL   C17933023   3.521   3.460   4.486 -0.5401 -0.3110  0.7314
  103MOL   C18033024   3.464   3.536   4.381 -0.7570 -0.3684 -0.1898
  103MOL   C18133025   3.324   3.530   4.370  0.0408  0.6590  0.4684
  103MOL   C18233026   3.241   3.445   4.452  0.3593  1.0627  0.2688
  103MOL   F18333027   3.107   3.438   4.434 -0.4774 -0.0873 -0.0068
  103MOL   C18433028   3.301   3.358   4.549  0.9453  0.0869  0.2460
  103MOL   C18533029   3.443   3.375   4.569 -0.2881 -0.0169 -0.0639
  103MOL   C18633030   3.757   3.436   4.407 -0.7726  0.3396  0.4932
  103MOL   H18733031   3.693   3.403   4.600  0.5094  1.7051  0.4003
  103MOL   H18833032   3.520   3.611   4.327  1.2698 -1.3343  0.5268
  103MOL   H18933033   3.271   3.596   4.303  2.7261  1.6976 -0.7338
  103MOL   H19033034   3.240   3.300   4.617  0.3499 -0.3075 -0.6134
  103MOL   H19133035   3.479   3.313   4.650 -0.0994 -0.4525 -0.4798
  103MOL   H19233036   3.747   3.506   4.325  1.2669 -0.2243 -0.2865
  103MOL   H19333037   3.855   3.476   4.435 -0.0633  0.9147 -2.5887
  103MOL   C19433038   3.752   3.294   4.353 -0.6683  0.2173 -0.0993
  103MOL   C19533039   3.836   3.261   4.235 -0.1699  0.0670  0.2424
  103MOL   C19633040   3.783   3.218   4.114 -0.3684 -0.2633  0.2140
  103MOL   C19733041   3.858   3.183   4.004  0.5496  0.4006  0.1497
  103MOL   C19833042   4.005   3.188   4.011 -0.2453 -0.4576 -0.1614
  103MOL   F19933043   4.072   3.161   3.896 -0.1647  0.3278 -0.4209
  103MOL   C20033044   4.060   3.252   4.125 -0.1501  0.0792 -0.2548
  103MOL   C20133045   3.983   3.277   4.238  0.9364 -0.4057 -0.7006
  103MOL   C20233046   3.773   3.182   4.450  0.4717 -0.4050 -0.6723
  103MOL   H20333047   3.647   3.287   4.324 -1.0821  1.9256  0.8847
  103MOL   H20433048   3.677   3.195   4.105 -0.0894 -2.1254  1.3149
  103MOL   H20533049   3.817   3.134   3.917  1.9451 -0.8614  0.1647
  103MOL   H20633050   4.167   3.269   4.128 -0.2521  0.6437  0.1994
  103MOL   H20733051   4.027   3.322   4.326  1.5281 -1.2672 -0.5533
  103MOL   H20833052   3.877   3.171   4.482 -0.0620 -1.4246  0.7518
  103MOL   H20933053   3.724   3.199   4.545  0.3503 -0.3924 -0.7374
  103MOL   C21033054   3.730   3.037   4.406  0.6286  0.1721 -0.0567
  103MOL   C21133055   3.779   2.935   4.504  0.1983 -0.0910 -0.1881
  103MOL   C21233056   3.718   2.933   4.631 -0.1595 -0.2399 -0.6583
  103MOL   C21333057   3.761   2.840   4.728 -0.2377 -0.0074 -0.3022
  103MOL   C21433058   3.861   2.748   4.697  0.0439  0.2153 -0.0818
  103MOL   F21533059   3.918   2.665   4.789 -0.2446  0.4138  0.4974
  103MOL   C21633060   3.923   2.753   4.575 -0.3287  0.6134 -0.3715
  103MOL   C21733061   3.888   2.852   4.477 -0.1973 -0.3259  0.0582
  103MOL   C21833062   3.569   3.028   4.389 -0.8793 -0.2232  0.0359
  103MOL   H21933063   3.776   3.014   4.310  0.1402  1.4540 -0.6097
  103MOL   H22033064   3.632   2.993   4.654 -0.5775 -1.4277  0.9447
  103MOL   H22133065   3.717   2.840   4.827  0.5023 -2.2382  0.0447
  103MOL   H22233066   3.991   2.672   4.555  1.4238  2.3042 -1.4402
  103MOL   H22333067   3.928   2.843   4.377 -1.0189  2.8567 -0.5939
  103MOL   H22433068   3.522   3.065   4.480 -0.2400 -0.8567  0.6281
  103MOL   H22533069   3.521   3.088   4.311  2.5264 -0.7478 -2.5968
  103MOL   C22633070   3.512   2.892   4.355  0.3477  0.3459  0.5741
  103MOL   C22733071   3.376   2.878   4.416  0.5389  0.2101  0.1534
  103MOL   C22833072   3.340   2.764   4.496 -0.5731  0.3404 -0.2415
  103MOL   C22933073   3.211   2.757   4.551 -0.2028 -0.0882  0.4363
  103MOL   C23033074   3.124   2.870   4.540 -0.6111  0.2973  0.6732
  103MOL   F23133075   3.003   2.872   4.599 -0.2066 -0.2667 -0.3106
  103MOL   C23233076   3.162   2.984   4.473  1.0169  0.0210 -0.2753
  103MOL   C23333077   3.283   2.987   4.403 -0.8070  0.5955  0.4230
  103MOL   C23433078   3.509   2.855   4.198  0.6523  0.0334 -0.0317
  103MOL   H23533079   3.565   2.815   4.410  0.9287 -0.5224 -1.1810
  103MOL   H23633080   3.409   2.683   4.515 -0.2272  0.6112 -0.3400
  103MOL   H23733081   3.190   2.668   4.609 -0.5633 -0.5079 -0.3338
  103MOL   H23833082   3.095   3.068   4.466  1.5379  0.3728 -1.2402
  103MOL   H23933083   3.306   3.079   4.352 -0.1374  0.4233  0.4167
  103MOL   H24033084   3.405   2.850   4.166  0.6771 -0.1488 -0.0883
  103MOL   H24133085   3.563   2.930   4.141  1.8178 -2.2430 -2.0390
  103MOL   C24233086   3.592   2.723   4.167 -0.8519  0.3951 -0.6449
  103MOL   C24333087   3.541   2.602   4.244 -0.3802  0.8017 -0.0508
  103MOL   C24433088   3.635   2.519   4.306 -0.3420  0.6289  0.2200
  103MOL   C24533089   3.584   2.414   4.384 -0.3495  0.1888  0.1702
  103MOL   C24633090   3.445   2.385   4.389 -0.0309 -0.2717  0.2652
  103MOL   F24733091   3.395   2.277   4.456  0.5153 -0.2762 -0.3360
  103MOL   C24833092   3.355   2.468   4.316 -0.7031  0.1368  0.0081
  103MOL   C24933093   3.406   2.572   4.240  0.4428  0.2006  0.6966
  103MOL   C25033094   3.612   2.695   4.017 -0.2611 -0.1046  0.8816
  103MOL   H25133095   3.692   2.740   4.207 -0.2294 -0.5131 -1.7701
  103MOL   H25233096   3.741   2.539   4.306 -0.0522 -0.8630  0.2847
  103MOL   H25333097   3.658   2.350   4.431 -0.2611  0.6865  0.7056
  103MOL   H25433098   3.249   2.443   4.314 -1.1921  2.1354 -0.2355
  103MOL   H25533099   3.337   2.631   4.181 -1.7299 -2.7540  0.1365
  103MOL   H25633100   3.620   2.588   4.003  0.8207  0.0769  0.0317
  103MOL   H25733101   3.515   2.722   3.976 -0.9184 -0.9262  1.8775
  103MOL   C25833102   3.737   2.767   3.960 -0.3243  0.1532  0.3330
  103MOL   C25933103   3.866   2.738   4.039 -0.1303 -0.4304 -0.2469
  103MOL   C26033104   3.909   2.613   4.081 -0.1387  0.6535  0.4841
  103MOL   C26133105   4.027   2.601   4.157 -0.6118 -0.3863 -0.2400
  103MOL   C26233106   4.095   2.712   4.201 -0.0293 -0.3367  0.2174
  103MOL   F26333107   4.188   2.695   4.288  0.3810 -0.1229  0.1302
  103MOL   C26433108   4.050   2.838   4.162 -0.5317 -0.4393 -0.3200
  103MOL   C26533109   3.935   2.845   4.091 -0.4385  0.2372  0.0763
  103MOL   C26633110   3.743   2.720   3.807  0.1095  0.8244  0.3278
  103MOL   H26733111   3.729   2.875   3.951 -0.2480 -0.1074 -3.9786
  103MOL   H26833112   3.861   2.522   4.048  2.8697 -0.6084 -0.6123
  103MOL   H26933113   4.062   2.504   4.191  0.0996  0.4789  1.5880
  103MOL   H27033114   4.108   2.925   4.189  0.9850 -1.5346  0.1000
  103MOL   H27133115   3.903   2.945   4.066  2.2159  1.2859  0.6732
  103MOL   H27233116   3.849   2.719   3.779 -0.7907  1.7563 -3.4783
  103MOL   H27333117   3.714   2.616   3.812 -1.2474  1.1891  0.2281
  103MOL   C27433118   3.654   2.805   3.711 -0.2151 -0.1753 -0.5301
  103MOL   C27533119   3.710   2.946   3.694  0.4203 -0.0441  0.2984
  103MOL   C27633120   3.837   2.965   3.646 -0.0296 -0.0383 -0.2438
  103MOL   C27733121   3.881   3.097   3.622 -0.1988 -0.3719  0.0224
  103MOL   C27833122   3.800   3.210   3.645 -0.2739  0.9273  0.2304
  103MOL   F27933123   3.850   3.330   3.614  1.1822  0.6622 -0.3709
  103MOL   C28033124   3.669   3.188   3.688  0.1973 -0.3131 -0.4752
  103MOL   C28133125   3.629   3.054   3.719  0.5075  0.2202 -0.6142
  103MOL   C28233126   3.646   2.745   3.571  0.0909 -0.1272  0.1386
  103MOL   H28333127   3.551   2.809   3.747 -0.0074  0.0845  0.0421
  103MOL   H28433128   3.901   2.880   3.624 -1.7733 -1.5188  0.3390
  103MOL   H28533129   3.983   3.100   3.586 -0.0962 -1.6017  0.1925
  103MOL   H28633130   3.601   3.272   3.688 -0.4134 -0.7750  1.6369
  103MOL   H28733131   3.527   3.043   3.753  0.5980 -0.1177 -0.4608
  103MOL   H28833132   3.613   2.831   3.512  1.1028  0.1041 -0.1017
  103MOL   H28933133   3.742   2.720   3.526  0.3130  2.0235 -0.6658
  103MOL   C29033134   3.546   2.630   3.551 -0.4155  0.5132 -0.2489
  103MOL   C29133135   3.479   2.637   3.420  0.3056 -0.3958  0.1061
  103MOL   C29233136   3.554   2.648   3.296 -0.8422  0.4790 -0.1238
  103MOL   C29333137   3.491   2.660   3.165  0.0258 -0.0212  0.0131
  103MOL   C29433138   3.354   2.669   3.167  0.3372 -0.1005 -0.0966
  103MOL   F29533139   3.292   2.698   3.050  0.1011  0.0291  0.4789
  103MOL   C29633140   3.279   2.662   3.287 -0.1853 -0.5150  0.5215
  103MOL   C29733141   3.339   2.640   3.414  0.1361  0.4056 -0.7132
  103MOL   C29833142   3.605   2.488   3.577 -0.0196 -0.0876  0.5314
  103MOL   H29933143   3.470   2.647   3.627 -0.5487  1.4675 -0.5895
  103MOL   H30033144   3.661   2.638   3.299 -0.9115 -0.4334 -0.4541
  103MOL   H30133145   3.550   2.675   3.076 -0.3651  3.4737  0.2492
  103MOL   H30233146   3.174   2.684   3.282  0.5642  3.0082 -0.6166
  103MOL   H30333147   3.289   2.639   3.510 -1.3692 -0.4893 -1.4882
  103MOL   H30433148   3.631   2.461   3.475 -0.9406  1.0178 -0.0061
  103MOL   H30533149   3.702   2.493   3.627  0.4247 -1.6685 -0.1633
  103MOL   C30633150   3.505   2.394   3.633 -0.6988 -0.4050 -0.6589
  103MOL   C30733151   3.536   2.256   3.598 -0.0303  0.4542  0.7283
  103MOL   C30833152   3.432   2.168   3.551  0.0372 -0.5086  0.1231
  103MOL   C30933153   3.454   2.031   3.535  0.6760  0.2755  0.0762
  103MOL   C31033154   3.584   1.980   3.542  0.2090  0.4394  0.3530
  103MOL   F31133155   3.603   1.852   3.510 -0.1687  0.3342  0.0518
  103MOL   C31233156   3.688   2.068   3.579 -0.1882 -0.0167 -1.1384
  103MOL   C31333157   3.665   2.207   3.606 -0.6198  1.0655  0.1527
  103MOL   C31433158   3.482   2.411   3.787  0.1201  0.5629  0.6847
  103MOL   H31533159   3.412   2.421   3.583 -0.1498  1.0151 -0.9119
  103MOL   H31633160   3.330   2.202   3.561  0.1265 -0.7135  2.0290
  103MOL   H31733161   3.367   1.968   3.518  0.9196 -0.1953  0.5488
  103MOL   H31833162   3.792   2.040   3.579 -0.4063 -0.9012 -2.8960
  103MOL   H31933163   3.742   2.268   3.651  0.5379 -1.1528  1.2585
  103MOL   H32033164   3.562   2.374   3.852 -0.2539 -2.5114 -0.5203
  103MOL   H32133165   3.467   2.516   3.812  2.3639  0.8184  1.0767
  103MOL   H32233166   3.390   2.362   3.818 -0.1625  0.1262 -0.8208
  104MOL     C133167   6.687   6.511   6.100  0.2709 -0.2159 -0.3328
  104MOL     C233168   6.732   6.381   6.157 -0.1820 -0.3892 -0.0496
  104MOL     C333169   6.831   6.370   6.250 -0.5458  0.4377  0.7864
  104MOL     C433170   6.860   6.250   6.318  1.2334  0.7609  0.4127
  104MOL     C533171   6.796   6.132   6.267  0.7727 -0.2804 -0.7208
  104MOL     F633172   6.816   6.013   6.325  0.0218  0.3487 -0.1423
  104MOL     C733173   6.696   6.140   6.168 -0.2712  0.2128 -0.1799
  104MOL     C833174   6.662   6.266   6.113 -0.0580  0.7354  0.6362
  104MOL     C933175   6.803   6.559   6.003 -0.1783 -0.2563 -0.1649
  104MOL    H1033176   6.677   6.581   6.182 -1.3809 -1.4163  0.5114
  104MOL    H1133177   6.884   6.463   6.268  0.1891  0.3509 -0.8052
  104MOL    H1233178   6.936   6.236   6.392 -1.3839 -0.1623  3.0254
  104MOL    H1333179   6.651   6.050   6.127 -1.2079  0.2077  0.8326
  104MOL    H1433180   6.580   6.277   6.043  1.1014 -1.0097 -1.0383
  104MOL    H1533181   6.779   6.664   5.985 -0.0008 -0.0422  0.7792
  104MOL    H1633182   6.897   6.546   6.057 -0.9576 -1.1851  1.0233
  104MOL    H1733183   6.594   6.510   6.043 -0.2768  1.5189  0.4890
  104MOL    C1833184   6.813   6.488   5.870  0.5462  0.5704 -0.3261
  104MOL    C1933185   6.681   6.482   5.793  0.3162  0.1966  0.2841
  104MOL    C2033186   6.635   6.354   5.752  0.0858 -0.6517 -0.2825
  104MOL    C2133187   6.506   6.342   5.696  0.2645 -0.1364  0.2099
  104MOL    C2233188   6.441   6.462   5.665  0.4212 -0.2748 -0.6778
  104MOL    F2333189   6.325   6.457   5.591  0.5582  0.2165 -0.1869
  104MOL    C2433190   6.491   6.588   5.704 -0.7641 -0.2607 -0.3857
  104MOL    C2533191   6.614   6.602   5.761 -0.0820  0.2336 -0.4269
  104MOL    C2633192   6.929   6.545   5.782 -0.0882 -0.0850  0.3045
  104MOL    H2733193   6.837   6.387   5.901 -0.1645  0.7353  0.7658
  104MOL    H2833194   6.691   6.263   5.764 -0.9077 -1.1135  0.8494
  104MOL    H2933195   6.461   6.247   5.670 -0.6075  0.5758 -0.9322
  104MOL    H3033196   6.427   6.674   5.691 -0.0135  0.3761  0.0865
  104MOL    H3133197   6.657   6.696   5.793 -0.8689  0.9186 -1.3513
  104MOL    H3233198   6.880   6.557   5.684  0.8212 -0.8227 -0.2412
  104MOL    H3333199   6.964   6.643   5.815 -1.3879  0.5268 -0.0685
  104MOL    C3433200   7.050   6.453   5.760 -0.2359 -0.4927 -0.5726
  104MOL    C3533201   7.113   6.481   5.628  0.3918  1.1185  0.1356
  104MOL    C3633202   7.200   6.596   5.617  0.2884  0.1678 -0.0082
  104MOL    C3733203   7.242   6.632   5.485  0.5644  0.2935  0.3854
  104MOL    C3833204   7.201   6.550   5.372 -0.6025 -0.7012  0.1061
  104MOL    F3933205   7.228   6.584   5.249  0.1454  0.1479  0.7333
  104MOL    C4033206   7.117   6.439   5.391  0.3880  0.2164 -0.5599
  104MOL    C4133207   7.074   6.403   5.518 -0.3698  0.0310  0.8724
  104MOL    C4233208   7.152   6.453   5.878 -0.3908 -0.4154 -0.1044
  104MOL    H4333209   7.004   6.355   5.755  0.5423 -0.8607 -0.6811
  104MOL    H4433210   7.223   6.653   5.705 -2.4334 -0.8292  1.4153
  104MOL    H4533211   7.320   6.704   5.463 -0.2680  1.0381 -0.1811
  104MOL    H4633212   7.089   6.382   5.304  2.6307 -2.9698  0.7058
  104MOL    H4733213   7.012   6.315   5.525  0.1142 -0.1984  2.5552
  104MOL    H4833214   7.158   6.561   5.891 -1.2890 -0.5564  1.6190
  104MOL    H4933215   7.101   6.423   5.969 -0.0377 -1.9024 -0.3761
  104MOL    C5033216   7.288   6.381   5.860  0.3133  0.2006  0.4959
  104MOL    C5133217   7.390   6.438   5.950 -0.1337 -0.3061 -0.5010
  104MOL    C5233218   7.368   6.434   6.085 -0.1887  0.4724 -0.1090
  104MOL    C5333219   7.464   6.492   6.174  0.3217  0.0287  1.1139
  104MOL    C5433220   7.579   6.554   6.122  0.5402  0.4890  0.1272
  104MOL    F5533221   7.664   6.618   6.205 -0.2314 -0.1245  0.1412
  104MOL    C5633222   7.597   6.574   5.982 -1.1788  0.7880 -0.4283
  104MOL    C5733223   7.501   6.511   5.898 -0.1843  0.1070  0.3244
  104MOL    C5833224   7.265   6.226   5.877  0.2942  0.2932 -0.5679
  104MOL    H5933225   7.326   6.404   5.760  1.2249  0.0773  0.8160
  104MOL    H6033226   7.280   6.390   6.131  0.4045 -2.3112 -1.5759
  104MOL    H6133227   7.454   6.485   6.281 -2.3103  2.2868  1.0894
  104MOL    H6233228   7.665   6.650   5.947 -2.0361  1.8622  0.1652
  104MOL    H6333229   7.507   6.534   5.793  1.4900 -0.6827  0.2475
  104MOL    H6433230   7.225   6.197   5.974  0.9450 -1.8216 -0.8952
  104MOL    H6533231   7.194   6.190   5.802  0.6341 -0.0065 -0.7461
  104MOL    C6633232   7.396   6.153   5.858 -0.0729  0.2799  0.2092
  104MOL    C6733233   7.455   6.123   5.993  0.0017  0.3338 -0.8218
  104MOL    C6833234   7.571   6.185   6.041 -0.0279  0.4782  0.3545
  104MOL    C6933235   7.627   6.165   6.169  0.2474 -0.8512  0.3521
  104MOL    C7033236   7.567   6.071   6.254  0.4585  0.1837  0.2604
  104MOL    F7133237   7.613   6.057   6.382 -0.2295 -0.3026  0.3492
  104MOL    C7233238   7.456   5.998   6.214 -0.1478 -0.7594  0.3911
  104MOL    C7333239   7.398   6.020   6.081 -0.4044  0.3973  0.3879
  104MOL    C7433240   7.378   6.027   5.776  0.5506  0.4049  0.4866
  104MOL    H7533241   7.467   6.212   5.800 -0.7898  1.1899  0.2500
  104MOL    H7633242   7.613   6.261   5.976 -0.0016 -0.7424 -1.0899
  104MOL    H7733243   7.709   6.224   6.207 -0.6539  1.6129 -1.4007
  104MOL    H7833244   7.406   5.928   6.279 -1.1004  0.6915  1.2750
  104MOL    H7933245   7.319   5.959   6.040 -1.4912  0.1505  2.7362
  104MOL    H8033246   7.462   5.962   5.802  0.7203  0.4997  0.1856
  104MOL    H8133247   7.280   5.987   5.801 -0.1138  0.2483 -2.1449
  104MOL    C8233248   7.388   6.028   5.625  0.5963  0.3716 -0.3275
  104MOL    C8333249   7.481   6.136   5.570 -0.4540 -0.2975 -0.3631
  104MOL    C8433250   7.615   6.121   5.602  0.2453  0.7500  0.0937
  104MOL    C8533251   7.706   6.211   5.548  0.1009  0.3544  0.3171
  104MOL    C8633252   7.664   6.323   5.473  0.5331 -0.3220 -0.7965
  104MOL    F8733253   7.751   6.413   5.425 -0.3424  0.3107 -0.3847
  104MOL    C8833254   7.525   6.339   5.445 -0.3926 -0.3003 -0.5099
  104MOL    C8933255   7.433   6.242   5.498  0.0793  0.1298 -0.2750
  104MOL    C9033256   7.417   5.889   5.555 -0.3714  0.2965  0.3940
  104MOL    H9133257   7.287   6.045   5.586 -0.2379  0.3182  1.7352
  104MOL    H9233258   7.667   6.048   5.662 -1.4262  0.3378  1.0661
  104MOL    H9333259   7.812   6.192   5.549  0.2683  1.2111 -0.3308
  104MOL    H9433260   7.490   6.422   5.386  0.8479  0.3652 -0.3250
  104MOL    H9533261   7.328   6.254   5.476  0.1067 -0.7084 -0.8606
  104MOL    H9633262   7.422   5.906   5.448 -0.6324 -0.0942  0.3185
  104MOL    H9733263   7.522   5.869   5.575 -0.2707 -0.8480 -1.2106
  104MOL    C9833264   7.324   5.775   5.583  0.0214 -0.3921 -0.3988
  104MOL    C9933265   7.186   5.804   5.530  0.1746  0.5529 -0.0753
  104MOL   C10033266   7.148   5.816   5.393 -0.2783  0.3109  0.5724
  104MOL   C10133267   7.014   5.850   5.352 -0.6511  0.0838  0.2480
  104MOL   C10233268   6.918   5.873   5.457 -0.8511  0.6071 -0.1648
  104MOL   F10333269   6.797   5.924   5.426 -0.1564  0.4126 -0.4249
  104MOL   C10433270   6.956   5.864   5.596 -0.5509 -0.3416 -0.4936
  104MOL   C10533271   7.087   5.825   5.627  0.3751  0.2555 -0.7765
  104MOL   C10633272   7.386   5.642   5.530  0.6961  0.1601 -0.1074
  104MOL   H10733273   7.313   5.767   5.691 -0.7326 -2.2082 -0.6031
  104MOL   H10833274   7.214   5.803   5.309  0.1580  2.7790  0.4925
  104MOL   H10933275   6.977   5.862   5.251  1.0324 -1.0945 -0.5514
  104MOL   H11033276   6.893   5.887   5.680  0.9033  2.2210 -0.0595
  104MOL   H11133277   7.119   5.819   5.729  1.5698  1.6611 -1.0503
  104MOL   H11233278   7.316   5.567   5.569  2.1617 -1.3626 -0.3148
  104MOL   H11333279   7.384   5.637   5.421 -1.9273 -0.2254 -0.0725
  104MOL   C11433280   7.520   5.602   5.580  0.3738 -0.4576 -1.2270
  104MOL   C11533281   7.534   5.606   5.732  0.4770 -0.4765 -0.2675
  104MOL   C11633282   7.434   5.537   5.810 -0.3016 -0.4037  0.8921
  104MOL   C11733283   7.448   5.536   5.947  0.8131  0.0592  0.1767
  104MOL   C11833284   7.563   5.595   6.007  0.3170 -0.1306  0.6323
  104MOL   F11933285   7.579   5.578   6.139 -0.1274 -0.2873 -0.1184
  104MOL   C12033286   7.653   5.675   5.935  0.6285  1.2862  0.2476
  104MOL   C12133287   7.633   5.679   5.798  0.2681 -0.5662  0.0477
  104MOL   C12233288   7.566   5.465   5.525  0.0802 -0.0730  0.1499
  104MOL   H12333289   7.596   5.674   5.551  1.4673 -0.9329  0.4092
  104MOL   H12433290   7.359   5.484   5.753  0.3449  0.9250 -1.2617
  104MOL   H12533291   7.379   5.476   6.005 -0.8599  0.7695 -1.0351
  104MOL   H12633292   7.738   5.717   5.986  0.7849  0.1653  0.9356
  104MOL   H12733293   7.705   5.738   5.742  1.0984 -1.7171 -0.1339
  104MOL   H12833294   7.494   5.392   5.561 -1.5589  1.5719  0.3048
  104MOL   H12933295   7.544   5.459   5.418  0.1616  0.9868  0.0687
  104MOL   C13033296   7.716   5.428   5.548  0.8860  0.2788  0.5952
  104MOL   C13133297   7.768   5.407   5.692 -0.2526  0.1234  0.1662
  104MOL   C13233298   7.883   5.471   5.747  0.5232 -0.1322  0.2654
  104MOL   C13333299   7.915   5.445   5.883  0.6104 -0.3252 -0.5461
  104MOL   C13433300   7.831   5.364   5.967 -0.1946 -0.7236  0.8701
  104MOL   F13533301   7.853   5.360   6.101 -0.5028 -0.3818  0.0692
  104MOL   C13633302   7.729   5.288   5.905 -0.5995  0.3109  0.1682
  104MOL   C13733303   7.693   5.315   5.771  0.5979 -0.2849  0.2735
  104MOL   C13833304   7.757   5.315   5.444  0.6147 -0.1515 -0.2266
  104MOL   H13933305   7.772   5.520   5.531  1.6486 -0.3555 -0.3986
  104MOL   H14033306   7.933   5.547   5.689  1.2090 -1.0763 -0.3936
  104MOL   H14133307   7.997   5.492   5.936 -1.1580  2.7366 -0.3947
  104MOL   H14233308   7.664   5.233   5.971 -1.1419 -1.5244 -1.8272
  104MOL   H14333309   7.602   5.286   5.719  0.8852  0.2639 -0.5371
  104MOL   H14433310   7.672   5.246   5.452  0.5760 -0.0079  0.5875
  104MOL   H14533311   7.747   5.361   5.346 -0.6196 -1.4911 -0.7463
  104MOL   C14633312   7.892   5.240   5.456 -1.3062 -0.3938 -0.4561
  104MOL   C14733313   7.890   5.120   5.366 -0.0460 -0.2046 -0.4146
  104MOL   C14833314   7.893   4.994   5.425 -0.0921 -0.1829  0.0668
  104MOL   C14933315   7.909   4.879   5.345 -0.1389 -0.2051  0.2691
  104MOL   C15033316   7.930   4.888   5.205 -0.9916  0.1104 -0.1161
  104MOL   F15133317   7.955   4.778   5.127 -0.1312  0.5392  0.4049
  104MOL   C15233318   7.925   5.015   5.148  0.3273 -0.6649  0.2098
  104MOL   C15333319   7.895   5.133   5.225 -0.6862  0.1942  0.2041
  104MOL   C15433320   8.018   5.331   5.438  0.1669 -0.3344 -0.3271
  104MOL   H15533321   7.898   5.192   5.554  3.2782 -2.1949 -1.5168
  104MOL   H15633322   7.862   4.974   5.527  1.3059  0.4613  0.6317
  104MOL   H15733323   7.904   4.784   5.396 -1.9019  0.0287  0.5615
  104MOL   H15833324   7.951   5.024   5.043 -1.1468 -1.7181 -0.2670
  104MOL   H15933325   7.878   5.228   5.177 -0.8310 -0.4523 -1.0449
  104MOL   H16033326   8.028   5.343   5.330 -0.2062 -0.1311 -0.3415
  104MOL   H16133327   7.993   5.429   5.478  0.1037 -0.8073  0.8194
  104MOL   C16233328   8.150   5.280   5.496  0.5899  0.0891 -0.1853
  104MOL   C16333329   0.033   5.352   5.429  0.2844 -0.5652 -0.6760
  104MOL   C16433330   0.100   5.300   5.318 -0.1948  0.2557  0.6800
  104MOL   C16533331   0.211   5.368   5.269 -0.1051 -0.1873  0.7806
  104MOL   C16633332   0.246   5.492   5.320 -0.3088  0.3455 -0.3652
  104MOL   F16733333   0.345   5.559   5.255 -0.1328  0.7716 -0.0841
  104MOL   C16833334   0.180   5.550   5.426 -1.2938 -0.0596  0.3149
  104MOL   C16933335   0.066   5.487   5.475  0.2768  0.1989  0.2372
  104MOL   C17033336   8.162   5.270   5.646  0.6560  0.7981 -0.3658
  104MOL   H17133337   8.168   5.180   5.456 -1.4775 -1.3833  2.4631
  104MOL   H17233338   0.064   5.205   5.281  0.5803  0.2182  0.0139
  104MOL   H17333339   0.260   5.322   5.184 -1.5589 -1.4245  0.5842
  104MOL   H17433340   0.205   5.650   5.459  0.6575  0.4378 -2.4228
  104MOL   H17533341   0.013   5.529   5.559 -0.6320  1.5863 -1.0206
  104MOL   H17633342   8.135   5.369   5.684 -0.8428  0.3000 -0.1041
  104MOL   H17733343   8.071   5.216   5.671  2.2004 -1.4700  0.5055
  104MOL   C17833344   0.047   5.196   5.709 -0.2793  0.0208  0.0458
  104MOL   C17933345   0.059   5.229   5.860  0.7905 -0.0127  0.5541
  104MOL   C18033346   0.185   5.273   5.915  0.4071  0.2847 -0.3111
  104MOL   C18133347   0.191   5.310   6.051 -0.0115  0.5243 -0.2806
  104MOL   C18233348   0.085   5.296   6.139  0.4037 -0.0401 -0.0388
  104MOL   F18333349   0.092   5.315   6.272 -0.4752  0.2486  0.6098
  104MOL   C18433350   8.202   5.244   6.084  0.8586 -0.1116  0.6110
  104MOL   C18533351   8.184   5.218   5.948  0.6033  0.3679  0.1164
  104MOL   C18633352   0.027   5.045   5.686 -0.0579 -0.2296  0.1339
  104MOL   H18733353   0.132   5.235   5.653  1.1889 -3.7380 -0.4977
  104MOL   H18833354   0.262   5.283   5.839 -0.1757 -1.6403 -1.1796
  104MOL   H18933355   0.283   5.352   6.091 -0.1416  0.5854 -0.0456
  104MOL   H19033356   8.112   5.243   6.145 -0.5570 -1.4387 -1.4333
  104MOL   H19133357   8.087   5.188   5.911  1.1381 -1.9824  0.5029
  104MOL   H19233358   8.162   5.023   5.725 -0.5530  1.5374 -0.1052
  104MOL   H19333359   0.017   5.032   5.578 -1.9070 -0.5986  0.3319
  104MOL   C19433360   0.141   4.955   5.741 -0.3548 -1.0540 -0.0722
  104MOL   C19533361   0.095   4.823   5.785 -0.4128 -0.8384  0.0625
  104MOL   C19633362   0.149   4.775   5.906 -0.0633 -0.2355  0.7012
  104MOL   C19733363   0.127   4.643   5.950 -0.3990 -0.2374  0.1044
  104MOL   C19833364   0.039   4.561   5.878 -0.9567  0.4287 -0.5927
  104MOL   F19933365   0.012   4.434   5.921 -0.2285  0.2360  0.7670
  104MOL   C20033366   8.227   4.603   5.756 -0.4261  0.6317 -0.3425
  104MOL   C20133367   0.023   4.734   5.708  0.4591 -0.5150  0.1374
  104MOL   C20233368   0.254   4.949   5.639  0.2866 -0.7508  0.0711
  104MOL   H20333369   0.192   5.011   5.819  0.2134  1.5454 -2.2155
  104MOL   H20433370   0.215   4.839   5.962 -0.3005  1.3364 -0.7409
  104MOL   H20533371   0.172   4.612   6.042  0.5954  1.7456  0.3003
  104MOL   H20633372   8.168   4.538   5.693 -0.9553  0.5627  0.2310
  104MOL   H20733373   8.224   4.765   5.610  0.6989  1.2739  0.6038
  104MOL   H20833374   0.213   4.894   5.555  3.2364 -1.0963 -1.2180
  104MOL   H20933375   0.287   5.046   5.602 -0.9645 -0.2726  0.2007
  104MOL   C21033376   0.389   4.861   5.673 -0.3517  0.1789  0.3029
  104MOL   C21133377   0.447   4.817   5.542 -0.0208 -0.8299 -0.1944
  104MOL   C21233378   0.443   4.682   5.510  0.0818  0.0353  0.3839
  104MOL   C21333379   0.508   4.636   5.392  0.2307 -0.8197  0.5344
  104MOL   C21433380   0.570   4.723   5.306 -0.5578 -0.4033  0.0513
  104MOL   F21533381   0.628   4.672   5.197 -0.4936 -0.3050  0.2933
  104MOL   C21633382   0.572   4.861   5.332  0.1021 -0.3351 -0.2013
  104MOL   C21733383   0.508   4.908   5.451 -0.8682 -0.7236 -0.2540
  104MOL   C21833384   0.492   4.919   5.780  0.1038  0.1074  0.2836
  104MOL   H21933385   0.350   4.773   5.723 -1.1935 -1.5767 -3.2829
  104MOL   H22033386   0.392   4.607   5.569  1.1151 -0.3638  0.7955
  104MOL   H22133387   0.512   4.531   5.365 -1.6694  0.3721 -4.9248
  104MOL   H22233388   0.627   4.929   5.268  2.6457 -0.8237  1.4251
  104MOL   H22333389   0.527   5.009   5.483  0.2094 -1.3899  1.2515
  104MOL   H22433390   0.574   4.970   5.731 -1.2142  1.4320 -0.6118
  104MOL   H22533391   0.441   4.985   5.851 -0.1583  0.9210 -0.6479
  104MOL   C22633392   0.560   4.808   5.863 -0.0782 -0.0149  0.0900
  104MOL   C22733393   0.637   4.701   5.784  1.3761  0.4051  0.3020
  104MOL   C22833394   0.612   4.561   5.799  0.5883 -0.7527  0.1166
  104MOL   C22933395   0.690   4.462   5.735 -0.4042 -0.1063 -0.4752
  104MOL   C23033396   0.795   4.505   5.649  0.2274  0.1393  0.2655
  104MOL   F23133397   0.865   4.401   5.581  0.1434  0.3389  0.2445
  104MOL   C23233398   0.828   4.638   5.632  0.3647  0.0044 -0.0340
  104MOL   C23333399   0.753   4.737   5.702 -0.2425  0.1148  0.5773
  104MOL   C23433400   0.664   4.874   5.958  0.4915 -0.2845  0.8877
  104MOL   H23533401   0.483   4.763   5.925  0.3154 -2.4236 -1.1202
  104MOL   H23633402   0.519   4.529   5.845  0.1387 -0.4244 -0.5531
  104MOL   H23733403   0.668   4.356   5.739  2.0699 -0.6612 -0.9487
  104MOL   H23833404   0.907   4.666   5.564  1.6947 -1.7042  0.7873
  104MOL   H23933405   0.785   4.839   5.684 -0.9689  0.7901  2.9107
  104MOL   H24033406   0.728   4.794   5.995 -0.5393 -1.2639  0.5544
  104MOL   H24133407   0.736   4.936   5.906  0.2863  0.7085  1.7467
  104MOL   C24233408   0.617   4.952   6.089 -0.2918 -0.0711  0.1914
  104MOL   C24333409   0.486   4.890   6.156 -0.3813 -0.0154 -0.1873
  104MOL   C24433410   0.377   4.976   6.172  0.0349  0.3123  0.3682
  104MOL   C24533411   0.249   4.923   6.214 -0.0928 -0.4142 -0.1051
  104MOL   C24633412   0.245   4.785   6.247 -0.1702  0.7293 -0.2120
  104MOL   F24733413   0.126   4.731   6.278 -0.5758 -0.1801 -0.3017
  104MOL   C24833414   0.357   4.712   6.249  0.5175 -0.2398 -1.1835
  104MOL   C24933415   0.480   4.763   6.203  0.0533  0.3692  0.0603
  104MOL   C25033416   0.729   4.960   6.196  0.1492 -0.6086  0.3904
  104MOL   H25133417   0.589   5.054   6.064 -0.9035  0.2386  2.0286
  104MOL   H25233418   0.385   5.079   6.143  0.5425 -0.5387 -2.7117
  104MOL   H25333419   0.161   4.984   6.221  0.8389  0.7890  1.6048
  104MOL   H25433420   0.349   4.607   6.271  0.1087 -0.0235 -0.2665
  104MOL   H25533421   0.566   4.698   6.197 -2.4600 -3.1115  0.0682
  104MOL   H25633422   0.689   4.994   6.292 -0.0957  1.9696 -0.6004
  104MOL   H25733423   0.748   4.855   6.222 -0.8226 -1.2040 -1.2603
  104MOL   C25833424   0.849   5.046   6.152 -0.0769 -0.4241  0.2500
  104MOL   C25933425   0.825   5.194   6.154 -1.1362  0.1877 -0.2117
  104MOL   C26033426   0.849   5.275   6.039  0.2460 -0.0569 -0.2565
  104MOL   C26133427   0.809   5.408   6.037  0.0498  0.3801 -0.1635
  104MOL   C26233428   0.752   5.465   6.149 -0.5215  0.1684  0.3156
  104MOL   F26333429   0.729   5.600   6.152  0.0150 -0.3980 -0.1748
  104MOL   C26433430   0.737   5.392   6.263 -0.1498  0.4408 -0.8853
  104MOL   C26533431   0.767   5.257   6.265  0.2502  0.2699  0.4141
  104MOL   C26633432   0.984   5.025   6.225  0.4412  1.0404 -0.0435
  104MOL   H26733433   0.874   5.020   6.049 -0.5444  1.8414 -0.4603
  104MOL   H26833434   0.909   5.233   5.960  0.9806  1.7793 -0.6880
  104MOL   H26933435   0.826   5.475   5.954 -0.6025  0.8721  0.0989
  104MOL   H27033436   0.695   5.429   6.355  0.5203  0.7098 -0.6828
  104MOL   H27133437   0.733   5.201   6.351  2.4317 -3.4787 -1.0469
  104MOL   H27233438   1.066   5.086   6.186 -0.0765  0.6481 -1.7680
  104MOL   H27333439   0.967   5.055   6.329  1.7965 -2.5688  1.2936
  104MOL   C27433440   1.050   4.889   6.225 -0.7490 -0.1570  0.5441
  104MOL   C27533441   1.084   4.849   6.082 -0.5705  0.7644 -0.5548
  104MOL   C27633442   1.003   4.754   6.024 -0.2380  0.1771 -0.2757
  104MOL   C27733443   1.029   4.706   5.893  0.1149  0.2525 -0.2491
  104MOL   C27833444   1.141   4.760   5.827  0.7461 -0.4116 -0.0519
  104MOL   F27933445   1.164   4.719   5.698  0.8934  0.0164 -0.0720
  104MOL   C28033446   1.221   4.862   5.872  0.7468 -0.5790 -0.2184
  104MOL   C28133447   1.184   4.912   6.002  0.1288  0.0961  0.3948
  104MOL   C28233448   1.171   4.866   6.321 -0.7438 -0.4980  0.8924
  104MOL   H28333449   0.973   4.820   6.257 -0.5642 -1.6509 -2.0887
  104MOL   H28433450   0.923   4.701   6.074  1.9622 -0.7057  2.4261
  104MOL   H28533451   0.970   4.626   5.850  0.6011 -0.0943 -0.2727
  104MOL   H28633452   1.304   4.894   5.811 -1.3003  1.7029 -1.9248
  104MOL   H28733453   1.244   4.987   6.051  0.4136 -0.3562  0.7405
  104MOL   H28833454   1.197   4.762   6.301  0.9857 -0.4283  2.6518
  104MOL   H28933455   1.259   4.921   6.287 -1.4770 -1.0224 -1.9120
  104MOL   C29033456   1.151   4.873   6.472  0.0392 -0.8375  0.0449
  104MOL   C29133457   1.006   4.837   6.509 -0.3368  0.1974  0.0352
  104MOL   C29233458   0.961   4.705   6.490  0.2441  0.1723  0.5530
  104MOL   C29333459   0.825   4.673   6.507  0.5975 -0.1376 -0.9935
  104MOL   C29433460   0.736   4.772   6.541 -0.2464  0.0602  0.1007
  104MOL   F29533461   0.606   4.735   6.554  0.1545 -0.7852  0.1209
  104MOL   C29633462   0.781   4.905   6.561 -0.0806 -0.0691 -0.6395
  104MOL   C29733463   0.915   4.940   6.547  0.2099 -0.1583 -0.2592
  104MOL   C29833464   1.251   4.787   6.549  0.3454  0.3109  0.4000
  104MOL   H29933465   1.151   4.973   6.515  0.6042  0.3346 -2.5771
  104MOL   H30033466   1.019   4.621   6.455 -1.1449  0.4629 -2.6840
  104MOL   H30133467   0.781   4.575   6.491 -2.4158  0.5703  2.4438
  104MOL   H30233468   0.710   4.976   6.600 -1.2049 -1.9921  0.8975
  104MOL   H30333469   0.953   5.040   6.561 -0.0896 -0.2993  1.7658
  104MOL   H30433470   1.209   4.785   6.649  0.1834 -0.3040  0.3250
  104MOL   H30533471   1.246   4.679   6.536 -0.8812  0.6282 -2.0763
  104MOL   C30633472   1.404   4.824   6.558  0.6057  0.1377 -0.3436
  104MOL   C30733473   1.482   4.757   6.443  0.4487 -0.8414 -0.1349
  104MOL   C30833474   1.531   4.836   6.335  0.1804 -0.7052 -0.0199
  104MOL   C30933475   1.602   4.780   6.228 -0.4811  0.0949  0.1233
  104MOL   C31033476   1.632   4.641   6.227 -0.7556 -0.3728  0.2856
  104MOL   F31133477   1.710   4.585   6.135 -0.6913  0.4282  0.7327
  104MOL   C31233478   1.602   4.569   6.340  0.6786 -0.4917 -0.1739
  104MOL   C31333479   1.518   4.622   6.443  0.2694  0.2355 -0.0273
  104MOL   C31433480   1.441   4.974   6.589 -0.7949 -0.9426  0.3644
  104MOL   H31533481   1.437   4.765   6.643 -0.6499 -2.7258 -1.7963
  104MOL   H31633482   1.525   4.944   6.336  2.2929 -0.5649 -1.3234
  104MOL   H31733483   1.630   4.824   6.133  1.9103 -2.6849 -0.5192
  104MOL   H31833484   1.632   4.465   6.346 -1.0449 -0.9157  1.6307
  104MOL   H31933485   1.495   4.567   6.533  0.6947 -0.8717 -0.5879
  104MOL   H32033486   1.421   5.046   6.510 -2.9320 -0.2659  1.4842
  104MOL   H32133487   1.402   5.002   6.687  0.3405  4.4223 -0.5380
  104MOL   H32233488   1.548   4.994   6.601 -1.2675  2.4045 -0.5396
  105MOL     C133489   2.077   0.123   1.942 -0.0019  0.9317 -0.3141
  105MOL     C233490   2.066   0.245   1.856 -0.3599 -0.2105 -0.2262
  105MOL     C333491   1.963   0.262   1.758  0.8953 -0.2680  0.3277
  105MOL     C433492   1.958   0.379   1.672  0.0755  0.6705 -0.1478
  105MOL     C533493   2.042   0.483   1.693 -0.4939  0.5290  0.6989
  105MOL     F633494   2.044   0.588   1.604  0.1351 -0.3283 -0.3172
  105MOL     C733495   2.155   0.465   1.780 -0.3057  1.4536 -0.4609
  105MOL     C833496   2.162   0.352   1.863 -0.0843  0.0983 -0.5134
  105MOL     C933497   2.007   0.117   2.079 -0.6183 -0.0360 -0.6738
  105MOL    H1033498   2.183   0.103   1.958  0.2240  0.5524 -2.1222
  105MOL    H1133499   1.888   0.186   1.737 -0.9663  1.4732  0.5245
  105MOL    H1233500   1.885   0.372   1.592  1.6591 -0.7159 -1.4963
  105MOL    H1333501   2.237   0.534   1.791 -1.1527  2.4659 -0.3342
  105MOL    H1433502   2.246   0.351   1.930 -0.1750  0.4113 -0.3951
  105MOL    H1533503   1.899   0.119   2.065 -0.9099  1.8902  1.6072
  105MOL    H1633504   2.025   0.012   2.101  0.2256 -0.1085 -1.6391
  105MOL    H1733505   2.043   0.037   1.885 -2.4617  0.3469  1.9538
  105MOL    C1833506   2.053   0.211   2.190  0.3085 -0.3133  0.1736
  105MOL    C1933507   1.980   0.162   2.320 -0.0709  0.2956 -0.1274
  105MOL    C2033508   2.000   0.033   2.368 -0.2764  0.1016  0.4932
  105MOL    C2133509   1.920   8.219   2.474  0.2719 -0.3445  0.0040
  105MOL    C2233510   1.836   0.076   2.543 -0.8801 -0.2201  0.0908
  105MOL    F2333511   1.767   0.030   2.656  0.3947 -0.2071  0.0045
  105MOL    C2433512   1.828   0.210   2.504 -0.3312  0.1919 -0.0461
  105MOL    C2533513   1.887   0.251   2.385 -0.6508 -0.1920  0.1646
  105MOL    C2633514   2.208   0.210   2.225  0.3467  0.3011 -0.0105
  105MOL    H2733515   2.026   0.309   2.150  1.5002  0.4753  1.2755
  105MOL    H2833516   2.067   8.207   2.308  0.3847  2.8119 -1.5720
  105MOL    H2933517   1.930   8.121   2.519  2.9979 -0.0723  0.0568
  105MOL    H3033518   1.771   0.285   2.557  2.5620  1.2404  1.6802
  105MOL    H3133519   1.877   0.351   2.347 -1.1861 -0.5318 -0.5967
  105MOL    H3233520   2.239   0.111   2.258  0.4251  0.7124  1.1794
  105MOL    H3333521   2.259   0.240   2.133  0.6449  1.5981  0.5667
  105MOL    C3433522   2.233   0.321   2.335 -1.5112 -0.9393  0.1426
  105MOL    C3533523   2.352   0.283   2.421  0.0865 -0.6503  0.7945
  105MOL    C3633524   2.330   0.261   2.555 -0.1074 -0.1940  0.3965
  105MOL    C3733525   2.430   0.237   2.645 -0.4990  0.3554  1.0627
  105MOL    C3833526   2.561   0.218   2.590  0.4660 -0.1185  1.0319
  105MOL    F3933527   2.658   0.198   2.686 -0.4898  0.4216  0.6674
  105MOL    C4033528   2.588   0.231   2.454 -0.1650  0.4022 -0.4456
  105MOL    C4133529   2.481   0.269   2.366 -0.1381 -0.4124  0.7444
  105MOL    C4233530   2.249   0.470   2.275 -0.2765 -0.1992  0.4126
  105MOL    H4333531   2.137   0.332   2.385 -1.6612 -1.0533 -0.1225
  105MOL    H4433532   2.231   0.266   2.598 -0.6969 -2.7893 -0.5514
  105MOL    H4533533   2.411   0.223   2.750  1.2313 -0.8250  1.2487
  105MOL    H4633534   2.686   0.214   2.411  0.9115  2.9927  0.8541
  105MOL    H4733535   2.494   0.281   2.259 -1.3551 -0.2223  0.6148
  105MOL    H4833536   2.350   0.474   2.233 -0.9440  0.2715 -1.1925
  105MOL    H4933537   2.178   0.483   2.194 -2.0795  1.2380  2.1979
  105MOL    C5033538   2.230   0.583   2.375 -0.2325  0.9078 -0.8425
  105MOL    C5133539   2.321   0.707   2.344 -0.3739  0.9472  0.2501
  105MOL    C5233540   2.438   0.725   2.422  0.0811  0.2119 -0.1115
  105MOL    C5333541   2.516   0.837   2.400  0.0360 -0.7522  0.0172
  105MOL    C5433542   2.481   0.924   2.293 -0.1449 -0.2879  0.0587
  105MOL    F5533543   2.561   1.024   2.255  0.0688 -0.4505 -0.2816
  105MOL    C5633544   2.365   0.902   2.218 -0.1475 -0.1569 -0.1707
  105MOL    C5733545   2.289   0.786   2.239  0.1038 -0.6277  0.1716
  105MOL    C5833546   2.076   0.621   2.395 -0.2973 -0.2933  0.4380
  105MOL    H5933547   2.272   0.546   2.468  0.3571  3.2521 -0.1243
  105MOL    H6033548   2.459   0.653   2.499  0.6846  0.4385 -0.0624
  105MOL    H6133549   2.596   0.867   2.466 -0.1769 -0.1908  0.0272
  105MOL    H6233550   2.333   0.977   2.147  1.7155  0.8144 -0.0106
  105MOL    H6333551   2.194   0.773   2.188 -1.0922 -0.5483  2.3296
  105MOL    H6433552   2.037   0.684   2.315  2.3207 -0.7357 -1.2568
  105MOL    H6533553   2.012   0.534   2.387  0.0131 -0.4982  0.1432
  105MOL    C6633554   2.044   0.682   2.537  0.1324 -0.7243 -0.7110
  105MOL    C6733555   1.905   0.746   2.526 -0.1179  0.0201  0.3663
  105MOL    C6833556   1.794   0.669   2.481 -0.0702 -0.0066 -0.0428
  105MOL    C6933557   1.670   0.731   2.475 -0.0995 -0.5183 -0.7964
  105MOL    C7033558   1.652   0.866   2.518 -0.3066  1.1035  0.1541
  105MOL    F7133559   1.524   0.909   2.519 -0.1528  0.0960  0.3586
  105MOL    C7233560   1.762   0.944   2.566  0.5271  0.6415 -0.0875
  105MOL    C7333561   1.888   0.880   2.566  0.4211  0.9044  0.1086
  105MOL    C7433562   2.047   0.573   2.636  0.2901  0.3587  0.4245
  105MOL    H7533563   2.113   0.764   2.557 -1.7849  0.0940  2.9013
  105MOL    H7633564   1.804   0.573   2.432  0.7538 -0.6031  1.2837
  105MOL    H7733565   1.587   0.672   2.438 -1.4555  0.9660 -0.2043
  105MOL    H7833566   1.758   1.050   2.587  2.6952  1.1234 -1.9236
  105MOL    H7933567   1.973   0.932   2.608  1.0258 -0.8118  1.0849
  105MOL    H8033568   1.943   0.559   2.666  0.1983 -1.2376 -0.6406
  105MOL    H8133569   2.077   0.479   2.590 -1.8768 -0.3418  0.3780
  105MOL    C8233570   2.129   0.611   2.760 -0.3812 -0.0816  0.4341
  105MOL    C8333571   2.074   0.542   2.880  0.2749 -0.2699 -0.1515
  105MOL    C8433572   2.012   0.618   2.986 -0.2282  0.4059 -0.2859
  105MOL    C8533573   1.960   0.550   3.101 -0.1020 -0.0580  0.0163
  105MOL    C8633574   1.950   0.412   3.103  0.3896 -0.2465 -0.2956
  105MOL    F8733575   1.892   0.339   3.206 -0.0298  0.2484 -0.0964
  105MOL    C8833576   2.012   0.338   2.999  0.2586  0.4730 -0.0415
  105MOL    C8933577   2.081   0.399   2.892 -0.8400  0.2886  0.0598
  105MOL    C9033578   2.278   0.604   2.750 -0.3195 -0.1585  0.2511
  105MOL    H9133579   2.113   0.718   2.771 -2.1968 -0.1663 -0.9982
  105MOL    H9233580   1.991   0.724   2.981  0.8165  0.6639  0.4526
  105MOL    H9333581   1.923   0.610   3.183  0.8190 -0.5325  0.7915
  105MOL    H9433582   2.029   0.232   3.013  0.2623  0.2690 -1.5066
  105MOL    H9533583   2.138   0.343   2.820  1.8117 -0.3524  2.5636
  105MOL    H9633584   2.293   0.498   2.727  0.0751  0.1750 -1.0494
  105MOL    H9733585   2.319   0.660   2.667 -0.0035 -0.2101  0.3715
  105MOL    C9833586   2.360   0.651   2.872  0.3248 -0.0090 -0.1226
  105MOL    C9933587   2.476   0.562   2.891 -0.2853  0.3381  0.2181
  105MOL   C10033588   2.599   0.590   2.830  0.0050 -0.3803  1.0412
  105MOL   C10133589   2.715   0.511   2.851 -0.8704 -0.1295 -0.3323
  105MOL   C10233590   2.705   0.403   2.936  0.8758  0.3966 -0.0761
  105MOL   F10333591   2.803   0.320   2.963 -0.0634 -0.1129  0.0256
  105MOL   C10433592   2.578   0.371   2.993  0.5048  0.5088  0.8269
  105MOL   C10533593   2.467   0.452   2.977  0.2771  0.3004 -0.3538
  105MOL   C10633594   2.409   0.801   2.870 -0.7278  0.0515  1.5360
  105MOL   H10733595   2.304   0.639   2.965 -0.8790 -1.1290 -0.9634
  105MOL   H10833596   2.621   0.673   2.764  0.9613 -2.0231 -0.7544
  105MOL   H10933597   2.806   0.547   2.805 -0.8205  0.7362  0.4293
  105MOL   H11033598   2.573   0.281   3.053 -1.5389  0.6051  0.8362
  105MOL   H11133599   2.375   0.429   3.028  0.3710 -0.9552 -0.7317
  105MOL   H11233600   2.464   0.829   2.960 -1.3998  0.0089  1.9624
  105MOL   H11333601   2.481   0.821   2.790 -1.6744  0.1110  0.6868
  105MOL   C11433602   2.314   0.916   2.851 -0.1947  0.2998 -0.0289
  105MOL   C11533603   2.203   0.936   2.956  0.0958 -0.0971 -0.0991
  105MOL   C11633604   2.075   0.974   2.906 -0.1984  0.7241 -0.1118
  105MOL   C11733605   1.963   0.968   2.993  0.6817  0.6905 -0.2876
  105MOL   C11833606   1.989   0.941   3.128  0.1830 -0.2079 -0.0326
  105MOL   F11933607   1.883   0.940   3.221  0.1708 -0.0832 -0.0530
  105MOL   C12033608   2.118   0.916   3.179  0.5629  0.4444  0.0818
  105MOL   C12133609   2.228   0.917   3.095  0.3742  1.3121  0.4255
  105MOL   C12233610   2.398   1.043   2.846  0.5111 -0.4702 -0.0567
  105MOL   H12333611   2.277   0.895   2.750 -1.3006  1.3671  0.1552
  105MOL   H12433612   2.069   1.006   2.803  2.5761  0.6047 -0.3383
  105MOL   H12533613   1.863   1.000   2.968  0.3009 -0.8054 -0.7296
  105MOL   H12633614   2.129   0.899   3.285 -2.5204 -1.3866  0.1906
  105MOL   H12733615   2.329   0.901   3.129  0.7003  1.2721 -0.5222
  105MOL   H12833616   2.339   1.126   2.887 -0.4572 -0.9752 -0.4085
  105MOL   H12933617   2.482   1.035   2.915 -0.2827  0.4029  1.0415
  105MOL   C13033618   2.445   1.094   2.709 -0.1589 -0.6365 -0.2536
  105MOL   C13133619   2.320   1.140   2.633  0.0701  0.1595  0.6087
  105MOL   C13233620   2.268   1.060   2.533 -0.0493  0.3118 -0.1160
  105MOL   C13333621   2.143   1.088   2.480 -0.3580  0.2899 -0.7121
  105MOL   C13433622   2.062   1.197   2.528 -0.0619  0.1273  0.4171
  105MOL   F13533623   1.934   1.217   2.493  0.2924  0.2990 -0.3132
  105MOL   C13633624   2.119   1.277   2.628  0.5679  0.0508 -0.1839
  105MOL   C13733625   2.241   1.249   2.676 -0.5522  0.1188  0.1729
  105MOL   C13833626   2.564   1.190   2.729  0.2421  0.2221 -0.0501
  105MOL   H13933627   2.490   1.013   2.653 -1.3237  0.3164 -2.6305
  105MOL   H14033628   2.309   0.962   2.509 -1.1957 -0.1369 -0.2552
  105MOL   H14133629   2.108   1.010   2.414  0.9804 -0.7212 -0.2440
  105MOL   H14233630   2.059   1.348   2.683 -0.1686 -2.0683  1.8561
  105MOL   H14333631   2.281   1.307   2.758  0.8707 -0.3628 -0.1587
  105MOL   H14433632   2.584   1.238   2.633  0.6522 -1.2378 -0.7000
  105MOL   H14533633   2.533   1.270   2.797 -0.5560 -1.0889  1.1611
  105MOL   C14633634   2.696   1.113   2.771  0.2192 -0.2006 -0.4075
  105MOL   C14733635   2.759   1.033   2.654 -0.1853  0.3329 -0.2608
  105MOL   C14833636   2.785   1.096   2.531 -0.1931 -0.5536 -0.4004
  105MOL   C14933637   2.841   1.027   2.422  0.3957 -0.4100 -0.2883
  105MOL   C15033638   2.871   0.894   2.442 -0.1903  0.7929 -0.9738
  105MOL   F15133639   2.943   0.829   2.347 -0.2933 -0.4490 -0.1340
  105MOL   C15233640   2.850   0.830   2.569  0.3571  0.1109 -0.2459
  105MOL   C15333641   2.787   0.900   2.671 -0.3633  0.5839 -0.1302
  105MOL   C15433642   2.783   1.228   2.823 -1.2263 -0.2382 -0.1677
  105MOL   H15533643   2.670   1.046   2.853  0.7638  1.3611  1.0870
  105MOL   H15633644   2.756   1.200   2.520 -2.4600 -1.3679 -2.6527
  105MOL   H15733645   2.859   1.078   2.329  1.7198 -2.5515 -1.2299
  105MOL   H15833646   2.872   0.727   2.594  1.8712  0.6864  0.8585
  105MOL   H15933647   2.763   0.852   2.764  0.2555  1.7618  0.6481
  105MOL   H16033648   2.824   1.281   2.737 -2.1300 -0.1069 -0.5253
  105MOL   H16133649   2.735   1.315   2.868  0.2741 -1.0605  3.2403
  105MOL   C16233650   2.907   1.190   2.907 -0.5544  0.6992  0.5057
  105MOL   C16333651   3.034   1.253   2.842 -0.3484  0.2320 -0.0996
  105MOL   C16433652   3.097   1.376   2.881 -0.0557 -0.1692 -0.5149
  105MOL   C16533653   3.216   1.427   2.820  0.0736  0.3435  0.5906
  105MOL   C16633654   3.264   1.358   2.709  0.6851  0.2696  0.7283
  105MOL   F16733655   3.371   1.402   2.648  0.0729  0.3366 -0.1379
  105MOL   C16833656   3.196   1.250   2.657 -0.3826  0.2688 -0.0399
  105MOL   C16933657   3.088   1.193   2.724 -0.5320  0.2517 -0.4141
  105MOL   C17033658   2.883   1.218   3.053  0.2596 -0.5272 -0.1074
  105MOL   H17133659   2.913   1.081   2.900 -0.9781  0.6470  0.9384
  105MOL   H17233660   3.062   1.438   2.963  0.6369 -1.0394  0.4424
  105MOL   H17333661   3.263   1.518   2.854 -1.6623  1.0536  1.1888
  105MOL   H17433662   3.205   1.211   2.557 -2.3996  0.1089 -0.1618
  105MOL   H17533663   3.044   1.104   2.680 -0.0694  0.3216 -1.0316
  105MOL   H17633664   2.980   1.203   3.099 -0.4938  0.3571  1.8710
  105MOL   H17733665   2.852   1.322   3.064  0.0273 -0.7655  1.7604
  105MOL   C17833666   2.769   1.138   3.122 -0.1730 -0.4770  0.8724
  105MOL   C17933667   2.802   0.985   3.123 -0.2505 -0.2081 -0.0816
  105MOL   C18033668   2.698   0.893   3.102  0.4411  0.5770 -0.0152
  105MOL   C18133669   2.733   0.755   3.109  0.0029 -0.1591  0.4533
  105MOL   C18233670   2.860   0.710   3.151  0.7425  0.4906 -0.0519
  105MOL   F18333671   2.883   0.577   3.165 -0.2522  0.5776  0.4951
  105MOL   C18433672   2.962   0.807   3.173  0.0916  0.7103  0.2434
  105MOL   C18533673   2.935   0.940   3.143  0.0811  1.3342 -1.3532
  105MOL   C18633674   2.742   1.196   3.263 -0.1350  0.1424  0.2687
  105MOL   H18733675   2.682   1.156   3.060  0.8361 -0.9355 -0.6985
  105MOL   H18833676   2.599   0.931   3.083 -1.6045 -3.3655  1.9814
  105MOL   H18933677   2.658   0.688   3.070  0.9571 -0.4010 -1.0112
  105MOL   H19033678   3.066   0.782   3.192  0.1723  1.3400  0.6226
  105MOL   H19133679   3.021   1.005   3.147  1.2585 -0.2875  0.2295
  105MOL   H19233680   2.674   1.130   3.317  1.9778 -2.1073  0.2733
  105MOL   H19333681   2.828   1.207   3.328  0.1490 -0.6132  0.0320
  105MOL   C19433682   2.668   1.330   3.276  0.7292  0.0167 -0.2168
  105MOL   C19533683   2.538   1.341   3.193  0.0112 -0.0203 -0.3317
  105MOL   C19633684   2.527   1.433   3.087 -0.2703  0.2681  0.6587
  105MOL   C19733685   2.403   1.445   3.023  0.4863 -0.3127  0.2020
  105MOL   C19833686   2.292   1.371   3.060  0.4317  0.6788 -0.3397
  105MOL   F19933687   2.179   1.389   2.996  0.3103 -0.6546 -0.4812
  105MOL   C20033688   2.302   1.276   3.160  0.7822 -0.5542 -0.4191
  105MOL   C20133689   2.425   1.261   3.225  1.5299  0.7958  0.7480
  105MOL   C20233690   2.641   1.378   3.423  0.0495  0.7110 -0.2237
  105MOL   H20333691   2.737   1.400   3.230  0.5313  1.8886  2.2652
  105MOL   H20433692   2.608   1.501   3.065 -1.1694  0.7858 -1.1382
  105MOL   H20533693   2.402   1.519   2.945  3.0387 -3.9082 -3.4518
  105MOL   H20633694   2.216   1.223   3.197  1.6834 -2.6727 -1.2761
  105MOL   H20733695   2.438   1.188   3.303  2.2776 -2.4086 -2.2489
  105MOL   H20833696   2.555   1.443   3.438 -1.3028 -1.5577  2.3002
  105MOL   H20933697   2.619   1.288   3.480  1.2492  0.0537 -0.7659
  105MOL   C21033698   2.768   1.446   3.485  0.2881  0.3416 -0.8142
  105MOL   C21133699   2.811   1.573   3.420  0.8720 -0.2985  0.5487
  105MOL   C21233700   2.949   1.589   3.389  0.1902  0.1125  0.4889
  105MOL   C21333701   2.987   1.707   3.324 -0.5633 -0.1779 -0.0726
  105MOL   C21433702   2.892   1.807   3.290  0.2905  0.0044 -0.3797
  105MOL   F21533703   2.936   1.916   3.229 -0.0037  0.4406 -0.3694
  105MOL   C21633704   2.759   1.792   3.319  0.5414  0.6434 -0.5413
  105MOL   C21733705   2.718   1.679   3.388 -0.0465  0.5939  0.1624
  105MOL   C21833706   2.762   1.446   3.642 -0.3303  0.5266  0.4295
  105MOL   H21933707   2.853   1.380   3.468  1.0139  1.5668 -2.0579
  105MOL   H22033708   3.024   1.521   3.427 -0.4098  0.1192  1.7387
  105MOL   H22133709   3.088   1.731   3.297 -1.2453  0.7029 -1.9442
  105MOL   H22233710   2.682   1.855   3.276  0.6933  0.4881 -1.0388
  105MOL   H22333711   2.612   1.659   3.403 -0.2616  0.6034 -1.2891
  105MOL   H22433712   2.732   1.347   3.678 -0.1669  0.6166  0.8162
  105MOL   H22533713   2.864   1.452   3.680 -0.3418 -0.8535  0.7316
  105MOL   C22633714   2.688   1.564   3.717  0.6774  0.3135  0.0409
  105MOL   C22733715   2.543   1.553   3.682 -0.1403 -0.2478 -0.6755
  105MOL   C22833716   2.462   1.444   3.726  0.2339  0.0235  0.0893
  105MOL   C22933717   2.324   1.438   3.713  1.1518  0.2143  0.7495
  105MOL   C23033718   2.255   1.547   3.656 -0.6548  0.0098  0.4840
  105MOL   F23133719   2.121   1.547   3.646  0.1268  0.2862 -0.5824
  105MOL   C23233720   2.335   1.655   3.608  0.2654  0.2675 -0.0288
  105MOL   C23333721   2.475   1.665   3.627 -0.0404 -0.2380  0.2262
  105MOL   C23433722   2.706   1.562   3.873  0.1229  0.8360 -0.4544
  105MOL   H23533723   2.730   1.659   3.682  4.2211 -1.3724 -0.4670
  105MOL   H23633724   2.514   1.357   3.762  1.9401  1.4162  1.1063
  105MOL   H23733725   2.282   1.339   3.728  0.7476  0.0877 -1.0896
  105MOL   H23833726   2.297   1.747   3.566 -2.2382 -0.3743  0.7177
  105MOL   H23933727   2.531   1.752   3.597  0.3112 -0.9262 -1.1848
  105MOL   H24033728   2.665   1.654   3.915 -1.2025 -0.4693  1.1571
  105MOL   H24133729   2.656   1.475   3.915 -0.6167  2.7543  2.7925
  105MOL   C24233730   2.856   1.569   3.931 -0.2976 -0.1295  0.9366
  105MOL   C24333731   2.933   1.670   3.843  0.1718 -0.1212  0.0534
  105MOL   C24433732   2.892   1.806   3.828 -0.0462 -0.6685  0.3924
  105MOL   C24533733   2.957   1.884   3.735 -0.3779  0.2704 -0.3705
  105MOL   C24633734   3.062   1.838   3.656 -0.1182  0.0010 -0.0695
  105MOL   F24733735   3.115   1.909   3.565 -0.3627  0.2109  0.0101
  105MOL   C24833736   3.103   1.705   3.672  0.0271 -0.1747 -0.4418
  105MOL   C24933737   3.046   1.625   3.772  0.1348 -0.2027 -0.4798
  105MOL   C25033738   2.861   1.599   4.080 -0.3200 -0.6449 -0.0650
  105MOL   H25133739   2.896   1.467   3.926 -0.0394  0.0649 -1.8770
  105MOL   H25233740   2.810   1.850   3.883 -0.4021  0.0331 -0.6854
  105MOL   H25333741   2.922   1.983   3.711  0.6577  0.6865 -0.2162
  105MOL   H25433742   3.179   1.659   3.611 -0.0943 -1.4191  0.3451
  105MOL   H25533743   3.079   1.524   3.794  0.9118 -0.4442 -2.6230
  105MOL   H25633744   2.963   1.570   4.106 -0.1084  0.0737 -0.0862
  105MOL   H25733745   2.855   1.706   4.102 -1.8890  0.3206 -4.7132
  105MOL   C25833746   2.766   1.524   4.172  0.4795  0.1921 -0.3477
  105MOL   C25933747   2.771   1.374   4.142 -0.3217 -0.4245  0.2590
  105MOL   C26033748   2.652   1.299   4.126  0.7990  0.9989  0.1116
  105MOL   C26133749   2.651   1.157   4.126  0.4515 -0.1951 -0.0630
  105MOL   C26233750   2.774   1.087   4.128  0.7398  0.2252  1.0847
  105MOL   F26333751   2.762   0.954   4.130 -0.6598  0.2696 -0.4070
  105MOL   C26433752   2.894   1.160   4.128 -0.1259  0.1664 -0.0651
  105MOL   C26533753   2.893   1.296   4.144  0.4317 -0.4727 -0.4324
  105MOL   C26633754   2.802   1.562   4.314  0.0630 -0.0290 -0.3641
  105MOL   H26733755   2.663   1.559   4.159 -0.5500 -2.2170  1.0166
  105MOL   H26833756   2.557   1.349   4.127  0.4048  0.2537  1.7994
  105MOL   H26933757   2.560   1.100   4.126 -1.2826  2.4481 -0.5926
  105MOL   H27033758   2.979   1.095   4.139 -0.0351  0.2607 -0.2167
  105MOL   H27133759   2.985   1.352   4.157  0.0936 -0.3772  1.8792
  105MOL   H27233760   2.895   1.508   4.333 -0.9003 -2.0248 -1.2675
  105MOL   H27333761   2.821   1.670   4.320 -1.7568  0.2258  1.3823
  105MOL   C27433762   2.696   1.528   4.420  1.3517 -0.7394  0.5791
  105MOL   C27533763   2.760   1.520   4.557 -0.2116 -0.3704 -0.0462
  105MOL   C27633764   2.708   1.437   4.664  0.0549  0.2449  0.7777
  105MOL   C27733765   2.763   1.433   4.793 -0.1041  0.9827 -0.1820
  105MOL   C27833766   2.871   1.515   4.821 -0.6988  0.8467  0.3762
  105MOL   F27933767   2.936   1.507   4.938 -0.1660  0.4183 -0.2274
  105MOL   C28033768   2.922   1.601   4.720  0.3122 -0.3670  0.3924
  105MOL   C28133769   2.870   1.603   4.590 -0.4974 -0.0431  0.3132
  105MOL   C28233770   2.574   1.629   4.408  0.4074 -0.5327  0.2011
  105MOL   H28333771   2.668   1.427   4.390 -0.0183 -0.7246  1.7480
  105MOL   H28433772   2.628   1.366   4.648  1.3729 -1.0898  0.0080
  105MOL   H28533773   2.725   1.365   4.869 -0.3020 -0.7517 -1.7961
  105MOL   H28633774   3.005   1.664   4.750 -0.4919  1.2195 -0.6902
  105MOL   H28733775   2.917   1.672   4.521  0.6689 -1.1715 -0.0560
  105MOL   H28833776   2.588   1.720   4.467 -1.2530 -0.8212  1.0777
  105MOL   H28933777   2.560   1.665   4.306  1.8655 -0.3036  0.0672
  105MOL   C29033778   2.436   1.564   4.430 -0.9837 -0.0382  0.2896
  105MOL   C29133779   2.330   1.676   4.426 -0.7236 -0.0994  0.5582
  105MOL   C29233780   2.271   1.732   4.541  1.0844  0.1037  0.0993
  105MOL   C29333781   2.190   1.846   4.523  0.0354 -0.2562 -0.3642
  105MOL   C29433782   2.172   1.895   4.394 -0.2190 -0.7547  0.4595
  105MOL   F29533783   2.111   2.017   4.376 -0.3180  0.1863 -0.1593
  105MOL   C29633784   2.220   1.838   4.278  0.0131  0.7471  0.1039
  105MOL   C29733785   2.309   1.730   4.298 -0.1476  0.0625 -0.6420
  105MOL   C29833786   2.403   1.437   4.357  0.2995 -0.0275  0.5102
  105MOL   H29933787   2.437   1.527   4.533 -1.6093 -2.4460 -0.5556
  105MOL   H30033788   2.284   1.692   4.641 -1.0128 -2.6676 -0.6856
  105MOL   H30133789   2.147   1.898   4.607  0.8801 -0.8201  0.4283
  105MOL   H30233790   2.192   1.875   4.180  0.7893  1.0294 -0.0168
  105MOL   H30333791   2.347   1.671   4.216 -0.5713 -0.5210 -0.4267
  105MOL   H30433792   2.404   1.459   4.250  2.0304 -1.2728  0.2472
  105MOL   H30533793   2.487   1.371   4.377  1.0959  0.8369  0.0561
  105MOL   C30633794   2.267   1.372   4.380  0.4446 -1.0808  0.5465
  105MOL   C30733795   2.264   1.252   4.287  0.0854  0.2390  0.2594
  105MOL   C30833796   2.346   1.140   4.320  0.0502  0.0048 -0.3212
  105MOL   C30933797   2.339   1.032   4.233 -0.1517 -0.0521  0.5419
  105MOL   C31033798   2.251   1.023   4.123  0.6035 -0.3910  0.3573
  105MOL   F31133799   2.255   0.911   4.055  0.0351  0.3716 -0.1411
  105MOL   C31233800   2.159   1.125   4.096  0.1971  0.3610  0.6921
  105MOL   C31333801   2.174   1.243   4.180  0.4402 -0.2279 -0.2795
  105MOL   C31433802   2.240   1.324   4.523 -0.1000 -0.7309 -0.2770
  105MOL   H31533803   2.199   1.448   4.341  0.6666 -0.7445  0.8219
  105MOL   H31633804   2.413   1.142   4.404  1.6863 -0.7414 -1.5736
  105MOL   H31733805   2.412   0.955   4.256  0.5491  0.2678 -0.5851
  105MOL   H31833806   2.086   1.110   4.018  0.8723  2.1356 -0.3005
  105MOL   H31933807   2.104   1.323   4.160 -1.4764 -1.9695 -0.7491
  105MOL   H32033808   2.140   1.280   4.522 -2.3730  4.2078 -1.4979
  105MOL   H32133809   2.308   1.245   4.554  1.3059  0.8039  0.6248
  105MOL   H32233810   2.245   1.404   4.596 -0.8184  0.5892 -1.6486
  106MOL     C133811   7.929   6.363   1.797  0.3097  0.6407  0.4273
  106MOL     C233812   8.015   6.261   1.873 -0.3887 -0.6796 -0.3289
  106MOL     C333813   8.058   6.300   2.003  0.3063  0.0889 -0.9132
  106MOL     C433814   8.121   6.207   2.092  0.6071  0.2453  0.8041
  106MOL     C533815   8.143   6.077   2.044  0.0814 -0.3232  0.4134
  106MOL     F633816   8.186   5.987   2.135 -0.1904 -0.4160  0.4098
  106MOL     C733817   8.119   6.043   1.907 -0.3819  0.3173  0.3872
  106MOL     C833818   8.048   6.134   1.825 -0.1191  0.2612  0.2092
  106MOL     C933819   7.779   6.315   1.784  0.5894  0.4128 -0.1816
  106MOL    H1033820   7.982   6.381   1.703  2.1949  1.7406  1.6659
  106MOL    H1133821   8.020   6.398   2.029  2.0236  0.4818  0.2514
  106MOL    H1233822   8.144   6.229   2.195  0.8247  3.3797  0.1484
  106MOL    H1333823   8.133   5.948   1.857  1.3382  0.8594 -0.1971
  106MOL    H1433824   8.009   6.114   1.726 -0.6164 -0.7652  0.6166
  106MOL    H1533825   7.779   6.239   1.706  1.1571 -0.3568  0.5578
  106MOL    H1633826   7.744   6.271   1.877  0.8256  0.1597 -0.2103
  106MOL    H1733827   7.942   6.463   1.838 -0.6420  0.4393  1.2358
  106MOL    C1833828   7.690   6.434   1.739 -0.2856 -0.4871 -0.2661
  106MOL    C1933829   7.579   6.383   1.652 -0.6892 -0.4387 -0.4080
  106MOL    C2033830   7.488   6.286   1.706 -0.8226  0.2114  0.0313
  106MOL    C2133831   7.376   6.240   1.638 -0.1282  0.2551 -0.2101
  106MOL    C2233832   7.354   6.292   1.509 -0.2178  0.6825 -0.0113
  106MOL    F2333833   7.242   6.267   1.434  0.2208  0.3382  0.1728
  106MOL    C2433834   7.447   6.371   1.453 -0.2027 -0.3505 -0.3722
  106MOL    C2533835   7.562   6.414   1.518 -0.2163  0.1002 -0.1842
  106MOL    C2633836   7.636   6.508   1.862  0.3893  0.2444  0.6856
  106MOL    H2733837   7.743   6.489   1.662 -1.8771  0.7838 -0.4751
  106MOL    H2833838   7.507   6.251   1.806  0.1424  0.3074 -0.1146
  106MOL    H2933839   7.303   6.171   1.678 -1.6302  0.9087 -1.7397
  106MOL    H3033840   7.437   6.402   1.350  0.2128  0.6809 -0.1190
  106MOL    H3133841   7.626   6.485   1.466 -1.9534  1.0553 -1.0591
  106MOL    H3233842   7.559   6.449   1.913 -0.0885  0.7745  0.5835
  106MOL    H3333843   7.720   6.506   1.931  1.1730  1.2403 -0.2384
  106MOL    C3433844   7.591   6.656   1.847  0.2800 -0.0191  0.1357
  106MOL    C3533845   7.483   6.673   1.744  0.4264 -0.8602 -0.2658
  106MOL    C3633846   7.370   6.590   1.740  0.5272  0.1303  0.0605
  106MOL    C3733847   7.271   6.616   1.638  0.3934  0.0914 -0.1626
  106MOL    C3833848   7.287   6.721   1.549 -0.4205 -0.2991  0.6460
  106MOL    F3933849   7.197   6.751   1.449  0.8974 -0.4256 -0.1516
  106MOL    C4033850   7.396   6.815   1.561  0.3830 -0.5782 -0.6625
  106MOL    C4133851   7.498   6.782   1.655 -0.4033 -0.0469  0.1205
  106MOL    C4233852   7.566   6.720   1.988 -0.0076  0.2094 -0.1196
  106MOL    H4333853   7.671   6.715   1.802  1.3438 -0.4866  1.4143
  106MOL    H4433854   7.364   6.511   1.814 -0.6344  0.3906  0.2559
  106MOL    H4533855   7.185   6.552   1.629 -0.8039  1.3699  1.9412
  106MOL    H4633856   7.397   6.893   1.486  3.2356 -1.6150 -1.7905
  106MOL    H4733857   7.585   6.844   1.671 -1.7256  2.1112 -0.8500
  106MOL    H4833858   7.503   6.658   2.052  1.1615 -0.0482  0.8120
  106MOL    H4933859   7.658   6.719   2.047  0.4362  1.6099 -0.7576
  106MOL    C5033860   7.519   6.871   2.002 -0.2815  0.6786  0.5030
  106MOL    C5133861   7.385   6.870   2.081  0.3646 -0.3813  0.1060
  106MOL    C5233862   7.376   6.849   2.222 -0.5177  0.2907  0.1519
  106MOL    C5333863   7.246   6.852   2.277  0.3163 -0.3691  0.4387
  106MOL    C5433864   7.129   6.874   2.197  0.6851  0.2888 -0.0092
  106MOL    F5533865   7.006   6.864   2.241 -0.5063 -0.2368  0.0168
  106MOL    C5633866   7.143   6.890   2.061 -0.4412 -0.7725  0.9215
  106MOL    C5733867   7.271   6.887   2.001 -0.3398  0.6646 -0.1448
  106MOL    C5833868   7.622   6.958   2.071 -0.4608  0.3081 -0.2323
  106MOL    H5933869   7.511   6.918   1.904  0.2307 -0.4715 -0.1004
  106MOL    H6033870   7.458   6.839   2.291 -0.6080  0.8819  0.3421
  106MOL    H6133871   7.241   6.834   2.383  1.7142  0.9679  0.7476
  106MOL    H6233872   7.051   6.903   2.006 -1.2546 -3.6474  1.5526
  106MOL    H6333873   7.268   6.890   1.893  0.8721 -2.2126 -0.3152
  106MOL    H6433874   7.592   7.063   2.072  0.9746  0.7378  1.3010
  106MOL    H6533875   7.629   6.943   2.179  0.0622 -1.0300 -0.4442
  106MOL    C6633876   7.764   6.951   2.008 -1.4103 -0.5553 -0.5445
  106MOL    C6733877   7.777   7.026   1.869 -0.4650  1.1264  0.2826
  106MOL    C6833878   7.890   6.998   1.786 -0.3284 -0.5439 -0.5157
  106MOL    C6933879   7.905   7.069   1.664  0.4698 -0.6582  0.1123
  106MOL    C7033880   7.798   7.163   1.623 -0.2482  0.2859 -0.1368
  106MOL    F7133881   7.817   7.235   1.510  0.0166 -0.1697 -0.2930
  106MOL    C7233882   7.680   7.174   1.697  0.2411  0.6670  0.6698
  106MOL    C7333883   7.674   7.108   1.819 -0.4165  0.9638  0.1235
  106MOL    C7433884   7.875   6.996   2.105  0.2380 -0.0293 -0.4096
  106MOL    H7533885   7.793   6.848   1.988  0.8676 -0.0533  0.0542
  106MOL    H7633886   7.967   6.930   1.817 -0.4759 -0.6819 -0.4492
  106MOL    H7733887   7.987   7.050   1.596  2.6759  0.7914  2.2380
  106MOL    H7833888   7.600   7.238   1.665 -1.2827 -0.4457  2.1561
  106MOL    H7933889   7.581   7.121   1.872  0.6800 -0.5611  2.5290
  106MOL    H8033890   7.874   6.925   2.188 -3.1312  2.0590  1.4535
  106MOL    H8133891   7.973   6.981   2.061  0.5005 -2.2467  0.8646
  106MOL    C8233892   7.858   7.133   2.173  0.2663 -0.2731  0.3993
  106MOL    C8333893   7.955   7.145   2.289  0.1171  0.5106 -0.0111
  106MOL    C8433894   8.094   7.148   2.270 -0.0042  0.1836  0.1407
  106MOL    C8533895   8.180   7.159   2.381 -0.2174 -0.1244  0.3841
  106MOL    C8633896   8.135   7.158   2.517  0.1126  0.0998 -0.1446
  106MOL    F8733897   8.222   7.169   2.614  0.2670  0.4715  0.0897
  106MOL    C8833898   7.993   7.147   2.534  0.2310 -0.4564 -0.5392
  106MOL    C8933899   7.907   7.140   2.421 -0.0275  0.4451  0.0774
  106MOL    C9033900   7.860   7.249   2.073  0.0771  0.4925  0.1407
  106MOL    H9133901   7.757   7.135   2.212  1.0498  0.5478  2.4817
  106MOL    H9233902   8.131   7.153   2.168  2.0503 -1.4476  0.7840
  106MOL    H9333903   0.052   7.164   2.360 -0.6466 -0.8016 -2.1353
  106MOL    H9433904   7.944   7.153   2.630  1.6435  0.4171  0.1486
  106MOL    H9533905   7.800   7.145   2.436 -0.2752 -2.3641 -0.5505
  106MOL    H9633906   7.939   7.234   2.000  1.1389  0.4924  1.2676
  106MOL    H9733907   7.765   7.261   2.022 -1.1493  3.2765  2.8627
  106MOL    C9833908   7.887   7.394   2.124 -0.3329  0.6311  0.1532
  106MOL    C9933909   7.916   7.501   2.028 -1.1655 -0.0962  0.3999
  106MOL   C10033910   8.013   7.598   2.056 -0.0631 -0.3326  0.5753
  106MOL   C10133911   8.047   7.699   1.962 -0.0805  0.0849 -0.6660
  106MOL   C10233912   7.971   7.708   1.847  0.1919  0.9341  0.0749
  106MOL   F10333913   8.007   7.803   1.757 -0.6385  0.2202 -0.0800
  106MOL   C10433914   7.874   7.615   1.809 -0.5639  0.1246 -0.1188
  106MOL   C10533915   7.852   7.503   1.896  0.3722  0.0459  0.0572
  106MOL   C10633916   7.773   7.439   2.220  0.2306  0.1740  0.1991
  106MOL   H10733917   7.982   7.393   2.178  0.9439 -1.9865 -2.0033
  106MOL   H10833918   8.070   7.599   2.148  0.6170  0.5029  0.1426
  106MOL   H10933919   8.128   7.768   1.983 -0.1718 -0.4507  1.6476
  106MOL   H11033920   7.819   7.615   1.717 -0.5088  1.4227 -0.1611
  106MOL   H11133921   7.775   7.431   1.873 -0.1354  0.3973  0.6004
  106MOL   H11233922   7.684   7.468   2.165 -0.0006  0.7731  0.8875
  106MOL   H11333923   7.748   7.348   2.274 -0.6896  1.4189  1.9513
  106MOL   C11433924   7.810   7.546   2.329 -0.0137 -0.2075 -0.6136
  106MOL   C11533925   7.826   7.693   2.283  0.3895 -0.2509  0.6852
  106MOL   C11633926   7.742   7.741   2.182 -0.3306 -0.4163  0.2168
  106MOL   C11733927   7.772   7.866   2.120  0.5564 -0.0456  0.0404
  106MOL   C11833928   7.870   7.948   2.175  0.4707  0.0103 -0.4471
  106MOL   F11933929   7.901   8.059   2.106  0.0541  0.3683  0.6521
  106MOL   C12033930   7.947   7.903   2.281 -0.1710  0.9915 -0.0062
  106MOL   C12133931   7.930   7.772   2.340  0.4167 -0.3772  0.2847
  106MOL   C12233932   7.735   7.528   2.461  0.0611 -0.0612 -0.0877
  106MOL   H12333933   7.910   7.510   2.353 -1.5507 -3.7705  0.7507
  106MOL   H12433934   7.654   7.683   2.156 -0.9582 -1.3510  4.0603
  106MOL   H12533935   7.706   7.906   2.044  0.4850  1.8424  1.0583
  106MOL   H12633936   8.018   7.971   2.326  0.0954  0.4333  0.4181
  106MOL   H12733937   7.987   7.737   2.424  1.8560  0.5741 -0.2905
  106MOL   H12833938   7.738   7.424   2.494 -1.1333 -0.4802 -1.2827
  106MOL   H12933939   7.795   7.569   2.543  1.0500 -2.5371  0.4885
  106MOL   C13033940   7.586   7.584   2.453  0.2014 -0.8527 -0.0652
  106MOL   C13133941   7.494   7.500   2.370  0.3584  0.2763  0.8345
  106MOL   C13233942   7.417   7.562   2.266  0.7009 -0.5127  0.2247
  106MOL   C13333943   7.329   7.491   2.186  0.6612 -0.4740 -0.2097
  106MOL   C13433944   7.317   7.349   2.205 -0.9141  0.1119  0.3798
  106MOL   F13533945   7.222   7.285   2.139  0.6520 -0.3591  0.2837
  106MOL   C13633946   7.393   7.280   2.302 -0.0580  0.2066 -0.5622
  106MOL   C13733947   7.484   7.356   2.379  0.0500 -0.5289 -0.1271
  106MOL   C13833948   7.518   7.619   2.595  0.1676  0.1207 -0.4117
  106MOL   H13933949   7.598   7.680   2.404  1.0609 -0.1491  1.4759
  106MOL   H14033950   7.424   7.668   2.246  1.0829 -0.2987  1.4718
  106MOL   H14133951   7.267   7.546   2.117  0.2004 -0.7920 -0.0555
  106MOL   H14233952   7.404   7.173   2.299 -1.4283 -0.0794  2.5958
  106MOL   H14333953   7.555   7.309   2.446 -0.6128  0.4768  1.3070
  106MOL   H14433954   7.426   7.672   2.573 -0.4342 -1.3505 -1.5172
  106MOL   H14533955   7.480   7.521   2.625  1.2666 -0.7710 -1.8118
  106MOL   C14633956   7.606   7.684   2.706  0.2230 -0.1457 -0.1566
  106MOL   C14733957   7.695   7.794   2.666  0.2854 -0.4068  0.0760
  106MOL   C14833958   7.828   7.805   2.713 -0.8154 -0.7239 -0.4430
  106MOL   C14933959   7.904   7.918   2.669  0.5326 -0.5284  1.0573
  106MOL   C15033960   7.845   8.018   2.584  0.1142 -0.1254  0.3889
  106MOL   F15133961   7.918   8.119   2.528 -0.2251  0.1456  0.2996
  106MOL   C15233962   7.711   8.006   2.550 -0.3029  0.2543 -0.5430
  106MOL   C15333963   7.640   7.892   2.583 -0.1690  0.7864 -0.7277
  106MOL   C15433964   7.542   7.721   2.836  0.0238  0.1105 -0.8579
  106MOL   H15533965   7.682   7.607   2.720  1.3307  0.7332 -1.1884
  106MOL   H15633966   7.868   7.721   2.768 -1.5827 -0.9256 -0.1903
  106MOL   H15733967   8.006   7.926   2.704  0.9600 -2.1656  0.2004
  106MOL   H15833968   7.663   8.078   2.486  1.7350  1.9428 -0.2197
  106MOL   H15933969   7.536   7.882   2.556  0.0730  0.1701 -1.4595
  106MOL   H16033970   7.622   7.752   2.902  0.6479  3.0998 -2.8703
  106MOL   H16133971   7.477   7.808   2.822 -2.9108 -2.1298 -1.8483
  106MOL   C16233972   7.451   7.614   2.894  0.3434  0.0311  1.4488
  106MOL   C16333973   7.518   7.475   2.914 -0.3489 -0.4738 -0.8751
  106MOL   C16433974   7.646   7.459   2.980 -0.4151  1.0593  0.1263
  106MOL   C16533975   7.705   7.323   2.981 -0.7059 -0.1485 -0.1872
  106MOL   C16633976   7.635   7.218   2.920 -0.1898  0.1480 -0.1005
  106MOL   F16733977   7.678   7.088   2.937 -0.1455 -0.6146 -0.2324
  106MOL   C16833978   7.514   7.242   2.858  0.1947 -0.2733 -0.1239
  106MOL   C16933979   7.449   7.368   2.857 -0.0011  0.0252  0.0472
  106MOL   C17033980   7.401   7.662   3.031  0.2310 -0.2879  0.2950
  106MOL   H17133981   7.356   7.604   2.841 -1.3006  1.6903  3.9739
  106MOL   H17233982   7.690   7.547   3.026  1.7043  0.3156 -0.4292
  106MOL   H17333983   7.804   7.308   3.023 -0.7941 -0.5477 -0.1163
  106MOL   H17433984   7.461   7.164   2.806 -1.1473  0.9584 -0.6552
  106MOL   H17533985   7.362   7.377   2.794  1.7348  0.9970 -2.3222
  106MOL   H17633986   7.482   7.654   3.104  2.1159 -0.6237 -1.7663
  106MOL   H17733987   7.375   7.766   3.015 -1.5456 -0.7919 -0.2119
  106MOL   C17833988   7.273   7.603   3.089 -0.1026  0.7538 -0.3602
  106MOL   C17933989   7.257   7.620   3.241 -0.3635 -0.4091 -0.0540
  106MOL   C18033990   7.261   7.501   3.321 -0.3951 -0.8095 -0.7737
  106MOL   C18133991   7.241   7.508   3.459  0.7272 -0.8119  0.3892
  106MOL   C18233992   7.223   7.634   3.523 -0.5309 -0.4468  0.0321
  106MOL   F18333993   7.214   7.640   3.660  0.4968  0.2202  0.5062
  106MOL   C18433994   7.212   7.749   3.447 -0.4529  0.2868  0.1224
  106MOL   C18533995   7.236   7.742   3.305  0.2619 -0.0852  0.3456
  106MOL   C18633996   7.143   7.651   3.011 -0.2663 -0.2622 -0.3752
  106MOL   H18733997   7.279   7.496   3.073 -1.4010  0.5444  0.4281
  106MOL   H18833998   7.281   7.404   3.279  2.7330 -0.1114 -1.0098
  106MOL   H18933999   7.232   7.413   3.509  0.4786 -0.9856  0.0161
  106MOL   H19034000   7.199   7.839   3.506  0.0939  0.4173  0.0541
  106MOL   H19134001   7.239   7.830   3.243 -1.4291 -0.6863 -0.6320
  106MOL   H19234002   7.146   7.760   3.012  0.6781 -0.2872  2.2003
  106MOL   H19334003   7.144   7.624   2.905  0.9396 -1.3349 -0.1035
  106MOL   C19434004   7.010   7.616   3.072 -0.3581  0.3724  0.5177
  106MOL   C19534005   6.901   7.709   3.027 -0.6326 -0.2312  0.0788
  106MOL   C19634006   6.909   7.772   2.900  0.7572  0.0957  0.2271
  106MOL   C19734007   6.811   7.859   2.860 -0.3931 -0.0423  0.0379
  106MOL   C19834008   6.702   7.892   2.941 -0.5814 -0.0886 -0.2528
  106MOL   F19934009   6.602   7.970   2.897 -0.4988 -0.3484 -0.4290
  106MOL   C20034010   6.698   7.834   3.068  0.1892 -0.5670 -0.3885
  106MOL   C20134011   6.792   7.744   3.112 -0.1855  0.2283 -0.2448
  106MOL   C20234012   6.974   7.467   3.031  0.2141  0.8060 -0.0920
  106MOL   H20334013   7.014   7.630   3.180 -4.6927 -2.3489  1.1807
  106MOL   H20434014   6.981   7.742   2.825  0.9132 -0.9923  0.7999
  106MOL   H20534015   6.823   7.909   2.766 -1.9820  2.6728  1.2234
  106MOL   H20634016   6.621   7.871   3.134  0.9833  0.4418 -0.0171
  106MOL   H20734017   6.785   7.706   3.212  1.5074  2.9642  0.9484
  106MOL   H20834018   6.885   7.469   2.968  0.4711  0.5541 -0.4635
  106MOL   H20934019   7.053   7.431   2.965  2.3038  0.9074  2.2781
  106MOL   C21034020   6.954   7.383   3.156  0.3103  0.9548 -0.6696
  106MOL   C21134021   6.850   7.440   3.247 -0.4244  0.6431 -0.5064
  106MOL   C21234022   6.886   7.473   3.379 -0.5667  0.5945  1.1996
  106MOL   C21334023   6.788   7.509   3.466 -1.1173 -0.4867  0.1028
  106MOL   C21434024   6.652   7.519   3.426  0.6884 -0.5070  0.1044
  106MOL   F21534025   6.550   7.559   3.505  0.0344 -0.1184  0.3179
  106MOL   C21634026   6.621   7.493   3.293  0.6598 -0.0296  0.5770
  106MOL   C21734027   6.715   7.443   3.207  0.4928 -0.5231 -0.1234
  106MOL   C21834028   6.913   7.238   3.124 -0.0320  0.3152 -0.9220
  106MOL   H21934029   7.051   7.371   3.204 -0.2920 -1.5516 -0.0098
  106MOL   H22034030   6.990   7.481   3.408  0.5221  1.2299 -2.5907
  106MOL   H22134031   6.808   7.545   3.566  1.1694 -0.5805 -0.2851
  106MOL   H22234032   6.519   7.485   3.257  1.3982  0.9417 -1.8410
  106MOL   H22334033   6.685   7.400   3.113  0.9541 -2.7485  0.6990
  106MOL   H22434034   6.883   7.187   3.216  1.5033 -0.4791 -0.8508
  106MOL   H22534035   6.827   7.235   3.056 -1.3762 -0.4903  0.7689
  106MOL   C22634036   7.036   7.155   3.082 -1.2675  0.4093 -0.0882
  106MOL   C22734037   7.130   7.122   3.202 -0.8389  0.2622  0.7844
  106MOL   C22834038   7.087   7.053   3.322  0.8250 -0.2004  0.1564
  106MOL   C22934039   7.174   7.026   3.430  0.8437  0.2249 -0.5508
  106MOL   C23034040   7.306   7.070   3.422  0.3385  0.3653 -0.1998
  106MOL   F23134041   7.384   7.041   3.527 -0.3527  0.1297  0.0714
  106MOL   C23234042   7.352   7.139   3.305  0.3738 -0.4742  0.1502
  106MOL   C23334043   7.269   7.161   3.194 -0.0933 -0.0332 -0.1809
  106MOL   C23434044   6.999   7.032   3.015 -0.2909  0.1472  0.8272
  106MOL   H23534045   7.096   7.217   3.016  0.7941 -0.2468  1.1159
  106MOL   H23634046   6.984   7.023   3.328  0.8554 -0.4772 -0.6654
  106MOL   H23734047   7.135   6.971   3.515 -0.5038  0.5381 -0.9602
  106MOL   H23834048   7.458   7.161   3.303  0.0853  1.0397  0.8269
  106MOL   H23934049   7.310   7.211   3.108  1.4362  1.0944  1.1828
  106MOL   H24034050   7.083   6.966   2.994 -0.7179 -0.5619  1.3168
  106MOL   H24134051   6.936   6.978   3.086 -0.8301 -2.8156 -1.8003
  106MOL   C24234052   6.930   7.044   2.873 -0.4217  0.2474  0.2155
  106MOL   C24334053   7.015   7.132   2.778  0.8275 -0.0421  0.1579
  106MOL   C24434054   6.974   7.266   2.745  0.7329 -0.3003  0.2334
  106MOL   C24534055   7.060   7.340   2.665  0.3327 -0.5199 -0.3204
  106MOL   C24634056   7.180   7.286   2.616  0.3818 -0.5063 -0.1919
  106MOL   F24734057   7.271   7.369   2.562 -0.3434  0.2189  0.0541
  106MOL   C24834058   7.222   7.153   2.650 -0.0917 -0.1465  0.0879
  106MOL   C24934059   7.135   7.075   2.729  0.6358 -0.1525  0.5991
  106MOL   C25034060   6.897   6.906   2.817  0.0548  0.4422  0.0734
  106MOL   H25134061   6.835   7.092   2.895 -0.4832 -0.4392  1.5285
  106MOL   H25234062   6.886   7.313   2.786  1.6160 -0.5924  2.5585
  106MOL   H25334063   7.041   7.444   2.645  1.8876 -0.6460 -2.7011
  106MOL   H25434064   7.316   7.113   2.615  0.3119  0.7154  0.1815
  106MOL   H25534065   7.168   6.977   2.762  2.2629  0.0828 -0.2672
  106MOL   H25634066   6.883   6.922   2.710  0.5482 -0.6353 -0.1608
  106MOL   H25734067   6.976   6.832   2.829 -0.7960 -0.2520  1.5976
  106MOL   C25834068   6.768   6.836   2.872 -0.1948  0.1456  0.3537
  106MOL   C25934069   6.644   6.928   2.878  0.1129 -0.6647 -0.1513
  106MOL   C26034070   6.568   6.955   2.766  0.6435  0.3424 -0.3262
  106MOL   C26134071   6.463   7.050   2.776  0.2738  0.8045  0.1190
  106MOL   C26234072   6.430   7.116   2.899 -0.1062 -1.3365 -0.2119
  106MOL   F26334073   6.335   7.213   2.895 -0.1839 -0.1607  0.1372
  106MOL   C26434074   6.515   7.093   3.005 -0.4879 -0.8856  0.1399
  106MOL   C26534075   6.615   6.996   3.000  0.2908  0.2233  0.7142
  106MOL   C26634076   6.753   6.695   2.805  0.0715  0.3356  0.3949
  106MOL   H26734077   6.803   6.816   2.973  0.5668  0.4041  0.1381
  106MOL   H26834078   6.580   6.898   2.675 -1.9249 -2.2612  0.8799
  106MOL   H26934079   6.409   7.061   2.683 -0.4488  0.1341  0.4646
  106MOL   H27034080   6.510   7.141   3.102 -0.2783 -0.9598  0.1875
  106MOL   H27134081   6.676   6.972   3.085  1.4941 -1.6534 -0.6446
  106MOL   H27234082   6.661   6.647   2.839 -0.4806  1.8341  1.0823
  106MOL   H27334083   6.742   6.710   2.697 -0.0846 -1.1300  0.1942
  106MOL   C27434084   6.848   6.582   2.813 -0.2116 -0.4850  0.0564
  106MOL   C27534085   6.839   6.528   2.954 -0.8907  0.1654  0.4207
  106MOL   C27634086   6.726   6.456   2.996 -0.3690 -0.4221  0.3218
  106MOL   C27734087   6.714   6.404   3.128 -0.6181 -0.6228 -0.0951
  106MOL   C27834088   6.817   6.429   3.219  0.2506 -0.1196  0.4890
  106MOL   F27934089   6.819   6.367   3.345 -0.1802 -0.0538 -0.0539
  106MOL   C28034090   6.936   6.505   3.174  0.5504 -0.3622  0.2359
  106MOL   C28134091   6.946   6.547   3.041  0.2064  0.3821  1.0458
  106MOL   C28234092   6.854   6.475   2.698 -0.1300  0.3580 -0.0515
  106MOL   H28334093   6.943   6.635   2.802 -0.3810 -0.4928 -1.5038
  106MOL   H28434094   6.640   6.441   2.933  0.3321 -0.9671 -0.5023
  106MOL   H28534095   6.621   6.353   3.151 -1.7463  0.0720 -2.9432
  106MOL   H28634096   7.018   6.531   3.239  0.3254 -0.5653  0.6054
  106MOL   H28734097   7.028   6.615   3.019 -0.2620  1.0626  1.3734
  106MOL   H28834098   6.908   6.391   2.743  0.2026  1.0959  0.9380
  106MOL   H28934099   6.752   6.439   2.682 -0.8636  0.7782  3.2845
  106MOL   C29034100   6.929   6.528   2.568 -0.4302  0.2890 -0.1607
  106MOL   C29134101   7.079   6.551   2.589 -0.5559 -0.0786 -1.0333
  106MOL   C29234102   7.131   6.682   2.598 -0.5126 -0.2705 -0.2634
  106MOL   C29334103   7.267   6.701   2.621 -0.8818  0.4155  0.0280
  106MOL   C29434104   7.353   6.588   2.636 -0.3263 -0.0921  0.8621
  106MOL   F29534105   7.490   6.601   2.653  0.3142 -0.2612  0.2065
  106MOL   C29634106   7.303   6.461   2.637 -0.2548 -0.5042  0.7746
  106MOL   C29734107   7.164   6.440   2.609 -0.5715  0.4949 -0.4314
  106MOL   C29834108   6.907   6.448   2.441  0.8094 -0.2523 -0.0579
  106MOL   H29934109   6.889   6.630   2.562  0.6793  0.6247 -1.9649
  106MOL   H30034110   7.070   6.771   2.589  1.9228  1.4058 -0.4289
  106MOL   H30134111   7.302   6.804   2.621  0.2672  0.0277  0.0926
  106MOL   H30234112   7.376   6.385   2.663  1.3038  0.9184  0.6300
  106MOL   H30334113   7.124   6.340   2.611  0.1221  0.2345  1.5540
  106MOL   H30434114   6.971   6.481   2.359 -1.4527 -1.4177 -2.3586
  106MOL   H30534115   6.938   6.345   2.458 -1.7151 -0.7905  1.5148
  106MOL   C30634116   6.757   6.446   2.398 -0.1806  0.2016  0.4513
  106MOL   C30734117   6.683   6.582   2.411 -0.5319  0.0193  1.2059
  106MOL   C30834118   6.742   6.700   2.358  0.5652  0.7152 -0.6566
  106MOL   C30934119   6.670   6.824   2.353 -0.1707 -0.3620 -0.3270
  106MOL   C31034120   6.535   6.822   2.382 -0.1359  0.1177  0.4092
  106MOL   F31134121   6.455   6.936   2.367 -0.2086 -0.2337 -0.2107
  106MOL   C31234122   6.480   6.712   2.444  0.4348 -0.3730  0.5493
  106MOL   C31334123   6.549   6.591   2.454  0.5924  0.3695  0.3180
  106MOL   C31434124   6.738   6.398   2.253  0.0565 -0.4945 -0.7068
  106MOL   H31534125   6.709   6.375   2.465 -0.2594  0.5624  0.7783
  106MOL   H31634126   6.844   6.699   2.324  0.8829 -0.3737  0.2777
  106MOL   H31734127   6.714   6.908   2.302 -1.2921 -0.0245 -0.7545
  106MOL   H31834128   6.374   6.718   2.462  0.0923 -1.2054 -1.0515
  106MOL   H31934129   6.499   6.505   2.495 -0.7792  1.6676  1.4525
  106MOL   H32034130   6.635   6.419   2.225  0.0675  1.0993  0.4132
  106MOL   H32134131   6.789   6.451   2.172  1.3757  0.1718  0.5460
  106MOL   H32234132   6.743   6.290   2.236  1.2695 -0.6276  0.3870
  107MOL     C134133   1.999   0.812   8.177 -0.5328 -0.1415 -0.8297
  107MOL     C234134   2.062   0.933   8.103 -0.1172 -0.7434  0.3230
  107MOL     C334135   2.129   1.031   8.168  0.8009  0.5456 -0.0543
  107MOL     C434136   2.160   1.142   8.094  0.3730 -0.0793  0.0098
  107MOL     C534137   2.141   1.158   7.958  0.1377 -0.1099  0.6788
  107MOL     F634138   2.167   1.275   7.901  0.4920 -0.0240 -0.4324
  107MOL     C734139   2.085   1.049   7.886  0.9092  0.1063 -0.1524
  107MOL     C834140   2.044   0.936   7.962  0.1828 -0.2674 -0.2260
  107MOL     C934141   1.845   0.808   8.178 -0.1279  0.2626 -0.5942
  107MOL    H1034142   2.035   0.814   0.046  0.8633  0.3559 -1.3218
  107MOL    H1134143   2.145   1.026   0.040 -3.2743  0.4172  0.6554
  107MOL    H1234144   2.199   1.224   8.153 -0.3278 -0.8104  1.5109
  107MOL    H1334145   2.069   1.057   7.780 -2.1677 -1.0312  0.1792
  107MOL    H1434146   1.973   0.871   7.913  0.7075 -1.2158  0.2596
  107MOL    H1534147   1.813   0.787   8.076  0.9570  0.2529 -0.9391
  107MOL    H1634148   1.804   0.737   0.015 -0.6473 -0.5867 -1.7281
  107MOL    H1734149   2.043   0.728   8.124  2.4730  1.6597 -1.3062
  107MOL    C1834150   1.769   0.945   8.212 -0.1621  0.2736 -0.2281
  107MOL    C1934151   1.623   0.937   8.158 -0.0205 -0.4609  0.1046
  107MOL    C2034152   1.547   1.059   8.151 -0.2808 -0.2230  0.2516
  107MOL    C2134153   1.412   1.061   8.118 -0.3486 -0.4053 -0.3788
  107MOL    C2234154   1.345   0.940   8.088  0.3882 -0.3143  0.4886
  107MOL    F2334155   1.210   0.936   8.066 -0.1415 -0.0063  0.5600
  107MOL    C2434156   1.422   0.824   8.095  0.8065 -0.5426 -0.8231
  107MOL    C2534157   1.556   0.816   8.131 -0.8534 -0.1171 -0.0001
  107MOL    C2634158   1.773   0.974   0.132 -0.1641  0.3629 -0.3665
  107MOL    H2734159   1.816   1.026   8.156 -0.6102  1.5711  1.2318
  107MOL    H2834160   1.593   1.151   8.185  0.7113 -0.2929 -0.8546
  107MOL    H2934161   1.356   1.153   8.130 -2.5537 -1.6187 -0.9092
  107MOL    H3034162   1.372   0.732   8.067  0.6835 -0.0612 -2.2073
  107MOL    H3134163   1.605   0.720   8.141  1.0970  1.0523  2.3127
  107MOL    H3234164   1.874   0.989   0.170 -0.7585 -0.1827  1.4447
  107MOL    H3334165   1.740   1.077   0.134  1.8573  1.0179  0.8949
  107MOL    C3434166   1.680   0.891   0.229 -0.1863 -0.1486  0.1686
  107MOL    C3534167   1.734   0.757   0.252  0.3071 -0.7042  0.0981
  107MOL    C3634168   1.659   0.645   0.205 -0.3761  0.3169 -0.1294
  107MOL    C3734169   1.709   0.515   0.210 -0.1126  0.9007  0.1555
  107MOL    C3834170   1.827   0.490   0.279  0.1720 -0.4048 -0.0675
  107MOL    F3934171   1.867   0.363   0.296  0.2156 -0.5321  0.2439
  107MOL    C4034172   1.904   0.598   0.332  0.7395  0.1660  0.1065
  107MOL    C4134173   1.855   0.730   0.314  0.1283  0.6851 -0.3130
  107MOL    C4234174   1.649   0.948   0.365  0.0790  0.5238 -0.1485
  107MOL    H4334175   1.587   0.874   0.174  0.2610  0.2103 -0.7148
  107MOL    H4434176   1.558   0.662   0.171 -0.6679 -3.1766 -1.2470
  107MOL    H4534177   1.654   0.434   0.164  1.9895 -0.9119  0.7875
  107MOL    H4634178   1.991   0.587   0.395  0.4900  1.9020  0.8067
  107MOL    H4734179   1.914   0.808   0.359 -0.6335  1.8597 -1.3279
  107MOL    H4834180   1.622   0.878   0.444  0.5108 -1.4413 -1.7146
  107MOL    H4934181   1.741   0.989   0.405 -0.8913  2.6013  0.0535
  107MOL    C5034182   1.543   1.070   0.373  0.3668 -0.2220  0.6085
  107MOL    C5134183   1.403   1.039   0.333  0.6954 -0.0789 -0.6190
  107MOL    C5234184   1.370   0.900   0.323 -0.8435 -0.0170  0.0039
  107MOL    C5334185   1.252   0.863   0.272  0.1517  0.2772 -0.8234
  107MOL    C5434186   1.159   0.959   0.225 -0.3861 -0.4771  0.4856
  107MOL    F5534187   1.040   0.924   0.186 -0.3411  0.3439  0.1320
  107MOL    C5634188   1.185   1.094   0.238 -0.1869 -0.3836 -0.1890
  107MOL    C5734189   1.311   1.136   0.289  0.2773  0.2821  0.1907
  107MOL    C5834190   1.538   1.134   0.505 -0.4173 -0.4406  0.1965
  107MOL    H5934191   1.575   1.145   0.301 -2.3049  0.7366  0.3896
  107MOL    H6034192   1.435   0.823   0.364 -0.5503 -0.0037 -0.4314
  107MOL    H6134193   1.222   0.760   0.262 -0.3734 -0.0688  3.5280
  107MOL    H6234194   1.108   1.161   0.202  1.2054  0.8068 -0.9890
  107MOL    H6334195   1.339   1.239   0.305  0.4433  0.3589 -0.5969
  107MOL    H6434196   1.640   1.144   0.542 -1.6839 -0.9974  4.0597
  107MOL    H6534197   1.493   1.233   0.497 -0.6197 -0.5704 -0.2921
  107MOL    C6634198   1.454   1.073   0.615  0.6333 -0.0561  0.5166
  107MOL    C6734199   1.528   1.057   0.747 -0.5760  0.0838 -0.1199
  107MOL    C6834200   1.515   0.946   0.823 -0.3454  0.4996 -0.2356
  107MOL    C6934201   1.590   0.933   0.945  1.0496 -0.5649  0.0834
  107MOL    C7034202   1.670   1.047   0.986 -0.9592  0.6907 -0.3551
  107MOL    F7134203   1.736   1.036   1.101 -0.4326  0.0552  0.1796
  107MOL    C7234204   1.687   1.162   0.910  0.5081  0.2469 -0.1677
  107MOL    C7334205   1.611   1.165   0.788 -0.8141 -0.8687 -0.1639
  107MOL    C7434206   1.318   1.145   0.632 -0.2555 -0.3863  0.0594
  107MOL    H7534207   1.442   0.968   0.591 -2.7603  0.3331  0.2789
  107MOL    H7634208   1.453   0.865   0.789  0.9329 -0.0645 -1.2564
  107MOL    H7734209   1.582   0.841   1.001 -0.2790  0.0414  0.9268
  107MOL    H7834210   1.749   1.243   0.945 -0.2967  0.3361  1.0786
  107MOL    H7934211   1.615   1.254   0.727  1.2209  0.3077  1.6267
  107MOL    H8034212   1.320   1.221   0.710 -3.2580 -0.4059  0.1958
  107MOL    H8134213   1.285   1.190   0.539  1.6816 -1.9753 -1.4596
  107MOL    C8234214   1.213   1.055   0.699 -0.3094 -0.5666  0.0296
  107MOL    C8334215   1.105   1.135   0.776 -0.7457  0.1267  0.1075
  107MOL    C8434216   1.024   1.227   0.703 -0.6456  0.2860 -0.8025
  107MOL    C8534217   0.914   1.287   0.772  0.0189 -0.4816  0.2875
  107MOL    C8634218   0.892   1.268   0.911  0.2482 -0.0247  0.9379
  107MOL    F8734219   0.794   1.338   0.979  0.2314 -0.2099 -0.5872
  107MOL    C8834220   0.972   1.184   0.980 -1.3902  0.2952  0.0597
  107MOL    C8934221   1.083   1.120   0.915 -0.3108  0.0081 -0.2154
  107MOL    C9034222   1.155   0.953   0.594  0.1541  0.4396 -0.5368
  107MOL    H9134223   1.266   0.998   0.775  1.9922  1.2037 -0.1913
  107MOL    H9234224   1.048   1.252   0.600  1.8469  1.6624  0.0728
  107MOL    H9334225   0.857   1.354   0.709 -1.0555  0.6549  2.4395
  107MOL    H9434226   0.956   1.172   1.086 -0.5909 -0.4374  0.1016
  107MOL    H9534227   1.154   1.073   0.983 -1.0905 -0.6226  0.1724
  107MOL    H9634228   1.100   1.014   0.522 -0.5819 -2.1864 -2.2658
  107MOL    H9734229   1.233   0.898   0.543 -0.3323  1.6419 -2.6175
  107MOL    C9834230   1.049   0.852   0.651 -0.0864 -0.1507  0.4822
  107MOL    C9934231   0.944   0.813   0.550 -0.2046 -0.8114  0.8320
  107MOL   C10034232   0.817   0.880   0.555  0.2924  0.5512 -0.3612
  107MOL   C10134233   0.722   0.858   0.455 -0.5173  0.0394  0.1983
  107MOL   C10234234   0.754   0.774   0.340 -0.1989  0.4928  0.2951
  107MOL   F10334235   0.657   0.746   0.250 -0.2052 -0.0020 -0.4244
  107MOL   C10434236   0.885   0.721   0.334  0.0129 -0.3264  0.1726
  107MOL   C10534237   0.982   0.734   0.437 -0.2064 -0.4578  0.1677
  107MOL   C10634238   1.123   0.730   0.711 -0.3061 -0.1759  0.0720
  107MOL   H10734239   0.993   0.898   0.732  0.2017 -1.7877  1.6422
  107MOL   H10834240   0.798   0.943   0.640  0.3391 -0.2408  0.2455
  107MOL   H10934241   0.622   0.898   0.457  0.4613  2.6134 -0.0842
  107MOL   H11034242   0.910   0.666   0.244  4.6751  0.9165  0.6006
  107MOL   H11134243   1.076   0.682   0.436  0.9228  1.4350  2.0458
  107MOL   H11234244   1.148   0.657   0.634  0.7305 -1.0013  1.1750
  107MOL   H11334245   1.221   0.753   0.752  0.1792 -0.8384 -0.6994
  107MOL   C11434246   1.039   0.662   0.828  0.9028  0.1173 -0.2925
  107MOL   C11534247   0.905   0.618   0.773  1.3247 -0.5755  0.1460
  107MOL   C11634248   0.785   0.686   0.828 -0.2783 -0.1302 -0.5069
  107MOL   C11734249   0.659   0.651   0.779  0.3157 -0.0940  0.7810
  107MOL   C11834250   0.648   0.551   0.676 -0.0654 -0.5255  0.8290
  107MOL   F11934251   0.526   0.519   0.622  0.0300 -0.0854  0.2064
  107MOL   C12034252   0.763   0.479   0.628 -0.1090  0.4506 -0.1661
  107MOL   C12134253   0.887   0.518   0.682  0.6867  0.2552 -0.0747
  107MOL   C12234254   1.113   0.533   0.882  0.2190 -0.3270  0.4208
  107MOL   H12334255   1.014   0.733   0.907 -1.4244 -0.0466 -0.8319
  107MOL   H12434256   0.789   0.764   0.903 -1.8610  0.2329 -0.7717
  107MOL   H12534257   0.573   0.710   0.806 -0.5844 -0.8912 -0.3160
  107MOL   H12634258   0.750   0.411   0.545 -0.1913  0.2862 -0.0169
  107MOL   H12734259   0.984   0.478   0.655  0.3350 -0.4341 -0.3199
  107MOL   H12834260   1.044   0.481   0.948 -0.6700 -1.1691 -1.1416
  107MOL   H12934261   1.142   0.469   0.799 -0.3436 -0.5713  0.4116
  107MOL   C13034262   1.228   0.560   0.980  0.1235  0.2986  0.4766
  107MOL   C13134263   1.197   0.645   1.098 -0.0048  0.3697  0.1944
  107MOL   C13234264   1.272   0.764   1.127  0.7086 -0.8120  0.2912
  107MOL   C13334265   1.244   0.828   1.251  0.2218 -0.6333  0.1565
  107MOL   C13434266   1.140   0.786   1.332  0.7185 -0.0053 -0.4565
  107MOL   F13534267   1.107   0.855   1.449 -0.0552  0.5024 -0.0671
  107MOL   C13634268   1.062   0.677   1.298 -0.1107  0.3306 -0.0148
  107MOL   C13734269   1.095   0.595   1.193  0.1290 -0.0309  0.5332
  107MOL   C13834270   1.302   0.432   1.029 -0.1282 -0.2145 -0.3701
  107MOL   H13934271   1.303   0.612   0.920  0.9512 -1.0066  0.3559
  107MOL   H14034272   1.343   0.807   1.057 -1.3442  1.5691 -0.4324
  107MOL   H14134273   1.302   0.905   1.299  0.1442 -0.5309  0.0852
  107MOL   H14234274   0.970   0.649   1.346 -1.3153  1.5459 -1.5711
  107MOL   H14334275   1.043   0.502   1.175  2.9451 -1.1794 -1.9933
  107MOL   H14434276   1.367   0.469   1.108 -1.4903 -0.4322  0.8812
  107MOL   H14534277   1.227   0.371   1.080  1.9690 -1.8598  0.7807
  107MOL   C14634278   1.393   0.340   0.940 -0.7124 -0.2529  0.1186
  107MOL   C14734279   1.502   0.419   0.878 -0.4398  0.1603 -0.2954
  107MOL   C14834280   1.530   0.415   0.736  0.5302  0.3263 -0.1998
  107MOL   C14934281   1.645   0.488   0.685 -0.2761  0.0253  0.3062
  107MOL   C15034282   1.718   0.572   0.771 -1.3561 -0.5711  0.1513
  107MOL   F15134283   1.825   0.636   0.717  0.7446 -0.2095 -0.2554
  107MOL   C15234284   1.697   0.563   0.909 -0.2706 -0.6093 -0.2625
  107MOL   C15334285   1.588   0.490   0.964 -0.4137  0.0249 -0.1829
  107MOL   C15434286   1.439   0.206   1.008  0.0832 -0.2568 -0.7489
  107MOL   H15534287   1.322   0.308   0.863  1.4395 -1.5698 -1.3731
  107MOL   H15634288   1.474   0.342   0.680 -1.4746  1.6580  0.0167
  107MOL   H15734289   1.688   0.472   0.587  0.0617  0.3444  0.4019
  107MOL   H15834290   1.759   0.627   0.969  1.5877 -1.5570 -1.1444
  107MOL   H15934291   1.571   0.493   1.070  1.3257 -2.0647  0.1965
  107MOL   H16034292   1.520   0.217   1.080 -0.2352 -2.1198 -0.0956
  107MOL   H16134293   1.354   0.158   1.057 -0.0323 -0.1311 -0.8244
  107MOL   C16234294   1.507   0.103   0.909  0.5989  0.5931  0.6856
  107MOL   C16334295   1.563   8.223   0.999  0.3294 -0.2458  0.3469
  107MOL   C16434296   1.491   8.125   1.071 -0.0962  0.2918  0.1631
  107MOL   C16534297   1.552   8.022   1.139  0.5166 -0.0231 -0.1675
  107MOL   C16634298   1.697   8.017   1.135  0.3356 -0.3132 -0.1970
  107MOL   F16734299   1.749   7.924   1.213 -0.4788 -0.1753  0.1474
  107MOL   C16834300   1.772   8.118   1.081 -0.1774 -0.1968 -0.0143
  107MOL   C16934301   1.706   8.220   1.013 -0.0549  0.0805 -0.0888
  107MOL   C17034302   1.415   0.050   0.798 -0.3054 -0.0325  0.3136
  107MOL   H17134303   1.591   0.158   0.866 -0.0232  0.0923 -1.2221
  107MOL   H17234304   1.384   8.133   1.068 -0.4093 -3.4291 -1.0100
  107MOL   H17334305   1.495   7.963   1.209 -1.6106  1.4982 -0.5731
  107MOL   H17434306   1.879   8.107   1.076 -0.2743 -0.4742 -1.9818
  107MOL   H17534307   1.766   0.059   0.960 -0.6183  1.7750  1.6121
  107MOL   H17634308   1.333   8.234   0.849  2.3273 -2.3910  2.3246
  107MOL   H17734309   1.379   0.139   0.746 -1.0000 -1.7690 -2.3172
  107MOL   C17834310   1.488   8.191   0.702  0.4597  0.0464  0.2435
  107MOL   C17934311   1.412   8.058   0.704  0.2766 -0.5877  0.1785
  107MOL   C18034312   1.478   7.934   0.739 -0.5441 -0.1329  0.4375
  107MOL   C18134313   1.415   7.808   0.740  0.1687 -0.6598 -0.3425
  107MOL   C18234314   1.279   7.801   0.710 -0.3849 -0.7977  0.1700
  107MOL   F18334315   1.222   7.674   0.714 -0.5235 -0.0057  0.6719
  107MOL   C18434316   1.208   7.920   0.683 -0.2996 -0.8434  0.0334
  107MOL   C18534317   1.271   8.045   0.676  0.6332 -0.2768 -0.3832
  107MOL   C18634318   1.495   0.021   0.562 -0.5434 -0.5612  0.2296
  107MOL   H18734319   1.589   8.162   0.732  0.4743 -1.5947 -1.2710
  107MOL   H18834320   1.580   7.938   0.774 -0.4087  0.7274 -0.0370
  107MOL   H18934321   1.479   7.725   0.766 -0.4118 -0.1124  3.1121
  107MOL   H19034322   1.104   7.898   0.669 -0.5713 -0.6909  1.7734
  107MOL   H19134323   1.200   8.125   0.665  0.4752 -0.4040 -0.2889
  107MOL   H19234324   1.396   0.057   0.534  0.0661  1.8545  1.0886
  107MOL   H19334325   1.534   0.121   0.581 -0.9043 -0.0382 -1.6343
  107MOL   C19434326   1.569   8.195   0.438 -0.9438 -0.2915  0.1582
  107MOL   C19534327   1.717   8.157   0.463  0.0282 -0.2594  0.4714
  107MOL   C19634328   1.753   8.026   0.494 -0.0704 -0.0795  0.4513
  107MOL   C19734329   1.887   7.992   0.506  0.3882 -0.0700 -0.6036
  107MOL   C19834330   1.985   8.093   0.478 -0.2446  0.0058 -0.6337
  107MOL   F19934331   2.117   8.073   0.501 -0.1278 -0.0036  0.8316
  107MOL   C20034332   1.949   8.226   0.450  0.2322 -0.0417 -0.9223
  107MOL   C20134333   1.816   0.025   0.445 -0.3832  0.2691  0.8130
  107MOL   C20234334   1.488   8.084   0.365  0.0518 -0.9280  0.3680
  107MOL   H20334335   1.572   0.040   0.364 -0.9058 -0.5150 -0.0799
  107MOL   H20434336   1.674   7.961   0.529  0.0682 -0.4606  0.0583
  107MOL   H20534337   1.932   7.901   0.541  2.3086  1.2326  0.4487
  107MOL   H20634338   2.024   0.066   0.428 -0.2456  0.4054 -1.0372
  107MOL   H20734339   1.780   0.126   0.433  1.3140  0.7411 -0.4997
  107MOL   H20834340   1.550   8.043   0.286  2.4032  0.3237  1.4864
  107MOL   H20934341   1.493   8.007   0.443 -0.1833 -3.3588 -1.9533
  107MOL   C21034342   1.350   8.120   0.308  0.5681  0.3257  0.9370
  107MOL   C21134343   1.356   8.202   0.183  0.1322 -0.0393 -0.1918
  107MOL   C21234344   1.420   8.144   0.070  0.2470  0.0972  0.2776
  107MOL   C21334345   1.442   8.218   8.184 -0.4363  0.1641  0.2010
  107MOL   C21434346   1.400   0.117   8.181  0.0065 -0.4787 -0.1166
  107MOL   F21534347   1.416   0.200   8.075 -0.3428  0.0333 -0.3172
  107MOL   C21634348   1.327   0.170   0.055  0.4568  0.0385  0.0320
  107MOL   C21734349   1.310   0.096   0.172 -0.1863 -0.7648 -0.1328
  107MOL   C21834350   1.288   7.979   0.293 -0.5094 -0.7528 -0.3274
  107MOL   H21934351   1.284   8.165   0.383 -0.0394  1.3072 -0.1624
  107MOL   H22034352   1.457   8.044   0.082  1.8660  0.5792 -0.5289
  107MOL   H22134353   1.500   8.180   8.102 -1.0252 -0.3190  0.0081
  107MOL   H22234354   1.309   0.276   0.062  2.2372  0.3186  0.3412
  107MOL   H22334355   1.275   0.141   0.263  0.0770 -1.3792  0.2796
  107MOL   H22434356   1.354   7.918   0.231 -0.3857  0.5510 -1.4875
  107MOL   H22534357   1.290   7.922   0.387  0.5119 -1.1427 -0.5804
  107MOL   C22634358   1.140   7.970   0.235 -0.0372  0.7116  0.3508
  107MOL   C22734359   1.096   7.820   0.207  0.3241 -0.0904  0.0534
  107MOL   C22834360   1.040   7.783   0.077  0.3872 -0.1509  0.6413
  107MOL   C22934361   1.014   7.645   0.045  0.3403  0.3071 -0.5317
  107MOL   C23034362   1.044   7.545   0.140 -0.7723 -0.0699  0.3331
  107MOL   F23134363   1.018   7.414   0.122 -0.0449  0.1882  0.7894
  107MOL   C23234364   1.110   7.578   0.266 -0.1779 -0.4610 -0.5219
  107MOL   C23334365   1.123   7.716   0.299  0.6811  0.3972  0.5466
  107MOL   C23434366   1.034   8.027   0.323 -0.8810  0.0121  0.9454
  107MOL   H23534367   1.142   8.014   0.136  1.1596  0.8668  0.4298
  107MOL   H23634368   1.004   7.867   0.021 -1.0054 -0.7229  0.6595
  107MOL   H23734369   0.980   7.615   8.182 -0.2956 -0.0213 -0.2127
  107MOL   H23834370   1.132   7.501   0.338 -1.7137 -0.4077  0.0127
  107MOL   H23934371   1.166   7.729   0.398 -0.8721 -0.6881  1.3962
  107MOL   H24034372   0.953   7.955   0.337 -1.5510  0.5673  0.0169
  107MOL   H24134373   1.067   8.047   0.425 -1.6114 -0.2293  1.2378
  107MOL   C24234374   0.976   8.163   0.266 -0.2920 -0.0568 -0.4578
  107MOL   C24334375   0.917   8.136   0.132 -0.5937  0.2664 -0.3856
  107MOL   C24434376   0.990   8.174   0.019 -0.2936  0.1280  0.0085
  107MOL   C24534377   0.934   8.156   8.126  0.4752  0.1751 -0.1790
  107MOL   C24634378   0.805   8.084   8.114 -1.2666 -0.3659  0.2601
  107MOL   F24734379   0.753   8.070   7.987  0.3950  0.9666 -0.4591
  107MOL   C24834380   0.747   8.033   8.226  1.0146 -0.9554 -0.0580
  107MOL   C24934381   0.799   8.062   0.120  0.0580  0.0949  0.0524
  107MOL   C25034382   0.880   8.227   0.370 -0.2451 -0.2245  0.3398
  107MOL   H25134383   1.056   0.001   0.262 -1.7432  1.5937 -0.2235
  107MOL   H25234384   1.083   8.226   0.037 -1.9314  3.4877 -0.7600
  107MOL   H25334385   0.996   8.196   8.047 -0.8512  1.6750 -0.4930
  107MOL   H25434386   0.663   7.965   8.214 -0.6407  0.8171  1.1597
  107MOL   H25534387   0.743   8.024   0.205  0.7993  1.5908  1.2241
  107MOL   H25634388   0.809   0.057   0.319  0.6790 -0.4536 -1.2778
  107MOL   H25734389   0.812   8.150   0.407 -0.4632  0.1450  0.6969
  107MOL   C25834390   0.944   0.072   0.489 -0.1754 -0.0706  0.2351
  107MOL   C25934391   1.033   0.181   0.444 -0.1280 -0.0959 -0.0460
  107MOL   C26034392   1.155   0.214   0.512 -0.0959  0.1498 -0.2652
  107MOL   C26134393   1.232   0.323   0.477 -0.2451  0.0229  1.0888
  107MOL   C26234394   1.191   0.408   0.372  0.1410 -0.4648 -0.5301
  107MOL   F26334395   1.255   0.525   0.346 -0.2479 -0.2887 -0.1123
  107MOL   C26434396   1.077   0.374   0.296 -0.0343 -0.2850 -0.0352
  107MOL   C26534397   0.999   0.263   0.339 -0.1359 -0.4989  0.1935
  107MOL   C26634398   0.842   0.128   0.585  1.1129  0.2244 -0.5918
  107MOL   H26734399   1.007   0.004   0.545  0.9794  1.4682  0.8538
  107MOL   H26834400   1.190   0.161   0.599  1.0972  0.7079 -0.3993
  107MOL   H26934401   1.320   0.345   0.536  1.1357 -0.5629 -0.7124
  107MOL   H27034402   1.054   0.422   0.203 -1.0125  0.4741  0.5876
  107MOL   H27134403   0.915   0.235   0.278 -1.3034 -0.2315  1.6501
  107MOL   H27234404   0.875   0.218   0.638  0.2381 -1.1407  2.3599
  107MOL   H27334405   0.754   0.159   0.528 -1.1204  0.7472  2.9806
  107MOL   C27434406   0.772   0.027   0.677 -0.4523  0.5336 -0.5292
  107MOL   C27534407   0.863   8.225   0.799  0.5159 -0.5600 -0.7745
  107MOL   C27634408   0.910   8.091   0.819  0.2735 -0.3621 -0.1182
  107MOL   C27734409   0.985   8.053   0.925 -0.2152 -0.3673 -0.4508
  107MOL   C27834410   1.015   8.149   1.023  0.9222 -0.3648 -0.3121
  107MOL   F27934411   1.090   8.124   1.132 -0.0040  0.0480 -0.4251
  107MOL   C28034412   0.971   0.046   1.014  0.3130 -0.3436 -0.6187
  107MOL   C28134413   0.892   0.085   0.899 -1.0863  0.2106 -0.7699
  107MOL   C28234414   0.635   0.080   0.724 -0.1248  0.0096  0.4796
  107MOL   H28334415   0.754   8.172   0.617  1.9822  0.2466 -0.8832
  107MOL   H28434416   0.881   8.014   0.749 -0.7645 -0.5484  0.5003
  107MOL   H28534417   1.020   7.952   0.939 -1.1786 -0.8272 -1.3013
  107MOL   H28634418   0.991   0.117   1.093  1.9012  1.2479 -2.3751
  107MOL   H28734419   0.858   0.187   0.889  0.6311  0.8000 -0.7120
  107MOL   H28834420   0.603   8.234   0.791  1.8201 -0.9084  0.3471
  107MOL   H28934421   0.648   0.162   0.794 -2.0160  0.1465  0.7094
  107MOL   C29034422   0.515   0.103   0.625  0.0992  0.0269  0.0086
  107MOL   C29134423   0.499   8.212   0.540 -0.5592 -0.4347  0.6023
  107MOL   C29234424   0.520   8.224   0.404 -0.1641 -0.4330  0.3695
  107MOL   C29334425   0.516   8.108   0.322 -0.2538 -0.1783  0.1973
  107MOL   C29434426   0.492   7.986   0.373 -0.7768  0.0288  0.4907
  107MOL   F29534427   0.505   7.873   0.298 -0.1228 -0.2310  0.6229
  107MOL   C29634428   0.459   7.973   0.509 -0.5753 -1.0539  0.0342
  107MOL   C29734429   0.468   8.090   0.594  0.5187 -0.0370  0.7888
  107MOL   C29834430   0.391   0.146   0.694 -0.0627 -0.4152  0.7524
  107MOL   H29934431   0.548   0.179   0.554 -0.3108  0.7428  0.5870
  107MOL   H30034432   0.561   0.079   0.361 -2.2119  0.0938 -0.5436
  107MOL   H30134433   0.544   8.102   0.218  0.5295  0.5772  0.3564
  107MOL   H30234434   0.439   7.876   0.550  2.7099 -0.9121  2.1668
  107MOL   H30334435   0.450   8.074   0.699  0.3239 -2.2273  0.4395
  107MOL   H30434436   0.360   0.069   0.766 -0.4650 -1.4795 -0.5348
  107MOL   H30534437   0.400   0.229   0.764  0.1110 -0.1615  0.4268
  107MOL   C30634438   0.271   0.186   0.607  0.2625  0.0733 -0.2342
  107MOL   C30734439   0.143   0.224   0.684 -0.2884 -0.1257 -0.6347
  107MOL   C30834440   0.123   0.356   0.737 -0.0420  0.8167 -0.1023
  107MOL   C30934441   0.001   0.400   0.789 -0.2023  0.1658 -0.8063
  107MOL   C31034442   8.128   0.308   0.796  0.0586 -0.1740  0.4242
  107MOL   F31134443   8.008   0.342   0.840  0.2593  0.5351  0.4772
  107MOL   C31234444   8.146   0.178   0.756 -0.3640  0.4589  1.3163
  107MOL   C31334445   0.032   0.131   0.700  0.0848  0.0099 -0.2437
  107MOL   C31434446   0.306   0.292   0.502 -0.5972 -0.4910 -0.5097
  107MOL   H31534447   0.235   0.097   0.554 -0.6015  0.7587 -0.8193
  107MOL   H31634448   0.198   0.433   0.737  1.3640 -0.5413  0.1234
  107MOL   H31734449   8.205   0.493   0.836 -0.5113 -0.4021  0.1182
  107MOL   H31834450   8.062   0.110   0.767  0.0139  0.0732  1.8822
  107MOL   H31934451   0.037   0.026   0.674 -0.3713  0.0383 -0.4445
  107MOL   H32034452   0.353   0.376   0.552 -0.1211 -0.8559 -0.3394
  107MOL   H32134453   0.379   0.254   0.431 -3.8302 -2.5850 -2.8799
  107MOL   H32234454   0.220   0.320   0.441 -1.6275 -1.7044  0.3339
  108MOL     C134455   4.229   5.538   5.920  0.0824 -0.2488  0.4347
  108MOL     C234456   4.143   5.638   5.848 -0.3564  0.3747  0.3836
  108MOL     C334457   4.153   5.772   5.870  0.2757  0.4567  0.3951
  108MOL     C434458   4.068   5.869   5.810 -0.0042 -0.0403  0.7007
  108MOL     C534459   3.962   5.821   5.727  0.5206 -1.1093 -0.1096
  108MOL     F634460   3.893   5.910   5.661 -0.0156 -0.7207  0.2913
  108MOL     C734461   3.944   5.685   5.707 -0.5511 -0.5019  0.1876
  108MOL     C834462   4.034   5.596   5.769  0.0055  0.7712  0.2367
  108MOL     C934463   4.362   5.526   5.838 -0.2553  0.0785  0.5499
  108MOL    H1034464   4.181   5.440   5.913 -0.8239  0.0668  2.1072
  108MOL    H1134465   4.222   5.796   5.949  1.8854 -0.4487 -0.6990
  108MOL    H1234466   4.078   5.976   5.821  0.8011 -0.3087  2.7120
  108MOL    H1334467   3.865   5.648   5.643 -0.5127  0.2969 -0.3275
  108MOL    H1434468   4.008   5.491   5.773  0.8306  0.6300  2.1776
  108MOL    H1534469   4.408   5.429   5.857 -0.0791  0.2749  1.1305
  108MOL    H1634470   4.331   5.519   5.733  0.8558 -1.1322  0.2791
  108MOL    H1734471   4.249   5.561   6.024 -0.8914  0.2479  0.5196
  108MOL    C1834472   4.474   5.628   5.867  0.9945 -0.3213 -0.4654
  108MOL    C1934473   4.543   5.582   6.001  0.4375  0.1967 -0.1445
  108MOL    C2034474   4.625   5.469   6.006  0.2237  0.7066 -0.2990
  108MOL    C2134475   4.701   5.427   6.121 -0.3806  0.4289  0.7389
  108MOL    C2234476   4.687   5.512   6.235 -0.8175  0.0394 -0.4795
  108MOL    F2334477   4.741   5.473   6.349 -0.0798 -0.1649  0.1410
  108MOL    C2434478   4.615   5.631   6.227  1.0493 -0.3008 -0.0936
  108MOL    C2534479   4.539   5.664   6.114 -0.2743 -0.0892 -0.4950
  108MOL    C2634480   4.569   5.642   5.751 -0.0078  0.1278 -0.1481
  108MOL    H2734481   4.431   5.727   5.882  0.7522  0.1785 -4.0062
  108MOL    H2834482   4.630   5.402   5.921  0.5691 -1.5731  1.4492
  108MOL    H2934483   4.752   5.332   6.115  0.7957  1.0377  0.9450
  108MOL    H3034484   4.603   5.699   6.310 -0.6065 -0.1451 -0.4461
  108MOL    H3134485   4.477   5.753   6.111  1.0808  0.8481 -2.0660
  108MOL    H3234486   4.670   5.670   5.783  0.1452  1.2465 -1.5859
  108MOL    H3334487   4.588   5.550   5.696 -1.7728 -0.9815  1.0306
  108MOL    C3434488   4.526   5.748   5.648 -0.0225  0.3420  0.3003
  108MOL    C3534489   4.551   5.885   5.707  0.4638 -0.1116 -0.0342
  108MOL    C3634490   4.442   5.972   5.742 -0.3604  0.0582  0.2628
  108MOL    C3734491   4.460   6.097   5.794 -0.1341  0.2779 -0.2036
  108MOL    C3834492   4.591   6.136   5.825 -0.7154  0.5479 -0.0124
  108MOL    F3934493   4.618   6.259   5.871 -0.4116  0.3949  0.2360
  108MOL    C4034494   4.701   6.050   5.802 -0.4334  0.5297 -0.5769
  108MOL    C4134495   4.684   5.929   5.736 -0.4279 -0.1688  0.2260
  108MOL    C4234496   4.593   5.731   5.513  0.9245  0.5760 -0.0754
  108MOL    H4334497   4.417   5.740   5.648  0.0285 -0.4292 -1.2334
  108MOL    H4434498   4.340   5.944   5.720  0.0312 -3.1894  2.2971
  108MOL    H4534499   4.371   6.157   5.806  0.5585  0.7007  3.5399
  108MOL    H4634500   4.796   6.097   5.825  0.1968 -0.9200 -0.1481
  108MOL    H4734501   4.771   5.873   5.706 -1.1371 -1.3988  0.4362
  108MOL    H4834502   4.696   5.763   5.498  0.6839  1.1495 -0.5652
  108MOL    H4934503   4.590   5.625   5.490  0.7068  0.8370 -1.2831
  108MOL    C5034504   4.521   5.796   5.393 -0.9746 -0.1880 -0.0890
  108MOL    C5134505   4.513   5.949   5.392  0.4834 -0.3775 -0.9406
  108MOL    C5234506   4.635   6.026   5.386  0.3141  0.4048  0.6089
  108MOL    C5334507   4.631   6.165   5.371 -0.1887  0.3202  0.4818
  108MOL    C5434508   4.505   6.226   5.386  0.2549  0.3305  0.2674
  108MOL    F5534509   4.499   6.359   5.391 -0.4105  0.2451 -0.4478
  108MOL    C5634510   4.390   6.158   5.420  0.2685  0.4558 -0.5287
  108MOL    C5734511   4.396   6.017   5.424 -0.6004  0.2307 -0.5979
  108MOL    C5834512   4.582   5.744   5.260  0.1680  0.0633  0.6191
  108MOL    H5934513   4.417   5.768   5.410 -1.2181  1.6118  1.5313
  108MOL    H6034514   4.737   5.992   5.381  0.8568  1.4315  3.6231
  108MOL    H6134515   4.720   6.225   5.365 -0.7555  0.9423 -2.6480
  108MOL    H6234516   4.291   6.200   5.427  0.5389  0.7068  2.4882
  108MOL    H6334517   4.307   5.959   5.440 -0.3176  0.2166  1.0197
  108MOL    H6434518   4.686   5.777   5.254  0.5636 -1.1506  0.6800
  108MOL    H6534519   4.576   5.635   5.258 -1.9725  0.1901 -0.5411
  108MOL    C6634520   4.519   5.791   5.126 -1.0170  0.1793 -0.5726
  108MOL    C6734521   4.621   5.770   5.006 -0.5184 -0.0085 -0.1274
  108MOL    C6834522   4.685   5.648   4.986  0.6555 -0.3349 -0.7710
  108MOL    C6934523   4.771   5.637   4.877 -0.9169  0.8573  0.3454
  108MOL    C7034524   4.806   5.744   4.798 -0.3336 -0.0625 -0.1208
  108MOL    F7134525   4.896   5.735   4.701  0.4752 -0.3713  0.0231
  108MOL    C7234526   4.747   5.873   4.817 -0.3199 -0.2050 -0.3920
  108MOL    C7334527   4.659   5.883   4.926 -0.4581  0.0513  0.1754
  108MOL    C7434528   4.387   5.727   5.113  0.9904  0.3161  0.8551
  108MOL    H7534529   4.510   5.900   5.135 -0.5458  0.2086 -0.4303
  108MOL    H7634530   4.656   5.563   5.047  1.0314  0.4004  0.4397
  108MOL    H7734531   4.817   5.540   4.878  1.3594  1.8860 -0.5111
  108MOL    H7834532   4.775   5.965   4.768  2.1025 -1.1946 -0.9663
  108MOL    H7934533   4.614   5.980   4.937  1.3384  1.1442 -1.6235
  108MOL    H8034534   4.394   5.618   5.109  1.9878  0.4205 -0.7040
  108MOL    H8134535   4.325   5.738   5.202 -1.6346 -0.9646 -0.7491
  108MOL    C8234536   4.294   5.777   4.998 -0.5894 -0.0556  0.4121
  108MOL    C8334537   4.184   5.676   4.975 -0.5103 -0.3916 -0.3989
  108MOL    C8434538   4.171   5.635   4.839  0.0835 -0.4218 -0.6761
  108MOL    C8534539   4.069   5.540   4.805 -0.9282  0.1082 -0.1047
  108MOL    C8634540   3.990   5.484   4.903 -0.9069 -0.4690  0.9010
  108MOL    F8734541   3.887   5.410   4.863  0.0350 -0.3518  0.6800
  108MOL    C8834542   3.996   5.530   5.030  0.0585  0.1191 -0.5409
  108MOL    C8934543   4.094   5.621   5.073 -0.7271  0.3802  0.2278
  108MOL    C9034544   4.241   5.917   5.026  0.4258  0.0722  0.5220
  108MOL    H9134545   4.348   5.787   4.904 -0.5296 -1.9333  0.2428
  108MOL    H9234546   4.231   5.674   4.758 -1.3246  0.7589 -1.1805
  108MOL    H9334547   4.054   5.506   4.704  1.0884 -0.9649 -0.0783
  108MOL    H9434548   3.918   5.500   5.099  2.1437 -3.0358  0.5537
  108MOL    H9534549   4.096   5.662   5.173 -1.5575 -0.4049  0.5629
  108MOL    H9634550   4.165   5.916   5.104  0.9428  0.6888  1.0401
  108MOL    H9734551   4.322   5.982   5.058 -0.9777  0.6056  3.0517
  108MOL    C9834552   4.170   5.982   4.903 -0.3508  0.3056 -0.0180
  108MOL    C9934553   4.043   6.058   4.938 -0.6434 -0.0757 -0.7105
  108MOL   C10034554   3.921   5.980   4.943 -0.5043  0.0912  0.7300
  108MOL   C10134555   3.800   6.041   4.975  0.4620 -0.0369  0.3119
  108MOL   C10234556   3.797   6.165   5.019 -0.5442 -0.0942 -0.0200
  108MOL   F10334557   3.688   6.231   5.069  0.0462 -0.1157 -0.1407
  108MOL   C10434558   3.914   6.244   5.021  0.2616  0.2393  0.3936
  108MOL   C10534559   4.038   6.185   4.983  0.6679 -0.1390 -0.0521
  108MOL   C10634560   4.261   6.066   4.804 -0.0114 -0.4418  0.2084
  108MOL   H10734561   4.145   5.893   4.845  1.3247  1.3457 -2.4227
  108MOL   H10834562   3.925   5.883   4.896 -1.6157 -0.0979  1.0009
  108MOL   H10934563   3.711   5.979   4.973  1.0391 -0.8699 -0.2394
  108MOL   H11034564   3.905   6.349   5.042 -2.0964 -0.3429  2.4832
  108MOL   H11134565   4.130   6.241   4.991  1.0473 -0.5752 -1.1776
  108MOL   H11234566   4.304   6.154   4.851  0.6501 -0.7230  0.1360
  108MOL   H11334567   4.350   6.003   4.796 -2.1441 -3.4594 -0.5897
  108MOL   C11434568   4.213   6.091   4.657  0.0538  0.3775 -0.0086
  108MOL   C11534569   4.279   6.208   4.590  0.3666  0.3111  0.1395
  108MOL   C11634570   4.416   6.221   4.582 -0.2663 -0.4548  0.2591
  108MOL   C11734571   4.479   6.331   4.527 -0.2420 -0.2739  0.0173
  108MOL   C11834572   4.394   6.419   4.454  0.1284  0.5666 -0.3923
  108MOL   F11934573   4.448   6.522   4.387 -0.0256 -0.1816 -0.2610
  108MOL   C12034574   4.253   6.408   4.452 -0.3049  0.3040 -0.5193
  108MOL   C12134575   4.197   6.304   4.533  0.5329 -0.2181  0.7001
  108MOL   C12234576   4.235   5.960   4.575 -0.1662  0.6177 -0.9087
  108MOL   H12334577   4.108   6.110   4.680 -0.5453 -2.9809  0.3201
  108MOL   H12434578   4.474   6.149   4.638 -1.2491 -1.5555 -0.1158
  108MOL   H12534579   4.586   6.336   4.537 -0.1338 -2.0264 -0.1004
  108MOL   H12634580   4.194   6.482   4.402  0.3893  0.4117 -1.1866
  108MOL   H12734581   4.090   6.304   4.547  0.7232  1.6064  2.2483
  108MOL   H12834582   4.342   5.938   4.576 -0.3818 -0.5019 -1.0389
  108MOL   H12934583   4.183   5.876   4.620  0.8060  0.4330 -0.1218
  108MOL   C13034584   4.182   5.965   4.435 -0.1515 -0.4067  0.1410
  108MOL   C13134585   4.241   5.852   4.349  0.0639  0.5306 -0.0106
  108MOL   C13234586   4.268   5.874   4.212  0.4774 -0.3320  0.6018
  108MOL   C13334587   4.309   5.772   4.125 -0.0684 -0.6599 -0.1539
  108MOL   C13434588   4.320   5.643   4.179  0.2011  0.4873  0.5011
  108MOL   F13534589   4.372   5.533   4.109 -0.6274 -0.0605  0.0278
  108MOL   C13634590   4.308   5.618   4.316  0.3357  0.2151  0.0798
  108MOL   C13734591   4.261   5.719   4.399 -0.2368 -0.0426 -0.1033
  108MOL   C13834592   4.022   5.954   4.439 -0.0991 -0.2666  0.5560
  108MOL   H13934593   4.211   6.057   4.385 -0.1398 -0.8199 -0.6335
  108MOL   H14034594   4.257   5.976   4.178 -1.3728 -0.2133  1.4756
  108MOL   H14134595   4.310   5.791   4.018 -1.4325 -0.6121 -0.1662
  108MOL   H14234596   4.353   5.531   4.362  1.6487  0.9252  0.1674
  108MOL   H14334597   4.255   5.693   4.504 -0.8042 -0.4610 -0.2362
  108MOL   H14434598   4.000   5.853   4.471 -3.3187 -0.3283 -1.5752
  108MOL   H14534599   3.980   6.020   4.515  0.9762  1.1067 -0.0077
  108MOL   C14634600   3.945   5.972   4.304  0.6698  0.1011 -1.0253
  108MOL   C14734601   3.823   5.885   4.319 -0.4269  0.5109  0.1283
  108MOL   C14834602   3.837   5.758   4.255  0.1208  0.3528  0.0176
  108MOL   C14934603   3.724   5.668   4.253 -0.9992  0.2753  0.4118
  108MOL   C15034604   3.605   5.710   4.322  0.2773  0.1746  0.0768
  108MOL   F15134605   3.501   5.625   4.313 -0.2891 -0.0184 -0.0594
  108MOL   C15234606   3.600   5.830   4.387  0.1526  0.1475 -0.2091
  108MOL   C15334607   3.705   5.921   4.383 -0.6117  0.2760 -0.4877
  108MOL   C15434608   3.906   6.121   4.277 -0.6556 -0.7398  0.8421
  108MOL   H15534609   3.994   5.936   4.214 -0.0585 -0.0394 -1.3693
  108MOL   H15634610   3.920   5.740   4.188 -0.8620 -0.3509 -1.0235
  108MOL   H15734611   3.735   5.572   4.205  0.1099  0.7899 -0.3755
  108MOL   H15834612   3.506   5.859   4.432 -0.4616 -2.3901  0.2230
  108MOL   H15934613   3.695   6.016   4.433  1.0572 -0.6644  1.7167
  108MOL   H16034614   3.837   6.127   4.192  2.1912  0.3007 -1.4883
  108MOL   H16134615   3.846   6.157   4.360  1.3603  2.7112  0.9162
  108MOL   C16234616   4.018   6.216   4.224 -0.0037  1.1383 -0.5321
  108MOL   C16334617   4.099   6.166   4.102 -1.1225 -0.8671 -0.1427
  108MOL   C16434618   4.046   6.087   3.994 -0.1951 -0.4894  0.1481
  108MOL   C16534619   4.110   6.069   3.869  0.6071  0.2925 -0.1078
  108MOL   C16634620   4.243   6.123   3.858 -0.5764 -0.1860 -0.0307
  108MOL   F16734621   4.308   6.119   3.736 -0.8226 -0.4475  0.1149
  108MOL   C16834622   4.305   6.192   3.970  0.3724 -0.8273 -0.7102
  108MOL   C16934623   4.228   6.217   4.091 -0.7860 -0.2618 -0.2058
  108MOL   C17034624   3.981   6.368   4.205 -0.1606 -0.3657 -0.6553
  108MOL   H17134625   4.085   6.227   4.309 -0.5541  1.2444 -0.1031
  108MOL   H17234626   3.944   6.057   4.010 -0.3929  1.1373  2.1906
  108MOL   H17334627   4.055   6.028   3.786  0.3012  3.1358 -1.3857
  108MOL   H17434628   4.407   6.228   3.963  0.7326 -1.8936 -1.1927
  108MOL   H17534629   4.276   6.269   4.172  0.0035 -0.0912 -0.7756
  108MOL   H17634630   3.922   6.393   4.293  0.7673 -1.5638  0.3297
  108MOL   H17734631   4.073   6.423   4.222 -1.3874  1.6034 -0.2226
  108MOL   C17834632   3.906   6.407   4.074  0.4678  0.2576  0.3609
  108MOL   C17934633   3.764   6.345   4.052  0.0147  0.4446  0.5562
  108MOL   C18034634   3.734   6.276   3.926  0.0377  0.3620 -0.1042
  108MOL   C18134635   3.610   6.214   3.906  0.5232 -1.0560 -0.1500
  108MOL   C18234636   3.522   6.211   4.019 -0.7195  0.0659  0.0728
  108MOL   F18334637   3.406   6.144   3.995  0.4173 -0.3321 -0.1010
  108MOL   C18434638   3.548   6.270   4.140 -0.0007  0.8062 -0.0194
  108MOL   C18534639   3.671   6.340   4.157  0.3953  0.2775  0.5170
  108MOL   C18634640   3.899   6.560   4.062 -0.3185 -0.4078  0.0770
  108MOL   H18734641   3.969   6.364   3.996  0.3232  0.8624 -0.0917
  108MOL   H18834642   3.802   6.264   3.843 -1.5750 -0.4486 -1.3553
  108MOL   H18934643   3.583   6.164   3.815  1.5766 -0.5641 -0.7444
  108MOL   H19034644   3.465   6.288   4.207  0.3084  0.5592  0.4312
  108MOL   H19134645   3.681   6.409   4.240 -3.9751  2.1113 -0.3199
  108MOL   H19234646   3.822   6.597   3.994  0.6540  3.3326  0.8711
  108MOL   H19334647   3.869   6.599   4.159 -0.4180 -0.9697  0.2719
  108MOL   C19434648   4.026   6.647   4.028  0.2144 -0.5483  0.1804
  108MOL   C19534649   4.101   6.577   3.910 -0.3242  0.0839 -0.1510
  108MOL   C19634650   4.237   6.542   3.922  0.4765  0.2318  0.0708
  108MOL   C19734651   4.306   6.505   3.807 -0.1534 -0.4067 -0.2341
  108MOL   C19834652   4.233   6.490   3.683 -0.0343  0.1308  0.7274
  108MOL   F19934653   4.304   6.461   3.571 -0.0285  0.7282  0.0244
  108MOL   C20034654   4.099   6.516   3.672  0.1816  0.3781 -0.5917
  108MOL   C20134655   4.031   6.566   3.784 -0.0960 -0.1059 -0.4968
  108MOL   C20234656   3.998   6.797   4.003 -0.2278 -0.2484 -0.0928
  108MOL   H20334657   4.098   6.642   4.110 -2.7366 -2.3340  2.8000
  108MOL   H20434658   4.287   6.563   4.015 -2.5168 -0.7097  1.9956
  108MOL   H20534659   4.412   6.484   3.814 -0.0640  0.6691  2.0769
  108MOL   H20634660   4.052   6.514   3.575 -1.1813 -2.7929  0.0867
  108MOL   H20734661   3.928   6.597   3.780 -0.7292 -1.9123  1.1697
  108MOL   H20834662   4.092   6.840   3.970  0.2844 -2.0439 -1.0529
  108MOL   H20934663   3.925   6.818   3.925  0.8760  0.3335 -0.9615
  108MOL   C21034664   3.953   6.880   4.125 -0.5644  0.1169 -0.1082
  108MOL   C21134665   4.022   6.842   4.254 -0.8676 -0.5757  0.2151
  108MOL   C21234666   3.951   6.805   4.370  0.3984  0.3192 -0.4231
  108MOL   C21334667   4.013   6.755   4.486  0.3369 -0.1974  0.1018
  108MOL   C21434668   4.149   6.746   4.495 -0.4236  0.0538  0.3068
  108MOL   F21534669   4.201   6.685   4.601 -0.1143  0.6795 -0.1050
  108MOL   C21634670   4.228   6.796   4.390 -0.5427 -0.2344 -0.0442
  108MOL   C21734671   4.163   6.841   4.272  0.5941 -0.0623  0.8362
  108MOL   C21834672   3.965   7.033   4.111  0.1800 -0.1213  0.3324
  108MOL   H21934673   3.849   6.851   4.138  0.2668 -1.7153  2.8737
  108MOL   H22034674   3.843   6.812   4.364  0.3497 -0.7656 -0.9642
  108MOL   H22134675   3.965   6.716   4.574  0.1011 -1.4515 -0.5713
  108MOL   H22234676   4.334   6.774   4.398 -0.5229  0.2297  1.0624
  108MOL   H22334677   4.230   6.872   4.193 -0.1360 -3.4692 -1.2117
  108MOL   H22434678   3.959   7.092   4.203  0.3296 -1.4478  1.1975
  108MOL   H22534679   4.060   7.073   4.076 -0.7984  3.0592  1.0728
  108MOL   C22634680   3.859   7.103   4.018 -0.1892  0.1344 -0.5721
  108MOL   C22734681   3.714   7.087   4.071  0.5763  0.2171 -0.0335
  108MOL   C22834682   3.616   7.043   3.984 -0.0102  0.8437 -0.0805
  108MOL   C22934683   3.484   7.023   4.036  0.2511 -0.6002  0.4915
  108MOL   C23034684   3.466   7.033   4.170  0.4170 -0.4890 -0.1496
  108MOL   F23134685   3.345   7.004   4.218  0.4582 -0.5672 -0.0805
  108MOL   C23234686   3.563   7.071   4.262 -0.2955  0.6602 -0.1834
  108MOL   C23334687   3.690   7.105   4.211  0.1600 -0.3410  0.1453
  108MOL   C23434688   3.890   7.254   3.999 -0.1361  0.1786 -0.2470
  108MOL   H23534689   3.868   7.063   3.917  0.9067 -4.1370  1.0841
  108MOL   H23634690   3.635   7.029   3.879 -1.5066 -1.4438 -0.0679
  108MOL   H23734691   3.402   6.993   3.972  0.5384 -1.5786  0.5694
  108MOL   H23834692   3.530   7.076   4.365 -0.4701 -0.6621 -0.1631
  108MOL   H23934693   3.767   7.141   4.276  2.1299 -2.0909 -1.1577
  108MOL   H24034694   3.889   7.313   4.091  1.1492  1.0134 -0.7562
  108MOL   H24134695   3.992   7.274   3.966  0.3986 -0.6361  0.8755
  108MOL   C24234696   3.803   7.333   3.896  0.7820 -0.0959  0.3480
  108MOL   C24334697   3.768   7.471   3.942 -0.1465  0.1349  0.1114
  108MOL   C24434698   3.817   7.588   3.870  0.1038  0.1922  0.2423
  108MOL   C24534699   3.776   7.718   3.902 -0.2671 -0.0472  0.1848
  108MOL   C24634700   3.699   7.736   4.018 -0.0648  0.4246 -0.9931
  108MOL   F24734701   3.647   7.860   4.048  0.0987  0.3360  0.0486
  108MOL   C24834702   3.677   7.622   4.105  0.5065 -0.3094 -0.4293
  108MOL   C24934703   3.700   7.493   4.061  0.8951  0.3491 -0.0747
  108MOL   C25034704   3.834   7.318   3.747  0.3337  0.5305  1.3798
  108MOL   H25134705   3.707   7.284   3.911  1.1433 -0.7944  0.4410
  108MOL   H25234706   3.876   7.573   3.781  0.4280 -1.1690  0.6794
  108MOL   H25334707   3.799   7.805   3.842  1.7977 -0.1221  0.8202
  108MOL   H25434708   3.618   7.641   4.194 -1.2593 -1.8537 -1.2434
  108MOL   H25534709   3.671   7.406   4.118 -0.3096  1.0964  0.4575
  108MOL   H25634710   3.787   7.224   3.719 -0.0629  0.6592  1.6119
  108MOL   H25734711   3.771   7.391   3.698 -0.3351 -1.1086 -0.2768
  108MOL   C25834712   3.979   7.331   3.692  0.3375 -0.3123 -0.0317
  108MOL   C25934713   4.071   7.206   3.720 -0.4628  0.6472 -0.0855
  108MOL   C26034714   4.206   7.225   3.757  0.4041 -0.6009 -0.1796
  108MOL   C26134715   4.291   7.117   3.793 -0.3389  0.0027 -0.2327
  108MOL   C26234716   4.233   6.980   3.779 -0.2681 -0.0799 -0.6613
  108MOL   F26334717   4.304   6.872   3.800 -0.1840 -0.0454 -0.4448
  108MOL   C26434718   4.102   6.966   3.725 -0.1653 -0.3765  0.4385
  108MOL   C26534719   4.022   7.077   3.695 -0.3221  0.3207  0.1128
  108MOL   C26634720   3.972   7.340   3.534 -0.1504  0.4311  0.6289
  108MOL   H26734721   4.034   7.415   3.735 -1.9688  1.8967 -1.2300
  108MOL   H26834722   4.253   7.322   3.757 -0.4045 -0.1749  2.6245
  108MOL   H26934723   4.395   7.132   3.816  0.2543  0.9173 -3.3539
  108MOL   H27034724   4.064   6.865   3.717 -0.4022 -0.3477  1.1593
  108MOL   H27134725   3.925   7.055   3.654  0.1196  0.3865 -1.0039
  108MOL   H27234726   4.067   7.297   3.504 -0.0742  0.3875  0.9319
  108MOL   H27334727   3.894   7.278   3.490  0.0828  0.4090  0.2373
  108MOL   C27434728   3.975   7.479   3.475  0.4582  0.2003 -0.0007
  108MOL   C27534729   4.089   7.565   3.531  0.8980 -0.3343  0.7045
  108MOL   C27634730   4.063   7.699   3.565 -0.3125 -0.1401 -0.3386
  108MOL   C27734731   4.169   7.789   3.604  0.2688 -0.2504 -0.7073
  108MOL   C27834732   4.298   7.740   3.620 -0.1714  0.3632 -0.8385
  108MOL   F27934733   4.404   7.811   3.674 -0.1139 -0.0438 -0.9750
  108MOL   C28034734   4.314   7.605   3.593  0.5128  0.2916  0.8781
  108MOL   C28134735   4.217   7.511   3.545 -0.2153 -0.1301 -0.0049
  108MOL   C28234736   3.967   7.476   3.316  0.8246 -0.4529 -0.1731
  108MOL   H28334737   3.885   7.532   3.506 -0.6588 -1.2519 -0.7302
  108MOL   H28434738   3.965   7.744   3.558 -1.0068 -1.5649 -0.0218
  108MOL   H28534739   4.139   7.888   3.635  2.2927  0.8340 -2.1020
  108MOL   H28634740   4.414   7.572   3.618  0.2035 -1.5863 -0.2785
  108MOL   H28734741   4.250   7.410   3.524  2.2085  0.1983  1.9092
  108MOL   H28834742   4.052   7.414   3.287  1.0716 -0.1232 -0.1529
  108MOL   H28934743   3.883   7.418   3.276 -0.7417  0.9145  1.0631
  108MOL   C29034744   3.970   7.614   3.244  1.0975 -0.1013  0.0797
  108MOL   C29134745   4.014   7.595   3.098 -0.1305  1.0965  0.0157
  108MOL   C29234746   4.116   7.671   3.043 -0.4477  0.7301  0.4502
  108MOL   C29334747   4.155   7.649   2.905  0.0144 -0.3132 -0.0238
  108MOL   C29434748   4.084   7.550   2.834 -0.5994  0.7160  0.5465
  108MOL   F29534749   4.124   7.522   2.708  0.1902  0.3172 -0.0940
  108MOL   C29634750   3.981   7.475   2.897 -0.3620  0.7955  0.1951
  108MOL   C29734751   3.943   7.494   3.031  0.9080  0.0516  0.4332
  108MOL   C29834752   3.834   7.684   3.247 -0.2866  0.0426  0.9577
  108MOL   H29934753   4.038   7.674   3.304  0.5492  0.3789  0.2303
  108MOL   H30034754   4.169   7.746   3.100  1.3756  0.0729 -0.3567
  108MOL   H30134755   4.241   7.695   2.860  1.2007 -2.1445  0.3038
  108MOL   H30234756   3.933   7.392   2.848  0.4727  0.7832 -0.6150
  108MOL   H30334757   3.863   7.436   3.073  1.0056  0.7680  1.6101
  108MOL   H30434758   3.765   7.615   3.199  3.9019 -4.5129  1.1501
  108MOL   H30534759   3.806   7.696   3.351  0.7300 -1.1688  1.3766
  108MOL   C30634760   3.838   7.821   3.174  0.1667 -0.0779 -0.0454
  108MOL   C30734761   3.703   7.861   3.107 -0.0082 -0.3099  0.6890
  108MOL   C30834762   3.584   7.827   3.173  0.2728  0.5440 -0.5553
  108MOL   C30934763   3.458   7.856   3.117  0.3334  0.6384  0.6686
  108MOL   C31034764   3.456   7.913   2.986 -0.4421 -0.0149 -0.1134
  108MOL   F31134765   3.339   7.949   2.932 -0.0655  0.8105 -0.2748
  108MOL   C31234766   3.573   7.934   2.913 -0.4179 -0.0956  0.7991
  108MOL   C31334767   3.699   7.908   2.965 -0.5143 -0.6806  0.2146
  108MOL   C31434768   3.884   7.939   3.258  0.0141  0.2723  0.0040
  108MOL   H31534769   3.891   7.817   3.079 -2.0570  1.7982 -1.4215
  108MOL   H31634770   3.583   7.783   3.272 -1.4620  2.7596  0.4709
  108MOL   H31734771   3.373   7.849   3.182  0.3465  1.7722  0.8118
  108MOL   H31834772   3.558   7.968   2.812 -2.4318  0.4369  1.2518
  108MOL   H31934773   3.784   7.910   2.899  0.0900 -1.0711  0.9734
  108MOL   H32034774   3.846   7.949   3.359 -1.9335 -1.2459 -0.5263
  108MOL   H32134775   3.993   7.945   3.251 -0.2114  1.1967 -3.8676
  108MOL   H32234776   3.857   8.032   3.208 -0.9028  0.4387  0.7987
  109MOL     C134777   4.442   6.271   3.098  0.2307 -0.2312  0.2645
  109MOL     C234778   4.529   6.268   3.227  0.3088 -0.0570  0.3085
  109MOL     C334779   4.665   6.301   3.231 -0.2874 -0.3263 -0.3685
  109MOL     C434780   4.744   6.293   3.347 -0.3242 -0.4671  0.0926
  109MOL     C534781   4.685   6.255   3.465 -0.2077  0.3354 -1.0802
  109MOL     F634782   4.761   6.240   3.577  0.3838 -0.5824 -0.3706
  109MOL     C734783   4.546   6.223   3.472  0.6639 -0.2454 -0.0156
  109MOL     C834784   4.468   6.225   3.353  0.5381 -0.5338  0.6412
  109MOL     C934785   4.366   6.144   3.064 -0.5194 -0.2050 -0.0580
  109MOL    H1034786   4.506   6.304   3.016 -0.7685  0.6966 -0.1475
  109MOL    H1134787   4.727   6.322   3.145 -0.4434  0.8695 -0.1886
  109MOL    H1234788   4.849   6.318   3.344 -0.0592 -1.6536 -1.4836
  109MOL    H1334789   4.507   6.194   3.568  1.8996  0.5927  0.7696
  109MOL    H1434790   4.364   6.197   3.363  0.6256 -0.8534  0.6575
  109MOL    H1534791   4.415   6.056   3.106 -1.2739  0.8188  3.0612
  109MOL    H1634792   4.275   6.149   3.123  0.3762  1.0725  1.2334
  109MOL    H1734793   4.362   6.342   3.115  0.1734 -0.4846  1.0521
  109MOL    C1834794   4.339   6.100   2.916  0.1497 -0.5220 -0.5183
  109MOL    C1934795   4.230   6.185   2.857  0.4395  0.4604 -0.1209
  109MOL    C2034796   4.097   6.150   2.886  0.1577  0.3808 -0.2732
  109MOL    C2134797   3.992   6.230   2.835  0.5841 -0.4398  0.2224
  109MOL    C2234798   4.023   6.343   2.752  0.4377 -1.1984  0.3704
  109MOL    F2334799   3.919   6.423   2.717  0.4986  0.0574 -0.2299
  109MOL    C2434800   4.154   6.379   2.724 -0.8266 -0.2894  0.3022
  109MOL    C2534801   4.258   6.296   2.779 -0.7236  0.7132 -0.4625
  109MOL    C2634802   4.452   6.077   2.815  0.2980 -0.2847  0.0737
  109MOL    H2734803   4.309   5.995   2.923  1.7335 -0.9960 -0.7325
  109MOL    H2834804   4.078   6.069   2.955  2.9119 -0.5160 -0.5156
  109MOL    H2934805   3.888   6.210   2.856  0.1759  0.9872 -0.3516
  109MOL    H3034806   4.179   6.466   2.666 -2.6370 -0.1379 -0.2711
  109MOL    H3134807   4.361   6.329   2.768  0.4113 -1.9769  1.4620
  109MOL    H3234808   4.412   6.037   2.722 -1.9563 -1.0519  1.3185
  109MOL    H3334809   4.500   6.170   2.785 -0.7209  0.7261  1.4814
  109MOL    C3434810   4.567   5.990   2.867  0.7195 -0.8231  0.6230
  109MOL    C3534811   4.523   5.854   2.911  0.7272  0.1065 -0.1033
  109MOL    C3634812   4.525   5.820   3.048  0.2725 -0.2806  0.2919
  109MOL    C3734813   4.480   5.698   3.088 -0.4872 -0.1385 -0.0775
  109MOL    C3834814   4.446   5.591   2.996  0.2534 -0.1586 -0.4775
  109MOL    F3934815   4.413   5.464   3.042 -0.1896  0.0167  0.6906
  109MOL    C4034816   4.451   5.622   2.858 -0.0133 -0.7787  0.6578
  109MOL    C4134817   4.484   5.756   2.817  0.8009 -0.7071 -0.2235
  109MOL    C4234818   4.684   5.997   2.758 -0.1191 -0.0588 -0.5116
  109MOL    H4334819   4.602   6.037   2.959  0.6228 -0.0047  0.2531
  109MOL    H4434820   4.567   5.892   3.116  0.8331 -1.0033  0.7094
  109MOL    H4534821   4.484   5.665   3.190 -1.3702 -0.0192  0.0037
  109MOL    H4634822   4.417   5.539   2.798  1.9009 -1.7811  0.9059
  109MOL    H4734823   4.496   5.768   2.710  0.0379 -0.2981 -0.2650
  109MOL    H4834824   4.727   5.898   2.745  1.3801  0.5409 -0.2161
  109MOL    H4934825   4.649   6.011   2.656 -0.2072 -0.0247 -0.4763
  109MOL    C5034826   4.799   6.101   2.786  0.5257 -0.1413 -0.6963
  109MOL    C5134827   4.895   6.049   2.893 -0.0343 -0.1519 -0.4938
  109MOL    C5234828   4.966   5.931   2.871 -0.6919  0.0098  0.2467
  109MOL    C5334829   5.037   5.878   2.981  0.1865  0.0687  0.3782
  109MOL    C5434830   5.037   5.944   3.106  0.1538 -0.6281  0.3953
  109MOL    F5534831   5.110   5.896   3.208  0.3348 -0.1325 -0.4832
  109MOL    C5634832   4.971   6.065   3.125  0.2734  0.0315 -0.4673
  109MOL    C5734833   4.901   6.120   3.015  0.4907  0.2663  0.7740
  109MOL    C5834834   4.872   6.150   2.656 -0.0427 -0.1442  0.2209
  109MOL    H5934835   4.764   6.188   2.841  0.8523  0.3625 -1.2792
  109MOL    H6034836   4.978   5.888   2.773  0.0250 -2.7249  1.4887
  109MOL    H6134837   5.111   5.803   2.953 -0.4046  0.0911 -1.3304
  109MOL    H6234838   4.983   6.115   3.220 -1.7071  0.5742 -0.4948
  109MOL    H6334839   4.856   6.217   3.024 -0.1734 -0.0134  0.4637
  109MOL    H6434840   4.972   6.186   2.684 -0.2611 -0.9183  2.0725
  109MOL    H6534841   4.894   6.062   2.596 -1.1035 -0.5878  0.4742
  109MOL    C6634842   4.799   6.258   2.580 -0.6068  0.3548 -0.6024
  109MOL    C6734843   4.771   6.384   2.659 -0.2329  0.4658  0.3097
  109MOL    C6834844   4.871   6.475   2.688  0.1076 -0.3127 -0.0058
  109MOL    C6934845   4.838   6.592   2.760 -0.4332 -0.0747 -0.0709
  109MOL    C7034846   4.710   6.611   2.813  0.0069  0.5684 -0.3145
  109MOL    F7134847   4.681   6.723   2.890  0.2162  0.3348  0.3989
  109MOL    C7234848   4.607   6.523   2.769  0.0128 -1.0829  1.3196
  109MOL    C7334849   4.639   6.403   2.701 -0.3893 -0.4156 -0.0810
  109MOL    C7434850   4.889   6.288   2.459  0.5216  0.1272  0.4157
  109MOL    H7534851   4.707   6.222   2.536  0.1852  0.6290 -2.5310
  109MOL    H7634852   4.971   6.458   2.651  0.0428  1.6565 -1.1881
  109MOL    H7734853   4.909   6.670   2.782 -1.4329  0.4876  1.2404
  109MOL    H7834854   4.502   6.535   2.788 -0.4389  0.5680 -1.9466
  109MOL    H7934855   4.562   6.331   2.680  0.7620 -1.5366 -0.5625
  109MOL    H8034856   4.856   6.381   2.414  0.8748  0.1495  0.1948
  109MOL    H8134857   4.995   6.288   2.485  1.0527 -0.3410 -1.5918
  109MOL    C8234858   4.883   6.184   2.342 -0.5057  0.1185  0.0881
  109MOL    C8334859   4.740   6.175   2.285 -0.0182  0.4135  0.4643
  109MOL    C8434860   4.682   6.284   2.219  0.1267 -0.4140 -0.0972
  109MOL    C8534861   4.562   6.269   2.149  0.4706  0.6224  0.2710
  109MOL    C8634862   4.502   6.140   2.149 -0.4244 -0.5514  0.0570
  109MOL    F8734863   4.393   6.125   2.073  0.3014 -0.0929  0.3625
  109MOL    C8834864   4.547   6.030   2.229  0.2954  0.8102 -0.1251
  109MOL    C8934865   4.668   6.050   2.297  0.1023  0.0062 -0.4650
  109MOL    C9034866   4.988   6.202   2.225  0.2505 -0.0321  0.3796
  109MOL    H9134867   4.891   6.086   2.389  1.8038 -0.3365 -1.1959
  109MOL    H9234868   4.729   6.381   2.219 -0.3440 -0.1796 -0.9030
  109MOL    H9334869   4.525   6.339   2.075 -0.3556 -0.7763 -0.6673
  109MOL    H9434870   4.494   5.936   2.224 -2.5239  2.2699  1.6909
  109MOL    H9534871   4.706   5.974   2.364 -0.5503  0.0713 -0.0203
  109MOL    H9634872   4.951   6.141   2.143 -3.3314  2.8998 -0.2907
  109MOL    H9734873   4.985   6.303   2.184 -0.7488 -0.5046 -0.7496
  109MOL    C9834874   5.130   6.162   2.278 -0.1192 -0.9610  0.0190
  109MOL    C9934875   5.137   6.040   2.365 -0.0506 -0.4578 -0.1738
  109MOL   C10034876   5.108   5.914   2.316 -0.2900 -0.3767  0.2374
  109MOL   C10134877   5.120   5.802   2.398  0.3211 -0.4145  1.2382
  109MOL   C10234878   5.158   5.821   2.533 -0.0558  0.1963 -0.1589
  109MOL   F10334879   5.160   5.713   2.608  0.2392 -0.1738  0.6406
  109MOL   C10434880   5.191   5.950   2.582 -0.3549  0.1277  0.6355
  109MOL   C10534881   5.186   6.060   2.493 -0.4696  0.0642  0.4031
  109MOL   C10634882   5.233   6.153   2.155  0.2559 -0.9615 -0.5154
  109MOL   H10734883   5.174   6.246   2.331  2.1389 -1.0672 -1.6368
  109MOL   H10834884   5.080   5.892   2.214 -1.3304 -1.8822  0.8493
  109MOL   H10934885   5.092   5.704   2.361  0.3097 -0.2636  0.8438
  109MOL   H11034886   5.228   5.959   2.683  2.8909 -1.1667 -0.3441
  109MOL   H11134887   5.225   6.156   2.525  1.5298 -0.6420  0.1448
  109MOL   H11234888   5.326   6.121   2.203 -0.0473 -1.2097 -0.0866
  109MOL   H11334889   5.221   6.073   2.082 -1.1206 -0.4795 -0.8165
  109MOL   C11434890   5.242   6.294   2.081 -0.6887  0.3943  0.0458
  109MOL   C11534891   5.307   6.398   2.166  0.0566 -0.4255  0.1022
  109MOL   C11634892   5.449   6.408   2.180 -0.2759 -0.0387 -0.3326
  109MOL   C11734893   5.510   6.505   2.264  0.0167  0.4343  0.0892
  109MOL   C11834894   5.421   6.593   2.333  0.1341 -0.1570  0.2192
  109MOL   F11934895   5.465   6.687   2.422 -0.2995  0.1730 -0.3800
  109MOL   C12034896   5.283   6.581   2.318  0.5816  1.2417 -0.1167
  109MOL   C12134897   5.226   6.481   2.239  0.6352 -0.4939 -0.1942
  109MOL   C12234898   5.319   6.298   1.947  0.0097  0.0590  0.1539
  109MOL   H12334899   5.140   6.325   2.057 -0.4303  1.6135  0.4826
  109MOL   H12434900   5.516   6.336   2.135  1.8054  1.7004 -0.0886
  109MOL   H12534901   5.617   6.517   2.263  0.1691 -0.9276 -2.6120
  109MOL   H12634902   5.222   6.647   2.377 -0.6693  2.4242 -2.6582
  109MOL   H12734903   5.118   6.480   2.238  0.6337  0.1338 -0.6483
  109MOL   H12834904   5.328   6.402   1.913 -1.8916 -0.3449 -1.6958
  109MOL   H12934905   5.415   6.251   1.970  0.4933  1.0066  0.1220
  109MOL   C13034906   5.262   6.210   1.834 -0.5537  0.1067 -0.0810
  109MOL   C13134907   5.109   6.193   1.839  0.0230  0.2754 -0.0186
  109MOL   C13234908   5.053   6.071   1.878 -0.5165  0.0894 -0.2939
  109MOL   C13334909   4.912   6.052   1.871 -0.2298  0.7086 -0.0221
  109MOL   C13434910   4.833   6.165   1.834  0.2602  0.5782  0.3848
  109MOL   F13534911   4.705   6.138   1.803 -0.1879 -0.1268  0.2215
  109MOL   C13634912   4.886   6.291   1.813  0.6090 -0.3440 -0.2173
  109MOL   C13734913   5.022   6.302   1.811 -0.3248  0.8852  0.4703
  109MOL   C13834914   5.308   6.246   1.687  0.2353  0.2256 -0.1556
  109MOL   H13934915   5.306   6.114   1.862  1.3999  0.6899 -1.1002
  109MOL   H14034916   5.107   5.987   1.919 -0.3317  0.2378 -0.2350
  109MOL   H14134917   4.875   5.951   1.882 -0.4872  0.7938 -0.1001
  109MOL   H14234918   4.821   6.373   1.785  1.5202  1.0774  1.7213
  109MOL   H14334919   5.068   6.399   1.801  1.5724 -0.0964 -0.7857
  109MOL   H14434920   5.251   6.332   1.652 -0.0625  1.0598  2.3399
  109MOL   H14534921   5.408   6.288   1.694 -0.1639  1.2616 -0.6221
  109MOL   C14634922   5.325   6.125   1.595  0.9117  0.1324 -0.7064
  109MOL   C14734923   5.191   6.041   1.580  0.2924 -0.5690  0.1604
  109MOL   C14834924   5.182   5.912   1.637 -0.1732 -0.2838  0.1485
  109MOL   C14934925   5.072   5.834   1.614 -0.3364  0.7027 -0.3313
  109MOL   C15034926   4.975   5.876   1.518  1.0694  0.5148 -0.7508
  109MOL   F15134927   4.863   5.800   1.502 -0.0667  0.6229 -0.1782
  109MOL   C15234928   4.981   6.002   1.453 -0.3878 -0.4583 -0.6009
  109MOL   C15334929   5.087   6.087   1.493  0.0616  0.0006 -0.2124
  109MOL   C15434930   5.376   6.184   1.460 -0.0105  0.2341  0.3980
  109MOL   H15534931   5.398   6.054   1.634  0.5708 -0.6252 -1.4250
  109MOL   H15634932   5.268   5.878   1.694 -0.0109  1.7086  1.1392
  109MOL   H15734933   5.060   5.734   1.652 -0.4935 -0.0319 -2.2798
  109MOL   H15834934   4.909   6.035   1.380 -0.6026 -1.3199 -0.7911
  109MOL   H15934935   5.094   6.190   1.461  0.0974 -0.2982 -1.2048
  109MOL   H16034936   5.367   6.102   1.389 -0.7472  0.1446  0.5884
  109MOL   H16134937   5.307   6.257   1.417 -0.0885 -0.7080 -1.1054
  109MOL   C16234938   5.528   6.218   1.439 -0.5310  0.3683  0.7938
  109MOL   C16334939   5.631   6.122   1.498  0.1822  0.9783 -0.5966
  109MOL   C16434940   5.725   6.168   1.595  0.7480 -0.7329  0.6824
  109MOL   C16534941   5.824   6.078   1.649  0.0404  0.8581 -0.7221
  109MOL   C16634942   5.823   5.948   1.596 -0.8149  0.0427 -0.8273
  109MOL   F16734943   5.919   5.861   1.647  0.1041  0.7224  0.2410
  109MOL   C16834944   5.735   5.909   1.497  0.1601  0.3900  0.5903
  109MOL   C16934945   5.646   5.998   1.443 -0.2094 -0.3494  0.5896
  109MOL   C17034946   5.553   6.245   1.286 -0.2811 -0.4197 -0.3849
  109MOL   H17134947   5.541   6.317   1.483  0.6907  0.0620  1.1132
  109MOL   H17234948   5.712   6.267   1.636 -0.3119 -0.4052 -0.4300
  109MOL   H17334949   5.897   6.096   1.726 -0.0774  0.4292 -0.5043
  109MOL   H17434950   5.738   5.807   1.460 -0.4265  0.4862  0.2761
  109MOL   H17534951   5.571   5.957   1.376  0.2412 -1.6881  0.8868
  109MOL   H17634952   5.511   6.160   1.231 -1.1282 -1.3467  1.6290
  109MOL   H17734953   5.488   6.323   1.246  1.2806 -0.0223 -2.2439
  109MOL   C17834954   5.700   6.269   1.241  0.1251  0.0884  0.8414
  109MOL   C17934955   5.705   6.271   1.090  0.2749  0.4400  0.1810
  109MOL   C18034956   5.779   6.170   1.014 -0.4494  1.0063  0.1939
  109MOL   C18134957   5.790   6.183   0.874  0.3460  0.2402 -0.1761
  109MOL   C18234958   5.724   6.291   0.808 -0.3287  0.8312 -0.0066
  109MOL   F18334959   5.746   6.312   0.674  0.2107 -0.6676 -0.3199
  109MOL   C18434960   5.658   6.388   0.885 -0.2748  0.5306 -0.1289
  109MOL   C18534961   5.647   6.378   1.023  0.0622 -0.5545  0.7499
  109MOL   C18634962   5.770   6.403   1.294 -0.7177  0.1797 -0.5363
  109MOL   H18734963   5.762   6.183   1.265 -0.1190  0.5043  3.0748
  109MOL   H18834964   5.835   6.090   1.060  0.1636  1.3755  0.0955
  109MOL   H18934965   5.841   6.114   0.808 -2.5968 -0.5127 -1.7992
  109MOL   H19034966   5.606   6.469   0.837 -0.8201 -0.1102 -0.6319
  109MOL   H19134967   5.598   6.455   1.081  0.6435 -0.1806  0.7464
  109MOL   H19234968   5.759   6.476   1.215  1.4786  0.7784 -0.3297
  109MOL   H19334969   5.704   6.446   1.369  1.1006  1.8863  0.1334
  109MOL   C19434970   5.909   6.384   1.359  0.1508 -0.4458 -0.0624
  109MOL   C19534971   5.995   6.278   1.293  0.5325 -0.9055  0.2097
  109MOL   C19634972   6.035   6.158   1.356  0.6849  0.3887 -0.6682
  109MOL   C19734973   6.114   6.071   1.286  0.0131  0.0382 -0.1871
  109MOL   C19834974   6.160   6.102   1.155  0.4178  0.6970 -0.0191
  109MOL   F19934975   6.238   6.012   1.092 -0.2435  0.2598  0.0602
  109MOL   C20034976   6.129   6.220   1.095  0.1075  0.1966  0.6424
  109MOL   C20134977   6.047   6.313   1.164  0.2777  0.5711  0.1818
  109MOL   C20234978   5.978   6.512   1.385  0.0353 -0.0092 -0.5404
  109MOL   H20334979   5.894   6.343   1.458  3.8799 -2.1507 -0.1376
  109MOL   H20434980   6.013   6.141   1.460 -1.1850  2.1266 -0.7576
  109MOL   H20534981   6.154   5.984   1.336 -0.0162 -0.0922 -0.3881
  109MOL   H20634982   6.168   6.242   0.996 -0.7580  0.6733  0.3974
  109MOL   H20734983   6.026   6.399   1.103 -1.2311  0.7095  0.8650
  109MOL   H20834984   6.080   6.492   1.418  0.1336 -2.1515 -2.0584
  109MOL   H20934985   5.993   6.569   1.293  1.6363 -2.1927 -1.6806
  109MOL   C21034986   5.914   6.611   1.486 -1.0181 -0.8586 -0.3149
  109MOL   C21134987   5.860   6.548   1.617 -0.0297 -0.0564  0.2565
  109MOL   C21234988   5.727   6.576   1.654  0.1095 -0.1543  0.6101
  109MOL   C21334989   5.673   6.517   1.765  0.1283 -0.0715 -0.0120
  109MOL   C21434990   5.751   6.436   1.849  0.0616 -0.5060  0.9798
  109MOL   F21534991   5.691   6.387   1.961 -0.3174 -0.0747  0.1217
  109MOL   C21634992   5.881   6.400   1.812 -0.3278  0.3220  0.0205
  109MOL   C21734993   5.939   6.469   1.701 -0.6138 -0.3799  0.1444
  109MOL   C21834994   6.005   6.729   1.531 -0.0097  0.0988 -0.2291
  109MOL   H21934995   5.830   6.653   1.431 -1.5748 -1.0101  0.4020
  109MOL   H22034996   5.664   6.640   1.594  2.2843  0.4444 -1.0947
  109MOL   H22134997   5.571   6.536   1.796 -0.9329  0.4746 -3.6308
  109MOL   H22234998   5.942   6.319   1.849  2.2410  0.6045 -3.3196
  109MOL   H22334999   6.042   6.452   1.673 -1.3870  0.2618 -3.1801
  109MOL   H22435000   5.951   6.782   1.610 -1.9404  0.1155 -1.5264
  109MOL   H22535001   6.090   6.676   1.574 -0.0065  0.4326  0.1912
  109MOL   C22635002   6.060   6.825   1.422 -0.1999 -0.1410 -0.4642
  109MOL   C22735003   5.950   6.908   1.354 -0.4634 -0.2296  0.9172
  109MOL   C22835004   5.926   6.884   1.219 -0.7360  0.2727  0.3429
  109MOL   C22935005   5.819   6.950   1.150  0.7246 -0.4581 -0.3658
  109MOL   C23035006   5.743   7.047   1.221 -0.2171 -0.3695 -0.2288
  109MOL   F23135007   5.649   7.119   1.153 -0.3148 -0.2906  0.2675
  109MOL   C23235008   5.765   7.064   1.358 -0.1723 -0.2842 -0.0337
  109MOL   C23335009   5.872   7.001   1.423  0.4199 -0.2344  0.1350
  109MOL   C23435010   6.173   6.914   1.473 -0.6254  0.1352  0.4367
  109MOL   H23535011   6.093   6.756   1.345 -1.9161 -1.4764 -0.0616
  109MOL   H23635012   5.985   6.807   1.171  1.6145  2.0676  0.2761
  109MOL   H23735013   5.806   6.928   1.046 -3.2593 -2.9359  0.5767
  109MOL   H23835014   5.704   7.136   1.411 -1.8462 -0.5459 -1.5236
  109MOL   H23935015   5.880   7.017   1.530 -4.0135 -0.2660  0.5560
  109MOL   H24035016   6.197   6.979   1.389 -3.3973 -1.7813 -1.9284
  109MOL   H24135017   6.118   6.986   1.533 -0.7102 -0.4069  1.0220
  109MOL   C24235018   6.305   6.841   1.523  0.1665  0.0749  0.5072
  109MOL   C24335019   6.357   6.724   1.436 -0.3330 -0.1774 -0.2163
  109MOL   C24435020   6.335   6.591   1.478  0.3132 -0.0415  0.5313
  109MOL   C24535021   6.362   6.481   1.394 -0.0143 -0.3905 -0.2702
  109MOL   C24635022   6.398   6.513   1.261 -0.4862 -0.6636 -0.0865
  109MOL   F24735023   6.418   6.409   1.172  0.1385  0.1108  0.1082
  109MOL   C24835024   6.424   6.637   1.217  0.1467 -0.0895 -0.7325
  109MOL   C24935025   6.406   6.747   1.306  0.6062  0.2838 -0.5610
  109MOL   C25035026   6.417   6.952   1.543 -0.1162  0.5848 -0.2225
  109MOL   H25135027   6.273   6.794   1.616 -0.1662  1.4071  1.0818
  109MOL   H25235028   6.286   6.571   1.573  1.1409  2.1304  1.4495
  109MOL   H25335029   6.334   6.380   1.418 -0.1411 -0.5885 -1.2479
  109MOL   H25435030   6.443   6.655   1.113 -1.7858  1.4465 -0.8532
  109MOL   H25535031   6.421   6.848   1.274 -2.0016  0.7483 -0.4878
  109MOL   H25635032   6.415   7.020   1.457  1.0323 -2.0279 -2.3800
  109MOL   H25735033   6.384   7.024   1.617 -0.5459  1.5162 -1.3068
  109MOL   C25835034   6.561   6.911   1.567 -0.5554 -0.6006 -0.0411
  109MOL   C25935035   6.662   6.958   1.464 -0.7603  0.0678 -0.3499
  109MOL   C26035036   6.704   6.866   1.367  0.3577 -0.8244 -0.3591
  109MOL   C26135037   6.795   6.909   1.268  0.3587  0.2610  0.7105
  109MOL   C26235038   6.848   7.034   1.262  0.2112  0.1170 -0.0836
  109MOL   F26335039   6.921   7.065   1.150 -0.4030  0.4550 -0.2380
  109MOL   C26435040   6.806   7.130   1.357  0.1133  0.1249 -0.1712
  109MOL   C26535041   6.712   7.089   1.455 -0.8656 -1.0389 -0.5920
  109MOL   C26635042   6.603   6.950   1.718  0.0585  0.7897  0.3305
  109MOL   H26735043   6.562   6.802   1.564  1.4003 -0.7177  2.9720
  109MOL   H26835044   6.660   6.768   1.363 -1.4331 -0.0205 -1.2615
  109MOL   H26935045   6.820   6.839   1.189  1.1119  1.1387  0.1574
  109MOL   H27035046   6.849   7.228   1.349  0.5514 -0.0624 -0.1058
  109MOL   H27135047   6.698   7.162   1.534  0.0851 -0.7936 -0.6444
  109MOL   H27235048   6.591   7.057   1.733 -0.0958  1.1967 -2.4778
  109MOL   H27335049   6.518   6.924   1.782 -0.4828  1.9346  0.0758
  109MOL   C27435050   6.731   6.894   1.777 -0.4218  0.5748  0.0028
  109MOL   C27535051   6.857   6.976   1.754  0.0359 -0.1055 -0.3554
  109MOL   C27635052   6.882   7.099   1.829  0.0124  0.3346  0.0592
  109MOL   C27735053   6.999   7.176   1.796 -0.1372  0.4007  0.2726
  109MOL   C27835054   7.085   7.139   1.695  0.0724 -0.3598 -0.1323
  109MOL   F27935055   7.195   7.216   1.676 -0.0958 -0.3514  0.1142
  109MOL   C28035056   7.055   7.031   1.614 -0.4328 -0.6767 -0.2850
  109MOL   C28135057   6.947   6.942   1.646 -0.5993 -0.1441 -0.5623
  109MOL   C28235058   6.720   6.856   1.927 -0.0721 -0.1446 -0.0954
  109MOL   H28335059   6.752   6.808   1.714 -0.9807  0.7835 -0.4612
  109MOL   H28435060   6.825   7.127   1.916  2.8160  2.0527  1.4123
  109MOL   H28535061   7.010   7.270   1.849 -0.9262 -0.0472  1.2426
  109MOL   H28635062   7.116   7.009   1.528  0.7110  1.3692 -0.0232
  109MOL   H28735063   6.930   6.854   1.586  2.3944 -0.4030 -1.1185
  109MOL   H28835064   6.819   6.868   1.971 -1.2487  3.4881  1.7555
  109MOL   H28935065   6.668   6.926   1.992 -1.1499 -0.3680 -0.7091
  109MOL   C29035066   6.682   6.706   1.965  0.0650 -0.2461 -0.2657
  109MOL   C29135067   6.535   6.676   1.944  0.2553 -0.2305 -0.3125
  109MOL   C29235068   6.440   6.720   2.036 -0.4186 -1.1638 -0.4451
  109MOL   C29335069   6.302   6.685   2.032 -0.7087 -0.2006 -0.9441
  109MOL   C29435070   6.258   6.602   1.928  1.0469  1.0456  0.8135
  109MOL   F29535071   6.129   6.551   1.928  0.1924 -0.0465 -0.0247
  109MOL   C29635072   6.355   6.551   1.836 -0.4152 -0.3980 -0.0563
  109MOL   C29735073   6.489   6.587   1.842 -0.4586  0.6152 -0.4883
  109MOL   C29835074   6.767   6.598   1.892 -0.5872 -0.1698  0.0412
  109MOL   H29935075   6.703   6.703   2.072  2.4709 -0.4299 -0.6997
  109MOL   H30035076   6.470   6.782   2.119  0.4225 -1.2085 -0.7080
  109MOL   H30135077   6.246   6.731   2.112 -0.9510  1.0317 -1.7984
  109MOL   H30235078   6.325   6.477   1.764  0.0538 -1.1162  0.4776
  109MOL   H30335079   6.547   6.547   1.761 -0.5692 -0.0893 -0.2161
  109MOL   H30435080   6.714   6.504   1.905 -0.0839 -0.6128 -0.9951
  109MOL   H30535081   6.767   6.616   1.784  0.4741  1.1593  0.2537
  109MOL   C30635082   6.909   6.586   1.944  0.4059  0.3218 -0.1933
  109MOL   C30735083   6.947   6.442   1.972  0.0447  0.1612 -0.5858
  109MOL   C30835084   7.029   6.407   2.081 -0.1921 -0.1889 -0.0905
  109MOL   C30935085   7.055   6.273   2.118  0.1469 -0.4821 -0.6070
  109MOL   C31035086   7.008   6.171   2.043 -0.6718 -0.0226 -0.2469
  109MOL   F31135087   7.045   6.043   2.075  0.2338 -0.3942 -0.0191
  109MOL   C31235088   6.929   6.199   1.925  0.1324 -0.4442  0.8617
  109MOL   C31335089   6.899   6.332   1.891  0.0878  0.0856  0.0469
  109MOL   C31435090   7.016   6.647   1.857 -0.1867  0.6723  0.2531
  109MOL   H31535091   6.914   6.638   2.040 -0.3169  0.0679 -0.0136
  109MOL   H31635092   7.068   6.486   2.144 -2.1927  0.7666 -0.0168
  109MOL   H31735093   7.113   6.263   2.209  1.7164 -0.4057 -1.5882
  109MOL   H31835094   6.894   6.116   1.865  2.1596 -1.1161  0.5670
  109MOL   H31935095   6.841   6.351   1.802  2.2494  2.1598 -1.0032
  109MOL   H32035096   7.008   6.617   1.753  0.8919 -0.0572  0.3798
  109MOL   H32135097   6.984   6.752   1.858  2.1639  1.4342 -1.4993
  109MOL   H32235098   7.118   6.628   1.891  0.1566  2.6214  0.3812
  110MOL     C135099   2.903   4.622   5.949 -0.6377  0.0784 -0.0168
  110MOL     C235100   3.019   4.548   5.885 -0.0922 -0.4825  0.9313
  110MOL     C335101   3.154   4.591   5.905 -0.0103  1.4222 -0.2964
  110MOL     C435102   3.260   4.521   5.843  0.5339 -0.0403 -0.6102
  110MOL     C535103   3.231   4.406   5.765  1.0069 -0.0075 -0.2949
  110MOL     F635104   3.325   4.330   5.707 -0.1478 -0.5235  0.1531
  110MOL     C735105   3.099   4.364   5.754  0.2012  0.5826  0.6549
  110MOL     C835106   2.993   4.434   5.811 -0.4180 -0.6026  0.4219
  110MOL     C935107   2.848   4.723   5.851  0.0109 -0.7693  0.4391
  110MOL    H1035108   2.942   4.666   6.041 -1.5033 -1.9445  1.3647
  110MOL    H1135109   3.173   4.685   5.956  0.4114  1.1650  0.0160
  110MOL    H1235110   3.362   4.556   5.854  0.2368  0.8215 -0.6124
  110MOL    H1335111   3.069   4.278   5.695 -0.6248 -0.3372  2.3725
  110MOL    H1435112   2.896   4.390   5.795 -0.7790  0.6449 -0.9834
  110MOL    H1535113   2.821   4.668   5.761  0.2746 -2.0463  1.1214
  110MOL    H1635114   2.750   4.759   5.883 -0.0832  0.6444 -1.3527
  110MOL    H1735115   2.829   4.549   5.983 -1.3733  1.7239  1.9656
  110MOL    C1835116   2.937   4.840   5.800 -0.2977  0.1535 -0.0690
  110MOL    C1935117   2.873   4.944   5.697 -0.7315 -0.2317  0.1151
  110MOL    C2035118   2.957   5.021   5.616 -0.1029 -0.1196  0.2003
  110MOL    C2135119   2.899   5.116   5.529 -0.0543  0.0311 -0.5555
  110MOL    C2235120   2.756   5.120   5.510 -0.0709 -0.2848 -0.1994
  110MOL    F2335121   2.691   5.203   5.417 -0.4562 -0.3389  0.2503
  110MOL    C2435122   2.676   5.019   5.566 -0.5270 -0.1849 -0.5221
  110MOL    C2535123   2.735   4.941   5.667  0.1475 -0.1278 -0.9149
  110MOL    C2635124   3.010   4.907   5.912 -0.4775 -0.0864 -0.2546
  110MOL    H2735125   3.009   4.790   5.735 -0.3280 -0.5095  0.4135
  110MOL    H2835126   3.062   5.034   5.642  0.6468  0.7487 -3.0225
  110MOL    H2935127   2.959   5.191   5.480 -0.2298  1.5052  1.4447
  110MOL    H3035128   2.569   5.019   5.553 -0.7232 -0.8190  1.0727
  110MOL    H3135129   2.670   4.870   5.716 -1.0233  1.1821 -0.5510
  110MOL    H3235130   3.026   4.838   5.996  0.7442  1.5666  0.9088
  110MOL    H3335131   3.113   4.918   5.879 -0.3918 -0.8810 -0.2575
  110MOL    C3435132   2.949   5.034   5.971 -0.6419  0.6819  0.2440
  110MOL    C3535133   2.826   4.996   6.054  0.0931 -0.0521  0.8699
  110MOL    C3635134   2.842   4.931   6.178  0.1267  0.1028 -0.9314
  110MOL    C3735135   2.731   4.912   6.262  0.1131 -0.6895  0.2784
  110MOL    C3835136   2.602   4.952   6.220  0.0285 -0.2455  0.3434
  110MOL    F3935137   2.499   4.924   6.298 -0.0726  0.5261  0.0505
  110MOL    C4035138   2.587   5.008   6.088 -0.3969  0.6520  0.3228
  110MOL    C4135139   2.697   5.044   6.009 -0.2315  0.5225 -0.2391
  110MOL    C4235140   3.050   5.104   6.071  0.2825 -0.3225  0.1030
  110MOL    H4335141   2.913   5.106   5.898  2.5298  1.1080 -0.9479
  110MOL    H4435142   2.941   4.904   6.213 -1.0177  1.9454  4.1188
  110MOL    H4535143   2.740   4.865   6.359  1.5448  0.7391  0.8499
  110MOL    H4635144   2.490   5.028   6.045  0.4914  0.3086 -1.9058
  110MOL    H4735145   2.677   5.089   5.914  0.0136  0.3346 -0.3804
  110MOL    H4835146   2.989   5.165   6.138  3.1464  1.9311  0.7383
  110MOL    H4935147   3.107   5.037   6.136 -0.0716  0.0530  0.8062
  110MOL    C5035148   3.152   5.205   6.010  0.2171  0.6468 -0.6578
  110MOL    C5135149   3.078   5.303   5.927 -0.8006  0.2835  0.4230
  110MOL    C5235150   3.008   5.407   5.992  0.1497  0.1026 -0.0406
  110MOL    C5335151   2.953   5.507   5.914 -0.3542  0.1522 -0.3656
  110MOL    C5435152   2.959   5.502   5.773 -0.1435 -0.1743 -1.1522
  110MOL    F5535153   2.916   5.598   5.697  0.4332  0.5177  0.2401
  110MOL    C5635154   3.025   5.400   5.709  0.3665  0.9463  0.1175
  110MOL    C5735155   3.085   5.298   5.784  0.9199 -0.4331 -0.3173
  110MOL    C5835156   3.246   5.288   6.097 -0.5219 -0.0426 -0.6284
  110MOL    H5935157   3.214   5.138   5.950 -0.5756  0.4226 -1.2233
  110MOL    H6035158   2.989   5.416   6.098 -0.0270 -1.6311  0.0820
  110MOL    H6135159   2.889   5.581   5.960 -0.0374 -1.0726  2.1176
  110MOL    H6235160   3.036   5.386   5.603 -1.8314 -3.4172  0.3461
  110MOL    H6335161   3.133   5.217   5.731  2.2010 -1.5411  2.4507
  110MOL    H6435162   3.296   5.364   6.037 -1.5061  1.3574  0.2988
  110MOL    H6535163   3.190   5.349   6.169 -0.3941 -0.0695 -0.5048
  110MOL    C6635164   3.345   5.193   6.179  0.1921  0.4626 -0.5073
  110MOL    C6735165   3.443   5.119   6.086 -1.0664  0.2851  0.5046
  110MOL    C6835166   3.525   5.193   5.998  0.8400  0.2750  0.6368
  110MOL    C6935167   3.618   5.125   5.917 -0.1624  0.2459 -0.0324
  110MOL    C7035168   3.635   4.984   5.928 -0.1271 -0.2222  0.2295
  110MOL    F7135169   3.740   4.924   5.868  0.0808 -0.0227  0.0855
  110MOL    C7235170   3.543   4.913   6.010 -0.6574  0.1979  0.9145
  110MOL    C7335171   3.447   4.974   6.094 -0.3800  0.2294  0.1601
  110MOL    C7435172   3.407   5.249   6.304 -0.8252 -0.0923  0.7317
  110MOL    H7535173   3.277   5.120   6.222 -0.7753  1.9098  0.4962
  110MOL    H7635174   3.518   5.300   6.006  3.9248  0.5212  0.5873
  110MOL    H7735175   3.672   5.182   5.842  1.2096 -0.1106  0.6585
  110MOL    H7835176   3.552   4.805   6.009  1.3530  0.3529 -0.0748
  110MOL    H7935177   3.376   4.924   6.158 -0.2319  1.4329  1.2861
  110MOL    H8035178   3.338   5.288   6.379 -3.1570 -0.6995 -1.0754
  110MOL    H8135179   3.463   5.163   6.340 -1.4411 -1.6407 -1.9551
  110MOL    C8235180   3.512   5.364   6.289 -0.0780 -0.0071 -0.2537
  110MOL    C8335181   3.457   5.491   6.223  0.2908 -0.2510 -0.0724
  110MOL    C8435182   3.525   5.545   6.112 -0.0418  0.0282  0.1568
  110MOL    C8535183   3.472   5.653   6.048 -0.0003  0.1762  0.4751
  110MOL    C8635184   3.345   5.713   6.086  0.5092  0.2717 -0.6560
  110MOL    F8735185   3.302   5.824   6.028 -0.4852  0.4778 -0.2187
  110MOL    C8835186   3.278   5.654   6.192  0.4360  0.8768  0.5090
  110MOL    C8935187   3.335   5.545   6.261  0.5219 -0.0155  0.3300
  110MOL    C9035188   3.598   5.408   6.417  0.2507  0.4650  0.0714
  110MOL    H9135189   3.594   5.325   6.230  0.9870  0.4777  0.8889
  110MOL    H9235190   3.616   5.493   6.084 -0.3431 -0.3287 -0.1685
  110MOL    H9335191   3.520   5.696   5.961 -0.6101  0.1477  0.1212
  110MOL    H9435192   3.191   5.713   6.219  1.3949  2.4383  0.2533
  110MOL    H9535193   3.283   5.505   6.347 -1.1787  0.5349 -0.4136
  110MOL    H9635194   3.634   5.509   6.398  2.2790  0.0181  1.3991
  110MOL    H9735195   3.532   5.399   6.504  1.7746  0.7076  1.2573
  110MOL    C9835196   3.738   5.336   6.441 -0.0091  0.6503  0.5235
  110MOL    C9935197   3.834   5.314   6.312 -0.2964  0.4000 -0.4421
  110MOL   C10035198   3.867   5.183   6.290  0.0826  0.0182  0.4856
  110MOL   C10135199   3.944   5.155   6.176 -0.5171  0.7739 -0.0032
  110MOL   C10235200   3.980   5.262   6.089 -0.4363 -0.6202  0.7776
  110MOL   F10335201   4.064   5.239   5.987  0.1635  0.2624  0.2445
  110MOL   C10435202   3.938   5.393   6.112 -0.0249  0.0087 -0.2572
  110MOL   C10535203   3.878   5.423   6.232  0.0887  0.5505 -0.3783
  110MOL   C10635204   3.812   5.405   6.556 -0.1785 -0.0161  0.5432
  110MOL   H10735205   3.711   5.236   6.475  1.8785 -0.4273 -1.0118
  110MOL   H10835206   3.833   5.104   6.357  0.9754  0.4606  1.4775
  110MOL   H10935207   3.975   5.053   6.160  0.6945  1.3517 -1.4760
  110MOL   H11035208   3.969   5.468   6.041 -1.2899 -1.5116 -2.4722
  110MOL   H11135209   3.859   5.528   6.250 -0.4383 -0.1239  3.2300
  110MOL   H11235210   3.905   5.349   6.563 -1.0485 -1.6433 -0.5428
  110MOL   H11335211   3.842   5.504   6.521  0.9821 -0.7233 -0.5009
  110MOL   C11435212   3.745   5.420   6.691  0.5040  0.3634  0.9500
  110MOL   C11535213   3.692   5.290   6.744  0.3354  0.0538  1.1267
  110MOL   C11635214   3.582   5.295   6.834  0.9188  0.0468  0.2540
  110MOL   C11735215   3.538   5.166   6.891 -0.2599 -1.2716  0.2041
  110MOL   C11835216   3.613   5.052   6.870 -0.6745 -0.0454 -0.3068
  110MOL   F11935217   3.574   4.941   6.936 -0.0590 -0.4965 -0.2155
  110MOL   C12035218   3.728   5.052   6.788  0.2252  0.2901 -0.3741
  110MOL   C12135219   3.772   5.167   6.724  0.4429 -0.5999  0.9521
  110MOL   C12235220   3.838   5.486   6.788 -0.1581  0.0332  0.2579
  110MOL   H12335221   3.658   5.485   6.679  0.9657  0.3965 -2.5130
  110MOL   H12435222   3.536   5.392   6.849  1.0539  0.8209 -3.6621
  110MOL   H12535223   3.442   5.162   6.940 -0.9262 -2.3355 -1.1281
  110MOL   H12635224   3.779   4.958   6.768 -1.2420 -0.2224 -1.7583
  110MOL   H12735225   3.861   5.161   6.663 -0.0609 -2.6549  0.3733
  110MOL   H12835226   3.841   5.421   6.876  0.7753  0.2824  0.4149
  110MOL   H12935227   3.942   5.497   6.755  0.3376 -2.9548  0.6571
  110MOL   C13035228   3.784   5.617   6.852  0.3194  0.1250 -0.0571
  110MOL   C13135229   3.856   5.645   6.977 -0.3499  0.6094  0.2529
  110MOL   C13235230   3.989   5.690   6.974  0.6699 -0.4366  0.3315
  110MOL   C13335231   4.061   5.732   7.089  0.7807 -0.5353 -0.1611
  110MOL   C13435232   3.998   5.739   7.211  0.2810  0.3324 -0.1700
  110MOL   F13535233   4.063   5.781   7.328  0.0880 -0.4600 -0.1644
  110MOL   C13635234   3.859   5.704   7.214 -0.1926 -0.3605 -0.1642
  110MOL   C13735235   3.790   5.651   7.102 -0.6370 -0.0183  0.1841
  110MOL   C13835236   3.778   5.752   6.767  0.0852  0.2412 -0.2975
  110MOL   H13935237   3.684   5.589   6.884  0.3929  0.2194  0.2565
  110MOL   H14035238   4.047   5.697   6.882  0.6014 -0.2933  0.2983
  110MOL   H14135239   4.158   5.778   7.077  0.1305  0.9687  0.2845
  110MOL   H14235240   3.812   5.711   7.311  0.3035  0.8174 -0.0109
  110MOL   H14335241   3.687   5.623   7.117 -1.4068  1.1290 -2.7403
  110MOL   H14435242   3.767   5.834   6.838 -1.9331  0.1190 -0.4217
  110MOL   H14535243   3.876   5.774   6.724  0.2441  1.1347  0.5156
  110MOL   C14635244   3.663   5.774   6.657  0.2191  0.3049  0.3809
  110MOL   C14735245   3.525   5.725   6.713  0.4611  0.1423  0.6969
  110MOL   C14835246   3.438   5.645   6.633  0.0776 -0.4711 -0.3527
  110MOL   C14935247   3.317   5.593   6.690  0.2954 -0.4187 -0.6129
  110MOL   C15035248   3.284   5.624   6.826 -0.1937 -0.1998 -0.9309
  110MOL   F15135249   3.165   5.581   6.877  0.1530  0.0761 -0.4105
  110MOL   C15235250   3.369   5.699   6.907  0.6650 -0.1511  0.2386
  110MOL   C15335251   3.490   5.753   6.850  0.0643 -0.5528  0.4534
  110MOL   C15435252   3.654   5.926   6.607 -0.0163  0.7589 -0.4159
  110MOL   H15535253   3.678   5.706   6.573 -2.2606 -0.6052  0.6454
  110MOL   H15635254   3.462   5.629   6.529  0.7816 -2.0956  0.0453
  110MOL   H15735255   3.248   5.536   6.629 -0.0921 -0.3110 -0.2776
  110MOL   H15835256   3.349   5.720   7.011 -0.3576  1.1718 -0.1953
  110MOL   H15935257   3.550   5.816   6.914 -1.4516  0.6543  0.7307
  110MOL   H16035258   3.563   5.921   6.548 -0.0435 -3.0914 -0.1710
  110MOL   H16135259   3.634   5.991   6.692 -0.5680  1.4275 -1.0589
  110MOL   C16235260   3.766   5.979   6.525  0.5086 -0.1007 -0.0271
  110MOL   C16335261   3.771   5.922   6.380 -0.1425  0.2334  0.0738
  110MOL   C16435262   3.895   5.870   6.329  0.3144  0.5774 -0.2135
  110MOL   C16535263   3.899   5.831   6.189  0.1403 -0.4738 -0.5758
  110MOL   C16635264   3.779   5.840   6.113 -0.6469  0.5238 -0.5304
  110MOL   F16735265   3.784   5.812   5.981  0.1481  0.3713  0.2425
  110MOL   C16835266   3.657   5.878   6.164  0.2288 -0.4718 -0.0323
  110MOL   C16935267   3.654   5.920   6.299 -0.0215 -0.0572 -0.4674
  110MOL   C17035268   3.759   6.136   6.522  0.8518 -0.2765 -0.3568
  110MOL   H17135269   3.864   5.964   6.571 -0.2405 -1.7395  1.0679
  110MOL   H17235270   3.976   5.872   6.400 -1.8869  2.0169  2.3019
  110MOL   H17335271   3.991   5.798   6.144  0.1351 -0.0012 -0.9383
  110MOL   H17435272   3.569   5.890   6.103  1.8526  0.2810 -2.2816
  110MOL   H17535273   3.565   5.957   6.349 -1.2758 -2.0353 -1.1776
  110MOL   H17635274   3.798   6.186   6.434 -0.0111  0.6720 -0.2198
  110MOL   H17735275   3.653   6.163   6.517  0.7365 -0.9542 -1.8577
  110MOL   C17835276   3.811   6.205   6.650  0.1013 -0.4485  0.6358
  110MOL   C17935277   3.956   6.170   6.674  0.3280 -0.4799  0.0925
  110MOL   C18035278   3.992   6.101   6.796  0.3444 -0.8142  0.2163
  110MOL   C18135279   4.125   6.072   6.822  0.4157  0.4516 -0.3627
  110MOL   C18235280   4.213   6.071   6.714 -0.5662 -0.3040  0.4482
  110MOL   F18335281   4.333   6.020   6.739  0.1710  0.1419 -0.0263
  110MOL   C18435282   4.176   6.116   6.590  0.8353 -0.0058  0.1326
  110MOL   C18535283   4.048   6.176   6.571  0.2562  0.0355 -0.2138
  110MOL   C18635284   3.794   6.363   6.652  0.6935 -0.0999  0.6672
  110MOL   H18735285   3.758   6.164   6.736 -1.3580 -0.6478 -0.3393
  110MOL   H18835286   3.917   6.093   6.873  1.6756 -0.9493  1.5204
  110MOL   H18935287   4.150   6.046   6.924 -0.9925  0.0988 -0.0988
  110MOL   H19035288   4.243   6.102   6.506  0.2744  1.3467 -0.5465
  110MOL   H19135289   4.031   6.220   6.474 -0.8991 -0.5006 -0.2607
  110MOL   H19235290   3.875   6.395   6.586  0.1488  1.9780  1.0031
  110MOL   H19335291   3.703   6.410   6.614  0.9403 -0.1361  0.0360
  110MOL   C19435292   3.824   6.428   6.792 -0.0277  0.0299  0.4553
  110MOL   C19535293   3.920   6.543   6.774  0.2580  0.2255 -0.9827
  110MOL   C19635294   4.024   6.571   6.875 -0.7942  0.6239  0.7168
  110MOL   C19735295   4.110   6.678   6.856 -0.5406  0.0184  0.2797
  110MOL   C19835296   4.108   6.758   6.739 -0.6053 -0.3099 -0.0170
  110MOL   F19935297   4.201   6.852   6.720 -0.5109  0.1511  0.0019
  110MOL   C20035298   4.013   6.737   6.643  0.5904 -0.3924  0.2681
  110MOL   C20135299   3.912   6.632   6.666  0.4956 -0.1192 -0.5672
  110MOL   C20235300   3.698   6.468   6.872 -0.0044  0.5295  0.6955
  110MOL   H20335301   3.865   6.349   6.855 -1.2025 -1.2193 -0.3237
  110MOL   H20435302   4.021   6.520   6.969 -1.2962  1.8879  1.4023
  110MOL   H20535303   4.185   6.698   6.932  0.5981 -0.1622 -0.7748
  110MOL   H20635304   4.010   6.808   6.562  0.5752  1.3042  1.7171
  110MOL   H20735305   3.824   6.627   6.603 -0.8505 -2.3687  1.4046
  110MOL   H20835306   3.727   6.518   6.964 -0.0366  0.5340  0.7031
  110MOL   H20935307   3.644   6.537   6.807 -2.1808 -0.9338  0.8878
  110MOL   C21035308   3.598   6.358   6.898 -0.0615  0.7473 -0.2029
  110MOL   C21135309   3.643   6.254   7.006 -0.5537 -0.6881 -0.7452
  110MOL   C21235310   3.701   6.308   7.122 -0.4843 -0.2664 -0.1128
  110MOL   C21335311   3.737   6.224   7.232  0.3511 -0.3117  0.3829
  110MOL   C21435312   3.710   6.086   7.222 -0.2196 -0.1744 -0.2613
  110MOL   F21535313   3.743   5.998   7.318  0.1912 -0.2602 -0.0353
  110MOL   C21635314   3.666   6.031   7.097  0.1655  0.2076 -0.3127
  110MOL   C21735315   3.635   6.113   6.996 -0.4379  0.0665  0.1008
  110MOL   C21835316   3.463   6.416   6.936  0.5407 -0.9636  0.0037
  110MOL   H21935317   3.578   6.305   6.805  1.3914 -0.6499  0.2532
  110MOL   H22035318   3.712   6.415   7.132 -2.8825 -0.0481  0.7195
  110MOL   H22135319   3.770   6.267   7.325  1.4186 -0.8895  0.2861
  110MOL   H22235320   3.663   5.923   7.094 -1.4121  0.1863  1.3625
  110MOL   H22335321   3.591   6.074   6.905 -0.2939 -1.1921  0.5547
  110MOL   H22435322   3.408   6.345   6.999 -0.4830 -1.0994 -1.0306
  110MOL   H22535323   3.490   6.502   6.998  0.1164  1.2177 -2.7640
  110MOL   C22635324   3.368   6.458   6.824  0.7168 -0.1293  0.2686
  110MOL   C22735325   3.350   6.347   6.725  0.1722  0.3902 -0.1773
  110MOL   C22835326   3.322   6.212   6.766  0.0528  0.4229 -0.0088
  110MOL   C22935327   3.312   6.108   6.662 -0.1456 -1.0651  0.3613
  110MOL   C23035328   3.320   6.145   6.528  0.5092 -0.3280  0.5278
  110MOL   F23135329   3.326   6.050   6.430  0.2056  0.1634 -0.2799
  110MOL   C23235330   3.327   6.283   6.494  0.3000  0.4213 -0.1456
  110MOL   C23335331   3.352   6.383   6.593  0.0390  0.2468 -0.6971
  110MOL   C23435332   3.223   6.491   6.876 -0.2704 -0.2303  0.3559
  110MOL   H23535333   3.407   6.550   6.780  0.4711  1.1594  2.6650
  110MOL   H23635334   3.310   6.190   6.871  0.0123  0.5767  0.0192
  110MOL   H23735335   3.291   6.006   6.691 -0.3364 -0.9918  0.4831
  110MOL   H23835336   3.322   6.304   6.388 -3.0987  0.0769 -0.1157
  110MOL   H23935337   3.357   6.488   6.566  1.7374  0.3318 -0.1654
  110MOL   H24035338   3.141   6.491   6.804  0.1456  1.3936 -0.1123
  110MOL   H24135339   3.194   6.399   6.928 -0.6462  0.7040  1.8336
  110MOL   C24235340   3.207   6.614   6.968  0.4409 -0.5331 -0.4370
  110MOL   C24335341   3.179   6.742   6.893  0.1138 -1.0800 -0.2208
  110MOL   C24435342   3.291   6.823   6.866  0.1455 -0.3912 -0.2116
  110MOL   C24535343   3.276   6.942   6.788 -0.7472  1.3448  0.1129
  110MOL   C24635344   3.148   6.983   6.740 -0.0029 -0.9136  0.0589
  110MOL   F24735345   3.124   7.097   6.673 -0.1168 -0.1772 -0.4403
  110MOL   C24835346   3.037   6.901   6.767 -0.7366  0.0278 -0.0752
  110MOL   C24935347   3.052   6.781   6.840 -0.5010 -0.9699 -0.4011
  110MOL   C25035348   3.102   6.598   7.083  0.0108  0.1146  0.7509
  110MOL   H25135349   3.306   6.633   7.009  0.3805 -0.7410 -0.1984
  110MOL   H25235350   3.384   6.808   6.917 -0.4823  2.8795  2.0008
  110MOL   H25335351   3.349   7.020   6.769 -0.4115  1.0816  0.3151
  110MOL   H25435352   2.934   6.927   6.745 -0.5261  1.1615  0.2373
  110MOL   H25535353   2.969   6.717   6.865 -0.8861 -0.2492  0.2137
  110MOL   H25635354   3.083   6.699   7.119 -1.0724  0.3234 -0.3558
  110MOL   H25735355   3.007   6.563   7.043  0.1022  1.4134 -0.6248
  110MOL   C25835356   3.151   6.517   7.206 -0.4090 -0.1187  0.7525
  110MOL   C25935357   3.286   6.553   7.262 -0.1359 -0.3945  0.0934
  110MOL   C26035358   3.322   6.681   7.298 -0.1084  0.3606 -0.4326
  110MOL   C26135359   3.447   6.701   7.353  0.4260 -0.1149 -0.7254
  110MOL   C26235360   3.546   6.600   7.356  0.6196  0.0082  0.5123
  110MOL   F26335361   3.673   6.621   7.400  0.3834 -0.2304 -0.2261
  110MOL   C26435362   3.513   6.469   7.329  0.6951  0.1228 -0.5741
  110MOL   C26535363   3.383   6.444   7.279 -0.0361  0.1475  0.1399
  110MOL   C26635364   3.042   6.512   7.320  1.0651 -0.0924  0.7529
  110MOL   H26735365   3.158   6.419   7.160  0.7574 -0.5638  1.8420
  110MOL   H26835366   3.264   6.769   7.278 -1.7223 -0.9879 -1.8493
  110MOL   H26935367   3.479   6.802   7.378  1.7771 -0.0853 -2.4947
  110MOL   H27035368   3.583   6.392   7.357 -0.2957 -0.1182  1.3444
  110MOL   H27135369   3.348   6.345   7.254 -1.9542  0.6696  0.6610
  110MOL   H27235370   3.053   6.591   7.395 -1.5862  0.4729  0.5851
  110MOL   H27335371   2.956   6.545   7.261  0.7300 -1.0082  0.7225
  110MOL   C27435372   3.006   6.373   7.370 -0.1722  0.3124 -0.6021
  110MOL   C27535373   3.122   6.308   7.442 -0.3446  0.0734 -0.7616
  110MOL   C27635374   3.173   6.181   7.411 -0.2572  0.2693  0.0187
  110MOL   C27735375   3.276   6.128   7.493 -0.2100  0.9540 -0.3634
  110MOL   C27835376   3.339   6.209   7.592 -1.0510  1.0690  0.8860
  110MOL   F27935377   3.458   6.172   7.645 -0.3342 -0.1457  0.1973
  110MOL   C28035378   3.288   6.334   7.625  0.0935 -0.3222 -0.1656
  110MOL   C28135379   3.176   6.380   7.553  0.0988  0.2766  0.7510
  110MOL   C28235380   2.885   6.376   7.467  0.1843  1.0013  0.8968
  110MOL   H28335381   2.986   6.315   7.279  1.2733  0.9708 -1.3628
  110MOL   H28435382   3.127   6.116   7.337  1.6261 -1.8211  0.6303
  110MOL   H28535383   3.312   6.028   7.473  2.4599  2.1003 -1.5158
  110MOL   H28635384   3.334   6.403   7.694  0.0366  2.6589 -2.9859
  110MOL   H28735385   3.142   6.477   7.585  0.3044  0.8401 -0.7035
  110MOL   H28835386   2.909   6.438   7.554 -0.2770 -0.6687  2.2577
  110MOL   H28935387   2.794   6.427   7.435 -0.6743 -1.3401 -0.5021
  110MOL   C29035388   2.853   6.230   7.518  0.1780 -0.3531 -0.0331
  110MOL   C29135389   2.776   6.226   7.652 -0.2603  0.0013  0.4613
  110MOL   C29235390   2.635   6.259   7.657  0.4482  0.5717 -0.2135
  110MOL   C29335391   2.572   6.282   7.780 -0.4854  0.4112  0.4047
  110MOL   C29435392   2.655   6.289   7.897  0.7228  0.4653 -0.1398
  110MOL   F29535393   2.607   6.330   8.020 -0.0418 -0.0993 -0.1808
  110MOL   C29635394   2.789   6.250   7.891 -0.3424  0.1771  0.6856
  110MOL   C29735395   2.852   6.216   7.772 -0.2899 -0.0481  0.1636
  110MOL   C29835396   2.787   6.139   7.406  0.7025  0.1850  0.7217
  110MOL   H29935397   2.948   6.180   7.541  0.1523 -0.0982  0.6085
  110MOL   H30035398   2.581   6.258   7.564  0.1693  0.2027 -0.0495
  110MOL   H30135399   2.464   6.287   7.773 -0.5275  0.2287  0.8719
  110MOL   H30235400   2.849   6.262   7.979  0.8724  0.5424 -0.1741
  110MOL   H30335401   2.959   6.202   7.776 -0.0732  1.4362 -0.0813
  110MOL   H30435402   2.695   6.191   7.381  1.3157  0.9209 -0.0463
  110MOL   H30535403   2.837   6.116   7.311 -0.3911  0.5494  0.0558
  110MOL   C30635404   2.750   5.999   7.458 -0.0404  0.8047  0.4534
  110MOL   C30735405   2.642   5.925   7.373 -0.5131  0.2043 -0.1065
  110MOL   C30835406   2.676   5.858   7.251 -0.3290 -0.3458 -0.5207
  110MOL   C30935407   2.571   5.801   7.175  0.2611  0.6452 -0.1516
  110MOL   C31035408   2.437   5.805   7.228 -0.3092  0.6525 -0.5930
  110MOL   F31135409   2.337   5.735   7.159 -0.1527 -0.6127 -0.3962
  110MOL   C31235410   2.413   5.861   7.352  0.1812 -0.4504 -0.6186
  110MOL   C31335411   2.514   5.924   7.422 -0.0269  0.5132 -0.2915
  110MOL   C31435412   2.862   5.896   7.470  0.5602  0.2300 -0.8185
  110MOL   H31535413   2.725   6.000   7.564  1.2061  1.5615  0.7458
  110MOL   H31635414   2.777   5.847   7.217 -0.3385 -1.7735 -0.1067
  110MOL   H31735415   2.592   5.749   7.083 -2.3302  1.2803 -1.1457
  110MOL   H31835416   2.314   5.863   7.396  0.7975  2.4318  0.8010
  110MOL   H31935417   2.491   5.972   7.516  0.4454  0.8860 -0.3640
  110MOL   H32035418   2.949   5.922   7.530  0.6456 -2.3742  0.2571
  110MOL   H32135419   2.822   5.807   7.520  0.5307  2.4996  3.4289
  110MOL   H32235420   2.909   5.871   7.375 -0.4302 -1.7708 -0.8037
  111MOL     C135421   3.726   2.843   6.010 -0.2809 -0.3029  0.7165
  111MOL     C235422   3.880   2.833   5.975  0.2799  0.0842  0.5717
  111MOL     C335423   3.963   2.736   6.041 -0.3031 -0.3750 -0.1283
  111MOL     C435424   4.103   2.726   6.012 -0.0590  0.2294 -0.0306
  111MOL     C535425   4.161   2.815   5.924  0.0615  0.0477  0.9005
  111MOL     F635426   4.291   2.806   5.891 -0.0333  0.4320 -0.5549
  111MOL     C735427   4.076   2.914   5.869 -0.6170  0.7363  0.0229
  111MOL     C835428   3.934   2.916   5.877 -0.2302 -0.5280  0.0546
  111MOL     C935429   3.633   2.780   5.906  0.5644 -0.2173  0.0422
  111MOL    H1035430   3.690   2.943   6.032  0.5034 -0.3515  2.2917
  111MOL    H1135431   3.930   2.671   6.121 -0.4739 -1.1491 -0.8158
  111MOL    H1235432   4.164   2.659   6.071  1.4469  2.1455  0.5995
  111MOL    H1335433   4.124   2.985   5.803  3.2370  0.3938  2.2602
  111MOL    H1435434   3.878   2.993   5.827 -2.8626 -2.3763  0.0831
  111MOL    H1535435   3.531   2.788   5.944 -0.3365 -3.2683 -1.4766
  111MOL    H1635436   3.634   2.840   5.815 -0.4086  0.3053  0.3659
  111MOL    H1735437   3.708   2.787   6.102 -0.5197 -1.9866 -0.3249
  111MOL    C1835438   3.657   2.629   5.862 -0.0415  0.0886 -0.5422
  111MOL    C1935439   3.527   2.542   5.847 -0.1225 -0.3269  0.7426
  111MOL    C2035440   3.488   2.444   5.945 -0.5036 -0.3458  0.2524
  111MOL    C2135441   3.372   2.362   5.937  0.5396  0.2978 -0.8053
  111MOL    C2235442   3.295   2.374   5.819 -0.5959 -0.1126 -0.6931
  111MOL    F2335443   3.192   2.294   5.801  0.1883  0.0221 -0.8068
  111MOL    C2435444   3.323   2.474   5.726 -0.1339  0.6726  0.1426
  111MOL    C2535445   3.441   2.551   5.739 -0.6237 -0.2273 -0.2296
  111MOL    C2635446   3.726   2.631   5.722  0.4810  1.3109 -0.0707
  111MOL    H2735447   3.729   2.591   5.935 -1.2561  0.9991  1.1962
  111MOL    H2835448   3.551   2.446   6.032 -0.1287  1.0206 -0.0409
  111MOL    H2935449   3.348   2.275   5.996 -0.1414 -0.3852 -2.0757
  111MOL    H3035450   3.256   2.480   5.641  0.4890 -1.1510 -0.4951
  111MOL    H3135451   3.466   2.626   5.665  2.3667 -0.6326  0.3064
  111MOL    H3235452   3.656   2.676   5.652 -0.8158  0.4673  0.6784
  111MOL    H3335453   3.813   2.697   5.717  1.0408  0.5294 -0.8813
  111MOL    C3435454   3.795   2.494   5.683 -1.0318  0.3510  0.2297
  111MOL    C3535455   3.835   2.508   5.537  0.2344 -0.1580  0.0210
  111MOL    C3635456   3.770   2.427   5.440  0.2612  0.3215  0.1025
  111MOL    C3735457   3.815   2.424   5.306 -0.3236  0.0614  0.3429
  111MOL    C3835458   3.927   2.492   5.268 -0.2082  0.2288 -0.3014
  111MOL    F3935459   3.980   2.482   5.146 -0.8804  0.4853 -0.4876
  111MOL    C4035460   3.994   2.575   5.362  0.3364 -0.2110  0.8362
  111MOL    C4135461   3.947   2.583   5.494 -0.4743  0.0147 -0.0398
  111MOL    C4235462   3.912   2.460   5.774 -0.0940 -0.7635 -0.5878
  111MOL    H4335463   3.721   2.415   5.696  0.3966 -0.8707  1.1177
  111MOL    H4435464   3.672   2.387   5.459 -0.3089  2.1293  1.0841
  111MOL    H4535465   3.764   2.361   5.236 -1.7562 -0.0278  1.4577
  111MOL    H4635466   4.077   2.634   5.327  0.4205 -1.3828 -1.0035
  111MOL    H4735467   4.008   2.639   5.562 -0.0694 -0.2422 -0.1889
  111MOL    H4835468   3.976   2.548   5.784 -1.5243  0.3907 -1.4852
  111MOL    H4935469   3.866   2.454   5.872  1.2662  1.0780  0.1970
  111MOL    C5035470   3.982   2.324   5.754  0.6391 -0.2996 -0.6616
  111MOL    C5135471   4.115   2.327   5.685  0.0103  0.1625 -0.1322
  111MOL    C5235472   4.126   2.298   5.547  0.2658 -0.7571 -0.5101
  111MOL    C5335473   4.247   2.308   5.476  0.4848  0.1256  0.0059
  111MOL    C5435474   4.362   2.347   5.541 -0.3116  0.4322  0.0665
  111MOL    F5535475   4.481   2.372   5.474 -0.2833  0.5135 -0.5916
  111MOL    C5635476   4.349   2.378   5.681 -0.1006  0.4217 -0.1492
  111MOL    C5735477   4.229   2.387   5.751  0.1634  0.0938  0.2019
  111MOL    C5835478   3.992   2.246   5.892 -0.2613  0.4803 -0.2561
  111MOL    H5935479   3.928   2.253   5.691 -0.0472 -0.8384  0.5138
  111MOL    H6035480   4.034   2.277   5.493  1.0854 -2.8787 -1.1538
  111MOL    H6135481   4.257   2.293   5.369  1.3211 -1.1818  0.2614
  111MOL    H6235482   4.443   2.409   5.725 -0.5290 -0.0766  1.1297
  111MOL    H6335483   4.221   2.408   5.856  0.1062 -2.3131  0.7101
  111MOL    H6435484   4.052   2.308   5.958  1.8531 -0.5451 -1.1645
  111MOL    H6535485   3.896   2.238   5.943 -0.6810  0.9126 -0.9602
  111MOL    C6635486   4.055   2.102   5.873  0.2218 -0.6127 -0.4916
  111MOL    C6735487   4.138   2.057   5.994 -0.2895 -0.2861 -0.1387
  111MOL    C6835488   4.276   2.093   5.999  0.3285 -0.4835  0.4453
  111MOL    C6935489   4.353   2.051   6.109 -0.3095 -0.6405  0.1030
  111MOL    C7035490   4.297   1.969   6.205 -0.4042 -0.1619  0.4985
  111MOL    F7135491   4.370   1.928   6.316 -0.2741  0.0145 -0.3803
  111MOL    C7235492   4.159   1.932   6.200  0.2570 -0.5217 -0.0165
  111MOL    C7335493   4.084   1.976   6.093 -0.0638  0.5863  0.2440
  111MOL    C7435494   3.951   1.994   5.823 -0.0063 -0.6808 -0.2989
  111MOL    H7535495   4.126   2.104   5.790  0.9115 -3.1717 -0.0133
  111MOL    H7635496   4.311   2.158   5.920 -1.8228  0.4430  0.2329
  111MOL    H7735497   4.457   2.079   6.116 -0.7938  1.2868 -0.0818
  111MOL    H7835498   4.122   1.873   6.281  2.5306 -0.8057  0.8544
  111MOL    H7935499   3.978   1.952   6.094  0.2581 -1.2351 -2.8871
  111MOL    H8035500   3.901   1.951   5.910  0.4952 -0.9518 -0.1432
  111MOL    H8135501   3.873   2.048   5.769 -2.0498 -1.0331  2.1776
  111MOL    C8235502   4.004   1.887   5.726 -0.6947  0.4067 -0.1787
  111MOL    C8335503   3.909   1.757   5.744  0.3543  0.6366 -0.1156
  111MOL    C8435504   3.962   1.627   5.762  0.1106 -0.1528 -0.5267
  111MOL    C8535505   3.882   1.506   5.749  0.3435 -0.4672 -0.0379
  111MOL    C8635506   3.741   1.525   5.737 -0.2512  0.3761 -1.0582
  111MOL    F8735507   3.660   1.417   5.728 -0.3800  0.0406  0.0447
  111MOL    C8835508   3.687   1.660   5.725  0.8169  0.3405 -0.5808
  111MOL    C8935509   3.771   1.772   5.720 -0.6824 -0.4246 -0.6148
  111MOL    C9035510   4.029   1.935   5.577  0.5027  0.3120 -0.8529
  111MOL    H9135511   4.095   1.851   5.774 -0.8216  0.8172  0.3780
  111MOL    H9235512   4.069   1.614   5.773  0.2628 -0.6402 -2.3266
  111MOL    H9335513   3.922   1.407   5.765 -0.0609 -0.5457  0.4816
  111MOL    H9435514   3.580   1.672   5.711  0.7903  0.3520 -0.3624
  111MOL    H9535515   3.724   1.869   5.709 -0.0693 -0.1162 -0.5552
  111MOL    H9635516   3.940   1.902   5.522  0.3336  0.2765 -0.5584
  111MOL    H9735517   4.036   2.043   5.563  0.6192  0.2838 -1.0112
  111MOL    C9835518   4.154   1.867   5.516 -0.2353 -0.2928 -0.3542
  111MOL    C9935519   4.140   1.865   5.363  0.4671  0.2626 -0.2423
  111MOL   C10035520   4.147   1.981   5.283  0.4352  0.7968  0.5727
  111MOL   C10135521   4.152   1.971   5.145  0.3902  0.5903 -0.1955
  111MOL   C10235522   4.111   1.855   5.084  0.1647  0.1784  0.1061
  111MOL   F10335523   4.091   1.853   4.949  0.4032  0.4387  0.1082
  111MOL   C10435524   4.090   1.734   5.159 -0.4665 -0.5725  0.4259
  111MOL   C10535525   4.114   1.738   5.303  0.0435  0.8932  0.8566
  111MOL   C10635526   4.286   1.929   5.567 -0.0706  0.4550 -0.0020
  111MOL   H10735527   4.142   1.767   5.558 -1.9137 -0.2879 -0.8028
  111MOL   H10835528   4.179   2.073   5.332  0.7553  0.6568  0.6330
  111MOL   H10935529   4.185   2.057   5.088  0.2575  0.2352 -0.8137
  111MOL   H11035530   4.060   1.638   5.119 -1.5534 -0.6476  1.3628
  111MOL   H11135531   4.108   1.652   5.368 -0.1255  0.4325  0.2334
  111MOL   H11235532   4.280   2.031   5.530 -1.2391  0.7475  0.9615
  111MOL   H11335533   4.290   1.923   5.676  1.9603  1.0256 -0.0282
  111MOL   C11435534   4.404   1.859   5.494 -0.0579 -0.2859  0.0746
  111MOL   C11535535   4.529   1.944   5.503  0.0140  0.3208 -0.9033
  111MOL   C11635536   4.591   1.944   5.628 -0.1191 -0.4491 -0.2833
  111MOL   C11735537   4.705   2.024   5.650 -0.3936 -0.2959 -0.2842
  111MOL   C11835538   4.760   2.097   5.547 -0.5959  0.1081 -0.2033
  111MOL   F11935539   4.875   2.166   5.570  0.1065  0.9050  0.2951
  111MOL   C12035540   4.687   2.108   5.427  0.5402 -0.6488 -0.0422
  111MOL   C12135541   4.566   2.040   5.409 -0.0179  0.2630  0.1796
  111MOL   C12235542   4.419   1.699   5.529 -1.0112 -0.9819  0.0315
  111MOL   H12335543   4.382   1.863   5.387  0.8790  0.6142 -0.0977
  111MOL   H12435544   4.559   1.894   5.718  0.2212  1.5461  0.9903
  111MOL   H12535545   4.753   2.015   5.746 -0.2599  1.9319 -0.1294
  111MOL   H12635546   4.728   2.173   5.351  1.4097 -0.8849  0.2141
  111MOL   H12735547   4.513   2.041   5.315  1.3177  3.5087 -0.5886
  111MOL   H12835548   4.378   1.685   5.629 -0.4345 -0.7921  0.2984
  111MOL   H12935549   4.341   1.653   5.469 -3.4781  1.6446  1.1062
  111MOL   C13035550   4.555   1.637   5.511 -0.2026  0.3405 -0.0087
  111MOL   C13135551   4.568   1.504   5.585  0.5717 -0.1526 -0.3438
  111MOL   C13235552   4.491   1.391   5.554  0.0719 -0.6231 -1.5268
  111MOL   C13335553   4.513   1.269   5.615 -0.4599 -0.3364 -0.6667
  111MOL   C13435554   4.626   1.248   5.697  0.0199 -0.4264  0.2690
  111MOL   F13535555   4.654   1.127   5.748  0.0137  0.6299 -0.1314
  111MOL   C13635556   4.709   1.360   5.726  0.0932 -0.0526 -0.5830
  111MOL   C13735557   4.683   1.485   5.666 -0.2965  0.7539 -0.1779
  111MOL   C13835558   4.602   1.640   5.365 -0.1157 -0.0560  0.8829
  111MOL   H13935559   4.624   1.701   5.566  2.4659 -1.6458 -0.9043
  111MOL   H14035560   4.400   1.391   5.495 -2.3424  1.3536  1.9645
  111MOL   H14135561   4.447   1.186   5.593  0.0908 -0.0665 -3.4719
  111MOL   H14235562   4.803   1.344   5.777  0.5034  1.3092 -0.9023
  111MOL   H14335563   4.753   1.566   5.675 -0.3295  0.7194  0.3970
  111MOL   H14435564   4.535   1.586   5.298 -0.4690 -2.0718  2.8130
  111MOL   H14535565   4.598   1.740   5.323 -2.5233  0.0087  1.1646
  111MOL   C14635566   4.737   1.587   5.329  0.1142 -0.2282 -0.2328
  111MOL   C14735567   4.746   1.539   5.180  0.4540  0.0183  0.6633
  111MOL   C14835568   4.676   1.606   5.076  0.2104 -0.3638  0.2557
  111MOL   C14935569   4.683   1.554   4.947  0.0055 -0.2593 -0.2117
  111MOL   C15035570   4.785   1.461   4.915  0.8494  0.5617 -0.3968
  111MOL   F15135571   4.813   1.436   4.784  0.0395 -0.0444 -0.2570
  111MOL   C15235572   4.856   1.397   5.017 -0.2964  0.2733  0.4706
  111MOL   C15335573   4.834   1.432   5.152  0.3373  0.5371 -0.2404
  111MOL   C15435574   4.837   1.702   5.370 -0.6753  0.1449 -0.0017
  111MOL   H15535575   4.758   1.504   5.397  0.9307 -0.1177 -0.3445
  111MOL   H15635576   4.619   1.692   5.109 -0.5418 -1.4954  2.0059
  111MOL   H15735577   4.626   1.603   4.869  1.2652  0.4183 -0.7292
  111MOL   H15835578   4.924   1.324   4.976 -0.7039 -0.4901  1.1206
  111MOL   H15935579   4.892   1.382   5.227 -0.6059  0.1333  0.2345
  111MOL   H16035580   4.879   1.744   5.279  0.0295  0.5129  0.4851
  111MOL   H16135581   4.789   1.786   5.421 -0.8351  0.9358 -1.4270
  111MOL   C16235582   4.943   1.674   5.465 -0.9126  0.5053  0.5969
  111MOL   C16335583   5.030   1.564   5.406  0.5217 -0.0813 -0.4034
  111MOL   C16435584   5.038   1.438   5.469  0.2727 -0.2033 -0.2303
  111MOL   C16535585   5.111   1.333   5.403  0.4372 -0.2590 -0.0975
  111MOL   C16635586   5.167   1.355   5.276  0.1924  0.5344  0.2611
  111MOL   F16735587   5.212   1.247   5.207 -0.0276 -0.2899  0.2967
  111MOL   C16835588   5.166   1.484   5.220 -0.1783 -0.4592  0.1556
  111MOL   C16935589   5.100   1.589   5.287  0.0604 -0.3372  0.5162
  111MOL   C17035590   5.030   1.800   5.497  0.2640  0.0273  0.2719
  111MOL   H17135591   4.898   1.651   5.561 -3.1498 -0.5861 -0.6777
  111MOL   H17235592   4.983   1.418   5.559  0.3995  2.2773  0.4459
  111MOL   H17335593   5.101   1.233   5.444  0.0526 -0.0021  0.4423
  111MOL   H17435594   5.207   1.506   5.122 -0.1643  1.0465  0.4929
  111MOL   H17535595   5.087   1.685   5.239  0.4368 -0.0560  0.9746
  111MOL   H17635596   5.081   1.826   5.404  1.2517  0.9973  1.0808
  111MOL   H17735597   4.968   1.888   5.514  0.9601  0.2238  1.7966
  111MOL   C17835598   5.128   1.770   5.612 -0.3025  0.3355  0.0707
  111MOL   C17935599   5.251   1.860   5.596  0.3861 -0.3521 -0.1562
  111MOL   C18035600   5.372   1.808   5.541  0.3481 -0.2841  0.5732
  111MOL   C18135601   5.483   1.895   5.514  0.3894 -0.5740 -0.0365
  111MOL   C18235602   5.460   2.034   5.529 -0.2458 -0.1553  0.2808
  111MOL   F18335603   5.567   2.114   5.514 -0.5519 -0.3611 -0.1659
  111MOL   C18435604   5.336   2.089   5.566 -0.2624 -0.2043  0.2428
  111MOL   C18535605   5.234   2.001   5.603  0.4550 -0.3000 -0.3806
  111MOL   C18635606   5.062   1.785   5.752  0.5505 -0.0257  0.4387
  111MOL   H18735607   5.163   1.667   5.599 -2.4502 -0.3153 -0.8693
  111MOL   H18835608   5.375   1.702   5.523  0.9795 -0.5925  2.4150
  111MOL   H18935609   5.577   1.852   5.484  1.7975  2.2844  0.1152
  111MOL   H19035610   5.335   2.196   5.579  2.3161 -0.0418 -0.6592
  111MOL   H19135611   5.149   2.055   5.641  1.3700 -1.2096  3.2274
  111MOL   H19235612   5.058   1.892   5.770 -0.6804 -0.1507  1.0160
  111MOL   H19335613   4.961   1.743   5.750  0.7355 -0.4590  0.0639
  111MOL   C19435614   5.135   1.713   5.868  0.0734  0.2615 -0.0586
  111MOL   C19535615   5.093   1.773   6.000 -0.1549  0.4987 -0.5819
  111MOL   C19635616   5.188   1.837   6.085  0.1274 -0.2557  0.0299
  111MOL   C19735617   5.151   1.889   6.212 -1.2100  0.4244 -0.2742
  111MOL   C19835618   5.022   1.865   6.259  0.3248 -0.4301  0.2793
  111MOL   F19935619   4.983   1.900   6.381  0.0723 -0.3611 -0.1920
  111MOL   C20035620   4.929   1.796   6.179 -0.2936  0.3563 -1.1679
  111MOL   C20135621   4.965   1.754   6.050 -0.2271  0.4222  0.1332
  111MOL   C20235622   5.116   1.556   5.861 -0.4054 -0.0956  0.1749
  111MOL   H20335623   5.241   1.735   5.851  0.2191 -0.2573  0.1569
  111MOL   H20435624   5.292   1.852   6.058  0.4392  3.1013  2.7951
  111MOL   H20535625   5.227   1.938   6.271 -0.9867  0.8329 -0.8973
  111MOL   H20635626   4.828   1.792   6.217  0.4332 -1.1671  0.7387
  111MOL   H20735627   4.898   1.707   5.979  1.6672  0.0779 -1.4464
  111MOL   H20835628   5.011   1.527   5.865 -0.8215  1.3940  0.2874
  111MOL   H20935629   5.153   1.522   5.764 -0.3956 -1.0798  0.5111
  111MOL   C21035630   5.201   1.484   5.976  0.6231 -1.0622 -0.2577
  111MOL   C21135631   5.104   1.419   6.074 -0.1312  0.2548  0.4299
  111MOL   C21235632   5.002   1.325   6.037 -0.1930  0.0712  0.0505
  111MOL   C21335633   4.916   1.276   6.137 -0.5968  0.2242 -0.3685
  111MOL   C21435634   4.930   1.304   6.271 -0.6570  0.9832 -0.0445
  111MOL   F21535635   4.849   1.257   6.370  0.1837 -0.0224  0.3677
  111MOL   C21635636   5.046   1.380   6.308  0.5490  0.3393 -0.2296
  111MOL   C21735637   5.121   1.444   6.212 -0.2199  0.0820  0.2127
  111MOL   C21835638   5.283   1.369   5.918  0.1396 -0.1491  0.0172
  111MOL   H21935639   5.261   1.553   6.035 -0.6052  0.5890 -0.9156
  111MOL   H22035640   4.982   1.301   5.933  1.0971 -0.0432 -0.1758
  111MOL   H22135641   4.829   1.221   6.103  0.1081 -0.3633 -1.2476
  111MOL   H22235642   5.062   1.380   6.415  1.1654 -2.4740 -0.2871
  111MOL   H22335643   5.202   1.511   6.237  0.1733 -0.5315  0.5747
  111MOL   H22435644   5.329   1.329   6.008 -0.7098 -0.9235  0.1146
  111MOL   H22535645   5.225   1.284   5.883  1.0298 -1.2095  1.0833
  111MOL   C22635646   5.400   1.403   5.822 -0.2349  0.3439 -0.2753
  111MOL   C22735647   5.495   1.500   5.893  0.2417 -0.1183  0.0425
  111MOL   C22835648   5.509   1.634   5.840  0.1243 -0.2055  0.0468
  111MOL   C22935649   5.597   1.721   5.909 -0.8468 -0.1573 -0.0625
  111MOL   C23035650   5.659   1.679   6.028 -0.0979 -0.5002 -0.6819
  111MOL   F23135651   5.727   1.769   6.101 -0.5417 -0.3844  0.3210
  111MOL   C23235652   5.635   1.550   6.080 -0.5684  0.0852 -0.3954
  111MOL   C23335653   5.550   1.457   6.014  0.3196 -0.0124  0.2091
  111MOL   C23435654   5.475   1.279   5.780  0.5411  0.1947  0.1146
  111MOL   H23535655   5.366   1.454   5.733  0.4779  1.7592  0.2445
  111MOL   H23635656   5.462   1.659   5.746  1.4097 -1.8561 -1.0575
  111MOL   H23735657   5.608   1.821   5.869 -0.9466 -0.4428 -0.8135
  111MOL   H23835658   5.677   1.511   6.171  2.0424 -2.8814 -2.7247
  111MOL   H23935659   5.533   1.357   6.052  2.0911  0.5811  2.6756
  111MOL   H24035660   5.558   1.244   5.841  1.0795  1.9253  0.3953
  111MOL   H24135661   5.402   1.197   5.783  0.1991  0.4830 -0.2713
  111MOL   C24235662   5.520   1.269   5.636  0.4173 -0.4559  0.1319
  111MOL   C24335663   5.606   1.387   5.593 -0.3712 -0.5207  0.9516
  111MOL   C24435664   5.715   1.427   5.678  0.3493  0.4965 -0.1232
  111MOL   C24535665   5.796   1.534   5.643 -0.4051 -0.7113  0.2781
  111MOL   C24635666   5.773   1.595   5.515 -0.6432  0.0147  0.0929
  111MOL   F24735667   5.851   1.702   5.483 -0.0622 -0.1069  0.5466
  111MOL   C24835668   5.680   1.550   5.426 -0.2054  0.0329  0.3345
  111MOL   C24935669   5.593   1.449   5.467  0.0526 -0.9020  0.0914
  111MOL   C25035670   5.599   1.131   5.608 -0.3104 -0.2620 -0.5494
  111MOL   H25135671   5.429   1.262   5.577 -0.2102 -1.6126  1.2211
  111MOL   H25235672   5.734   1.375   5.772  2.8287  0.7868 -0.4318
  111MOL   H25335673   5.867   1.583   5.708 -0.4566  0.3800 -0.4857
  111MOL   H25435674   5.685   1.587   5.324  0.4655 -0.6131  0.1325
  111MOL   H25535675   5.530   1.415   5.386  1.5589 -0.7878 -1.1609
  111MOL   H25635676   5.619   1.123   5.501 -1.1145  0.9167 -0.8061
  111MOL   H25735677   5.697   1.139   5.655 -0.1383  1.8166 -1.2033
  111MOL   C25835678   5.527   0.995   5.644  0.1407  0.1067 -0.6864
  111MOL   C25935679   5.371   0.989   5.620 -0.1005 -0.7273 -0.4013
  111MOL   C26035680   5.281   0.966   5.729 -0.2488  0.5670  0.9580
  111MOL   C26135681   5.148   0.928   5.710  0.2724 -0.0172 -0.1961
  111MOL   C26235682   5.102   0.929   5.575  0.3767 -0.0622  0.0389
  111MOL   F26335683   4.969   0.908   5.553 -0.0887 -0.2633  0.4139
  111MOL   C26435684   5.191   0.951   5.468 -0.1152 -0.0270 -0.1629
  111MOL   C26535685   5.327   0.981   5.487  0.0414 -0.1985 -0.3108
  111MOL   C26635686   5.603   0.866   5.615 -0.1740  0.3062  0.3539
  111MOL   H26735687   5.536   1.003   5.753 -2.1593 -0.8842 -0.3849
  111MOL   H26835688   5.326   0.972   5.827  0.0376  0.3493  0.8433
  111MOL   H26935689   5.077   0.906   5.788  0.5958  0.6870  0.2957
  111MOL   H27035690   5.149   0.953   5.369 -0.0365  0.4074 -0.1867
  111MOL   H27135691   5.389   1.000   5.401 -0.0052  1.2749 -0.0258
  111MOL   H27235692   5.580   0.844   5.511  0.4845 -1.6642  0.5882
  111MOL   H27335693   5.712   0.877   5.610  0.1793 -2.8751 -0.2790
  111MOL   C27435694   5.547   0.748   5.696  0.2696 -0.2587  0.2000
  111MOL   C27535695   5.575   0.614   5.628  0.6661 -0.4007  0.0470
  111MOL   C27635696   5.696   0.581   5.575 -0.2299  0.5083 -0.2629
  111MOL   C27735697   5.715   0.459   5.515 -0.7842 -0.5428  0.0682
  111MOL   C27835698   5.609   0.365   5.507 -0.5199  0.0958 -0.2128
  111MOL   F27935699   5.632   0.241   5.461 -0.0108 -0.4841  0.6457
  111MOL   C28035700   5.483   0.395   5.570 -0.7021  0.9595  0.6187
  111MOL   C28135701   5.471   0.521   5.625  0.0856  0.4370  0.3404
  111MOL   C28235702   5.596   0.744   5.845 -0.0977 -0.2539  0.6500
  111MOL   H28335703   5.439   0.758   5.713  0.1966 -3.4673  2.0118
  111MOL   H28435704   5.784   0.643   5.567  1.1919 -0.9950  2.7238
  111MOL   H28535705   5.813   0.441   5.474  0.2089  0.7030  1.8335
  111MOL   H28635706   5.400   0.326   5.571  0.4137 -0.4569 -1.0974
  111MOL   H28735707   5.372   0.547   5.661  0.4720  0.5807  1.3001
  111MOL   H28835708   5.532   0.813   5.900  0.0358 -0.7506  1.4346
  111MOL   H28935709   5.580   0.643   5.883 -1.0567 -0.1172  0.6340
  111MOL   C29035710   5.743   0.771   5.878 -0.3566 -0.2823  0.4683
  111MOL   C29135711   5.785   0.916   5.895  0.5024  0.8907 -0.1259
  111MOL   C29235712   5.881   0.980   5.812  0.3765  0.3655 -0.0959
  111MOL   C29335713   5.915   1.110   5.836  0.1587  0.2067 -0.4618
  111MOL   C29435714   5.857   1.190   5.937 -0.4285  0.0305  0.5641
  111MOL   F29535715   5.900   1.315   5.957  0.0476 -0.0246  0.8177
  111MOL   C29635716   5.753   1.134   6.019 -1.0830  0.7467 -1.0681
  111MOL   C29735717   5.715   0.998   5.992  0.2328 -0.1018  0.0246
  111MOL   C29835718   5.787   0.686   5.999 -0.1112  0.8975 -0.3151
  111MOL   H29935719   5.808   0.730   5.801 -0.1876  0.4630  0.2037
  111MOL   H30035720   5.926   0.920   5.735 -1.6495  1.1943 -1.9915
  111MOL   H30135721   5.999   1.152   5.781  0.2512  0.3268 -0.2299
  111MOL   H30235722   5.710   1.196   6.097 -0.7238 -0.1135 -0.1771
  111MOL   H30335723   5.632   0.961   6.050  0.8630 -0.5896  0.6093
  111MOL   H30435724   5.870   0.743   6.040  0.8247  1.1441 -2.4832
  111MOL   H30535725   5.717   0.677   6.082  1.4489  1.6151  1.1015
  111MOL   C30635726   5.873   0.557   5.973  0.0136 -0.1101 -0.1318
  111MOL   C30735727   5.963   0.516   6.087 -0.1668 -0.4267  0.1071
  111MOL   C30835728   6.107   0.521   6.073 -0.0396  0.1441 -0.4339
  111MOL   C30935729   6.190   0.484   6.182  0.8436 -0.3147 -0.0134
  111MOL   C31035730   6.128   0.445   6.308 -0.3896  0.4138  0.1103
  111MOL   F31135731   6.199   0.419   6.417 -0.4708 -0.1008  0.5298
  111MOL   C31235732   5.988   0.447   6.316 -0.0247  0.0865  0.3776
  111MOL   C31335733   5.906   0.477   6.207 -0.0706 -0.2725 -0.2602
  111MOL   C31435734   5.769   0.451   5.939  0.2376 -0.2628  0.5002
  111MOL   H31535735   5.930   0.573   5.882 -1.0531  0.1119 -0.7666
  111MOL   H31635736   6.144   0.550   5.976 -3.4901  0.3448 -1.7687
  111MOL   H31735737   6.298   0.484   6.180  0.8344  1.3595 -0.5459
  111MOL   H31835738   5.937   0.422   6.408  2.6602 -3.3698  1.0390
  111MOL   H31935739   5.799   0.474   6.227  0.3898 -0.0074  2.4483
  111MOL   H32035740   5.815   0.352   5.932 -1.2644 -1.0671  1.8018
  111MOL   H32135741   5.691   0.447   6.015 -0.2139  0.9177  0.1058
  111MOL   H32235742   5.736   0.483   5.840 -2.3198 -0.4622  1.2347
  112MOL     C135743   1.698   6.676   0.413  0.0787  0.2537  0.1817
  112MOL     C235744   1.791   6.682   0.536 -0.5984 -0.0894 -0.2147
  112MOL     C335745   1.934   6.680   0.510 -0.5710  0.7672 -0.8040
  112MOL     C435746   2.030   6.695   0.616  0.4712 -0.2362  0.3325
  112MOL     C535747   1.981   6.702   0.746  0.0493 -0.0233  0.5651
  112MOL     F635748   2.065   6.706   0.852 -0.1470  0.4336  0.3910
  112MOL     C735749   1.842   6.699   0.771 -0.1463 -0.3082  0.5600
  112MOL     C835750   1.751   6.688   0.671  0.2476 -0.1801  0.2626
  112MOL     C935751   1.714   6.795   0.317  0.0844  0.0926  0.0240
  112MOL    H1035752   1.596   6.671   0.453 -0.5898 -0.4372 -1.5646
  112MOL    H1135753   1.970   6.679   0.409  3.7434 -0.8880  0.6310
  112MOL    H1235754   2.135   6.706   0.594  0.3725 -2.5758 -1.6112
  112MOL    H1335755   1.794   6.703   0.868 -1.1189  2.4295  0.0235
  112MOL    H1435756   1.645   6.684   0.694  0.0831 -4.4380 -0.7564
  112MOL    H1535757   1.708   6.891   0.367 -0.4392 -1.0970  2.3059
  112MOL    H1635758   1.816   6.792   0.278 -0.2300  1.6058 -0.9287
  112MOL    H1735759   1.714   6.581   0.364  0.4326  1.5225 -2.2251
  112MOL    C1835760   1.614   6.803   0.205  0.0757 -0.1579  0.0278
  112MOL    C1935761   1.504   6.910   0.237 -0.5378 -0.6450  0.1370
  112MOL    C2035762   1.391   6.875   0.313  0.5227  0.4004 -0.3159
  112MOL    C2135763   1.291   6.968   0.343  0.4831  0.0424  0.6354
  112MOL    C2235764   1.311   7.106   0.320  0.3909  0.0101  0.1976
  112MOL    F2335765   1.216   7.197   0.343  0.3983  0.5832  0.0113
  112MOL    C2435766   1.424   7.141   0.251  0.0552 -0.5373  0.1417
  112MOL    C2535767   1.514   7.044   0.199 -0.2363 -0.1504  0.2983
  112MOL    C2635768   1.682   6.811   0.063  0.2431 -0.6251  0.1598
  112MOL    H2735769   1.564   6.707   0.190  0.1607 -0.0989 -0.6512
  112MOL    H2835770   1.383   6.770   0.338 -0.9627  0.7488  0.6874
  112MOL    H2935771   1.204   6.930   0.394 -0.5146 -0.7897 -1.6019
  112MOL    H3035772   1.435   7.247   0.233  1.1312 -0.4675  1.1409
  112MOL    H3135773   1.600   7.081   0.145 -0.0463  0.9894  1.3788
  112MOL    H3235774   1.596   6.827   8.232 -0.3899 -1.2292  0.8353
  112MOL    H3335775   1.739   6.904   0.066  1.1591 -1.2224  1.8424
  112MOL    C3435776   1.774   6.697   0.005 -0.3464  0.3122 -0.2374
  112MOL    C3535777   1.694   6.564   0.023  0.0893  0.0331  0.6500
  112MOL    C3635778   1.729   6.469   0.121  0.4381 -0.0414 -0.3080
  112MOL    C3735779   1.651   6.353   0.142  0.4249 -0.0836  0.2597
  112MOL    C3835780   1.545   6.329   0.054 -0.1799 -0.0217 -0.3000
  112MOL    F3935781   1.459   6.226   0.065 -0.2011 -0.0158  0.1042
  112MOL    C4035782   1.503   6.432   8.199  0.1812 -0.2126  0.0265
  112MOL    C4135783   1.579   6.547   8.176 -0.3556  0.4790  0.2755
  112MOL    C4235784   1.828   6.708   8.097  0.4169  0.3308  0.2753
  112MOL    H4335785   1.861   6.689   0.070 -0.6245  0.7255  0.1933
  112MOL    H4435786   1.815   6.481   0.186 -1.0566 -1.2152  1.9784
  112MOL    H4535787   1.674   6.277   0.215 -1.5917  0.5279  1.5753
  112MOL    H4635788   1.405   6.418   8.157 -0.5814  1.1078  1.3025
  112MOL    H4735789   1.546   6.620   8.103 -1.3010 -0.1756  0.0497
  112MOL    H4835790   1.745   6.699   8.027  1.2566  1.1289 -0.8431
  112MOL    H4935791   1.871   6.806   8.073  2.0318 -0.3696  0.2115
  112MOL    C5035792   1.930   6.599   8.063 -0.9664 -0.3410 -0.2661
  112MOL    C5135793   1.878   6.466   8.023  0.2978  0.0034 -0.2575
  112MOL    C5235794   1.914   6.351   8.097 -0.4808  0.5076 -0.0360
  112MOL    C5335795   1.881   6.224   8.053  0.0237  0.7115  0.5458
  112MOL    C5435796   1.802   6.212   7.941  0.7667 -0.8025  0.6285
  112MOL    F5535797   1.759   6.090   7.902  0.3892  0.2970  0.0143
  112MOL    C5635798   1.764   6.323   7.863 -0.0296  0.4407 -0.2445
  112MOL    C5735799   1.795   6.449   7.910  0.5338  0.1345 -0.0351
  112MOL    C5835800   2.036   6.649   7.962  0.0189  0.4401  0.2563
  112MOL    H5935801   1.968   6.564   8.159 -1.6939 -2.2112 -0.6369
  112MOL    H6035802   1.983   6.365   8.179 -0.3422  1.9360 -0.3730
  112MOL    H6135803   1.899   6.133   8.108  1.1547  0.4894 -0.1720
  112MOL    H6235804   1.702   6.304   7.776 -1.3802 -2.9285  1.3992
  112MOL    H6335805   1.757   6.535   7.858  1.3944  1.0674  0.8431
  112MOL    H6435806   2.100   6.562   7.958 -1.1703 -0.5148  1.5606
  112MOL    H6535807   1.996   6.649   7.860  0.6953 -1.0563 -0.0228
  112MOL    C6635808   2.118   6.779   8.002  0.5722 -0.1684  0.4386
  112MOL    C6735809   2.154   6.767   8.145  0.0191 -0.9812  0.1165
  112MOL    C6835810   2.112   6.869   0.003 -0.1779 -0.1077  0.4001
  112MOL    C6935811   2.150   6.858   0.137 -0.5088  0.5575  0.2462
  112MOL    C7035812   2.226   6.750   0.184 -0.4764 -0.1605  0.3332
  112MOL    F7135813   2.271   6.742   0.313 -0.7395 -0.3107 -0.0892
  112MOL    C7235814   2.269   6.651   0.093 -0.6641  0.1377 -1.1143
  112MOL    C7335815   2.230   6.655   8.192 -0.5669 -0.0012 -0.6889
  112MOL    C7435816   2.239   6.791   7.897  0.3590  0.3157 -0.5451
  112MOL    H7535817   2.054   6.867   8.006  1.5033  0.5075  0.7016
  112MOL    H7635818   2.053   6.952   8.202  1.5707  0.8601 -0.3530
  112MOL    H7735819   2.126   6.943   0.200  2.8246  1.5110  0.3158
  112MOL    H7835820   2.340   6.580   0.133 -2.2274 -2.1457 -2.2857
  112MOL    H7935821   2.261   6.583   8.117  0.8591 -1.3363  1.1566
  112MOL    H8035822   2.304   6.864   7.945  3.2063 -1.5382 -1.4543
  112MOL    H8135823   2.290   6.695   7.899 -1.8536 -0.8975  0.4548
  112MOL    C8235824   2.219   6.841   7.756  0.3492 -0.3542  0.2805
  112MOL    C8335825   2.134   6.970   7.749  0.3102  0.6168  0.1047
  112MOL    C8435826   2.026   6.977   7.651 -0.0866  0.5627 -0.4995
  112MOL    C8535827   1.947   7.096   7.645  0.3231  0.4838  0.4143
  112MOL    C8635828   1.965   7.201   7.732 -0.2906  0.1381  0.2890
  112MOL    F8735829   1.890   7.317   7.733  0.6589 -0.1286  0.3482
  112MOL    C8835830   2.081   7.200   7.807 -0.4220 -0.6346 -0.0511
  112MOL    C8935831   2.163   7.084   7.820 -0.0959  0.8643  0.1851
  112MOL    C9035832   2.358   6.864   7.683 -0.0152 -0.0739 -0.3007
  112MOL    H9135833   2.172   6.765   7.693  0.8590 -1.0168  0.6885
  112MOL    H9235834   1.994   6.895   7.589 -1.4032 -0.7431  1.8378
  112MOL    H9335835   1.857   7.090   7.586 -0.2091 -2.7816  1.4538
  112MOL    H9435836   2.094   7.288   7.869  0.5589 -0.8904  0.1125
  112MOL    H9535837   2.255   7.090   7.877 -0.3039 -1.3793  0.8019
  112MOL    H9635838   2.345   6.928   7.596  2.6569 -0.1560 -0.7987
  112MOL    H9735839   2.427   6.911   7.753  1.3136 -1.4887 -0.6189
  112MOL    C9835840   2.440   6.741   7.636 -1.0633  0.2504  0.8079
  112MOL    C9935841   2.363   6.651   7.539  0.0805 -0.2280  0.4830
  112MOL   C10035842   2.265   6.710   7.459 -0.3496  0.0135  0.9952
  112MOL   C10135843   2.189   6.630   7.362  0.5358 -0.4493 -0.1511
  112MOL   C10235844   2.206   6.493   7.353 -0.0822  0.2455  0.0998
  112MOL   F10335845   2.138   6.418   7.264  0.0051 -0.1573  0.7649
  112MOL   C10435846   2.306   6.434   7.431 -0.1826  0.4601 -0.7341
  112MOL   C10535847   2.381   6.512   7.524  0.2414 -0.2544  0.1037
  112MOL   C10635848   2.578   6.790   7.568 -0.0169  0.7843  0.5258
  112MOL   H10735849   2.458   6.681   7.725 -0.2104  0.1899  0.5958
  112MOL   H10835850   2.245   6.816   7.455 -0.0374  0.0498  0.2132
  112MOL   H10935851   2.119   6.676   7.293  1.6821  0.7054 -0.5678
  112MOL   H11035852   2.332   6.329   7.425 -0.4289  0.2390  1.4868
  112MOL   H11135853   2.460   6.462   7.578 -0.1157  1.3788  2.2240
  112MOL   H11235854   2.629   6.836   7.652  0.3843 -0.6914  1.1203
  112MOL   H11335855   2.642   6.704   7.549 -1.3204  0.0493 -0.6918
  112MOL   C11435856   2.584   6.887   7.449 -0.1731  0.4439  0.0306
  112MOL   C11535857   2.727   6.934   7.433  0.0079 -0.0887 -0.4041
  112MOL   C11635858   2.823   6.840   7.376  0.6638 -0.3337  0.1536
  112MOL   C11735859   2.955   6.873   7.344 -0.3261 -1.4603  0.6300
  112MOL   C11835860   3.002   7.010   7.370 -0.0433 -0.0852 -0.0382
  112MOL   F11935861   3.129   7.063   7.340  0.0670  0.3966  0.6930
  112MOL   C12035862   2.907   7.101   7.421  0.0226 -0.3353  1.1074
  112MOL   C12135863   2.776   7.064   7.452 -0.6275 -0.5616  0.5788
  112MOL   C12235864   2.537   6.839   7.311 -0.5400  0.4823  0.4787
  112MOL   H12335865   2.530   6.977   7.478 -1.8168  0.3243 -2.4231
  112MOL   H12435866   2.791   6.739   7.356  0.2707 -0.1834  0.0185
  112MOL   H12535867   3.020   6.799   7.298 -0.4984 -0.8844 -0.5703
  112MOL   H12635868   2.942   7.200   7.449 -0.7350  0.4804 -0.7516
  112MOL   H12735869   2.710   7.135   7.501 -2.2622 -2.0271  0.5542
  112MOL   H12835870   2.574   6.737   7.304 -0.6843  0.3499  1.6267
  112MOL   H12935871   2.430   6.818   7.307 -0.6378  0.7390  1.6209
  112MOL   C13035872   2.577   6.923   7.186  0.5299 -0.4966  0.2121
  112MOL   C13135873   2.564   6.850   7.049 -0.3004 -0.3107  0.2813
  112MOL   C13235874   2.674   6.844   6.967  0.5720  0.6787 -0.1756
  112MOL   C13335875   2.671   6.767   6.849 -0.3518 -0.2406  0.0279
  112MOL   C13435876   2.554   6.712   6.800 -0.3710 -0.6394  0.1413
  112MOL   F13535877   2.552   6.635   6.685 -0.4418  0.6310  0.3629
  112MOL   C13635878   2.443   6.722   6.885 -0.3034 -0.0334 -0.0776
  112MOL   C13735879   2.445   6.790   7.008 -0.4393 -0.2684 -0.2610
  112MOL   C13835880   2.500   7.060   7.182 -0.0615  0.2579 -0.6497
  112MOL   H13935881   2.684   6.943   7.189  0.2414  1.0772  0.9179
  112MOL   H14035882   2.769   6.889   6.993 -0.7714  1.2294  4.2341
  112MOL   H14135883   2.757   6.740   6.790  1.7405  0.0154  2.8569
  112MOL   H14235884   2.359   6.663   6.853 -0.7050  1.2678 -1.4943
  112MOL   H14335885   2.369   6.775   7.083  1.7573 -1.6783  1.7629
  112MOL   H14435886   2.423   7.053   7.105 -1.5859  0.5257  0.8250
  112MOL   H14535887   2.446   7.070   7.276  1.6187  2.1320  0.1670
  112MOL   C14635888   2.591   7.186   7.162  0.3383  0.4375 -0.6964
  112MOL   C14735889   2.661   7.184   7.029  0.3452  0.0611 -0.8529
  112MOL   C14835890   2.799   7.184   7.023 -0.7353  0.0817  0.1801
  112MOL   C14935891   2.863   7.174   6.900 -0.0305  0.7316  0.6401
  112MOL   C15035892   2.787   7.174   6.781  0.6721  0.2637 -0.2345
  112MOL   F15135893   2.848   7.187   6.664 -0.1196  0.1930  0.2021
  112MOL   C15235894   2.645   7.174   6.781  0.8510 -0.1741 -0.4505
  112MOL   C15335895   2.583   7.185   6.907 -0.0831 -0.8168  0.4546
  112MOL   C15435896   2.521   7.326   7.185  0.3414 -0.1986  0.3274
  112MOL   H15535897   2.674   7.178   7.232  0.7829 -1.4750 -1.4184
  112MOL   H15635898   2.866   7.181   7.107  0.8676 -0.2024 -1.0837
  112MOL   H15735899   2.970   7.172   6.901  0.0020 -0.0771 -1.2663
  112MOL   H15835900   2.588   7.165   6.690  0.7972 -0.6886 -0.3648
  112MOL   H15935901   2.475   7.184   6.910 -0.2273  0.1765 -2.7467
  112MOL   H16035902   2.476   7.369   7.095 -0.2908 -0.9284  0.3004
  112MOL   H16135903   2.436   7.307   7.249  0.3228 -1.3124 -0.0150
  112MOL   C16235904   2.619   7.418   7.263  0.0284  0.1247  0.3520
  112MOL   C16335905   2.731   7.479   7.176  0.6127 -0.2033 -0.4003
  112MOL   C16435906   2.864   7.475   7.227  0.1143  0.0165 -0.0052
  112MOL   C16535907   2.975   7.516   7.158 -0.2552  0.2896 -0.1510
  112MOL   C16635908   2.961   7.576   7.034 -0.2615  0.0475  0.1916
  112MOL   F16735909   3.069   7.628   6.963 -0.4475  0.8578  0.0525
  112MOL   C16835910   2.832   7.582   6.979 -0.7217  0.2692 -0.2537
  112MOL   C16935911   2.715   7.535   7.044 -0.4234  0.8076  0.5342
  112MOL   C17035912   2.539   7.540   7.321 -0.8490  0.1429  0.5338
  112MOL   H17135913   2.665   7.360   7.343 -0.6726 -1.7987 -0.6248
  112MOL   H17235914   2.881   7.438   7.327  1.4888 -0.4842 -0.4074
  112MOL   H17335915   3.068   7.519   7.213 -1.2502  0.3988  1.5631
  112MOL   H17435916   2.817   7.627   6.882  0.4804  0.3448 -0.4203
  112MOL   H17535917   2.621   7.536   6.991  1.1523  1.7601 -2.3545
  112MOL   H17635918   2.616   7.608   7.358 -1.1829  1.8306 -1.8177
  112MOL   H17735919   2.488   7.592   7.240  0.6560  1.2874  0.2993
  112MOL   C17835920   2.443   7.502   7.443  0.3197 -0.1379  1.1632
  112MOL   C17935921   2.499   7.420   7.560  0.0389  0.2467 -0.0442
  112MOL   C18035922   2.442   7.294   7.590 -0.5034 -0.1885  0.8709
  112MOL   C18135923   2.486   7.225   7.703 -0.1313  0.1185 -0.1371
  112MOL   C18235924   2.582   7.286   7.791  0.3013  0.5267 -0.3914
  112MOL   F18335925   2.620   7.217   7.900  0.2759  0.3258  0.3101
  112MOL   C18435926   2.640   7.406   7.759  0.4103 -0.0791  0.5098
  112MOL   C18535927   2.595   7.474   7.645  0.6882  0.7452 -0.0048
  112MOL   C18635928   2.391   7.633   7.504 -0.2068  0.0556 -0.1597
  112MOL   H18735929   2.356   7.458   7.396  1.5277  1.9195 -3.2370
  112MOL   H18835930   2.371   7.244   7.525  1.8341 -1.4035 -0.8105
  112MOL   H18935931   2.463   7.119   7.703 -1.1605  0.3385  0.2685
  112MOL   H19035932   2.712   7.460   7.818  0.6139  0.7737 -0.5052
  112MOL   H19135933   2.638   7.572   7.627  0.0411  0.9767 -0.3062
  112MOL   H19235934   2.358   7.624   7.607  0.0252  0.3754 -0.0584
  112MOL   H19335935   2.473   7.703   7.521 -2.6489  3.3387 -1.4000
  112MOL   C19435936   2.274   7.702   7.432 -0.1242 -0.2799 -0.3409
  112MOL   C19535937   2.142   7.625   7.437 -0.0184  0.5790  0.0520
  112MOL   C19635938   2.055   7.623   7.552 -0.2515 -0.7689  0.1741
  112MOL   C19735939   1.942   7.535   7.551  0.3897  0.0440  0.1709
  112MOL   C19835940   1.916   7.458   7.435 -0.1534 -0.3558 -0.2244
  112MOL   F19935941   1.814   7.369   7.436 -0.1134 -0.4353 -0.1192
  112MOL   C20035942   1.991   7.470   7.322 -0.2949  0.4757  0.0624
  112MOL   C20135943   2.106   7.549   7.321  0.5603 -0.4752  0.1495
  112MOL   C20235944   2.249   7.858   7.480 -0.1950 -0.5611  0.1970
  112MOL   H20335945   2.303   7.708   7.327  0.8326  0.2497 -0.0451
  112MOL   H20435946   2.081   7.694   7.629  1.9402 -0.8539 -0.4643
  112MOL   H20535947   1.870   7.528   7.631  0.9849 -0.4858  0.6658
  112MOL   H20635948   1.970   7.411   7.234  2.9211  1.0633 -1.1861
  112MOL   H20735949   2.156   7.549   7.226  2.5329 -2.9683  1.1080
  112MOL   H20835950   2.166   7.916   7.440  1.5225  0.8433 -1.4038
  112MOL   H20935951   2.225   7.850   7.586  0.2369  0.5861  0.3880
  112MOL   C21035952   2.366   7.953   7.445  0.0067  0.5639 -0.6544
  112MOL   C21135953   2.408   7.942   7.301 -0.0786  0.6013 -0.3556
  112MOL   C21235954   2.318   7.932   7.191 -0.6610 -0.2387  0.2466
  112MOL   C21335955   2.375   7.909   7.056 -0.3747  0.0823 -0.7812
  112MOL   C21435956   2.510   7.891   7.034  0.2166  0.5211 -0.2782
  112MOL   F21535957   2.566   7.857   6.920  0.1281  0.2305  0.4008
  112MOL   C21635958   2.593   7.908   7.143 -0.4124  0.0869 -0.0578
  112MOL   C21735959   2.546   7.928   7.276  0.3323  0.5106  0.3704
  112MOL   C21835960   2.339   8.094   7.492 -0.7597  0.3186  0.1729
  112MOL   H21935961   2.449   7.918   7.507 -0.4625 -1.6592 -1.2191
  112MOL   H22035962   2.217   7.960   7.219 -1.0456 -0.3042 -1.0557
  112MOL   H22135963   2.305   7.906   6.973 -0.3890 -3.0711 -0.7092
  112MOL   H22235964   2.700   7.905   7.137 -0.4125  0.6331 -0.3944
  112MOL   H22335965   2.619   7.936   7.355  1.1009  0.6200 -0.3394
  112MOL   H22435966   2.416   8.150   7.439  0.7734 -0.5095  1.4862
  112MOL   H22535967   2.252   8.129   7.437  0.6617  0.3906 -2.0796
  112MOL   C22635968   2.351   8.121   7.642  0.8109 -0.1367 -0.1582
  112MOL   C22735969   2.483   8.076   7.704  0.7551 -0.4834 -0.1076
  112MOL   C22835970   2.606   8.125   7.648  0.2292 -0.5382 -0.9321
  112MOL   C22935971   2.726   8.072   7.701  0.6480 -0.4169  0.0958
  112MOL   C23035972   2.729   7.969   7.796 -0.5712 -0.1359 -0.2073
  112MOL   F23135973   2.846   7.907   7.836  0.0209 -0.3965 -0.6540
  112MOL   C23235974   2.611   7.927   7.854 -0.4958  0.2490 -0.0841
  112MOL   C23335975   2.488   7.971   7.803  0.1840  0.6440 -0.0525
  112MOL   C23435976   2.308   0.038   7.677 -0.3160  0.0336  0.3187
  112MOL   H23535977   2.265   8.065   7.677  0.4841  0.5403  0.1136
  112MOL   H23635978   2.598   8.194   7.565  1.2299 -0.0755 -0.6577
  112MOL   H23735979   2.819   8.114   7.667 -0.0337  3.3216  2.4910
  112MOL   H23835980   2.608   7.845   7.925 -0.1379  0.3069 -0.0031
  112MOL   H23935981   2.398   7.929   7.846 -0.4455  1.3332 -0.6811
  112MOL   H24035982   2.383   0.098   7.624 -1.1075 -0.1843 -1.0787
  112MOL   H24135983   2.210   0.054   7.633  0.3153  2.6035 -0.2503
  112MOL   C24235984   2.288   0.070   7.828 -0.5566 -0.1557  0.4434
  112MOL   C24335985   2.368   0.201   7.863  0.6556  0.5698  0.0379
  112MOL   C24435986   2.306   0.324   7.863  0.0566 -0.9194 -0.1434
  112MOL   C24535987   2.382   0.435   7.911 -1.1382 -0.2671 -0.0218
  112MOL   C24635988   2.513   0.425   7.954 -0.7782  0.2839  0.6645
  112MOL   F24735989   2.577   0.525   8.017 -0.0267 -0.5153 -0.2722
  112MOL   C24835990   2.575   0.296   7.951  0.1819 -0.0140 -0.6494
  112MOL   C24935991   2.504   0.186   7.898  0.2609  0.1901  0.2481
  112MOL   C25035992   2.139   0.075   7.865  0.7330  0.3087  0.2500
  112MOL   H25135993   2.330   8.222   7.886  2.2569  0.2688 -0.9353
  112MOL   H25235994   2.207   0.352   7.829  0.0431  0.3843  0.9377
  112MOL   H25335995   2.333   0.531   7.923 -0.7350 -0.1156  0.4352
  112MOL   H25435996   2.671   0.285   7.999 -0.1034  1.7133  0.3862
  112MOL   H25535997   2.548   0.088   7.887  1.4179  0.4673  2.2653
  112MOL   H25635998   2.096   0.147   7.795  1.5710  2.2343  1.6534
  112MOL   H25735999   2.091   8.213   7.847  2.4002 -0.2930 -1.0906
  112MOL   C25836000   2.096   0.101   8.016  0.2195  0.4418  0.2723
  112MOL   C25936001   1.981   0.199   8.029  0.0771 -0.9466  0.8083
  112MOL   C26036002   1.849   0.176   7.980 -0.1599 -0.3744 -0.8237
  112MOL   C26136003   1.742   0.253   8.026 -0.0628  0.1324 -0.2710
  112MOL   C26236004   1.771   0.362   8.110 -0.4928 -0.0302 -0.1775
  112MOL   F26336005   1.664   0.436   8.164  0.2628  0.0274  0.1739
  112MOL   C26436006   1.900   0.394   8.150  0.0033  0.4444 -0.7328
  112MOL   C26536007   2.007   0.318   8.107  0.6849 -0.4851 -0.5038
  112MOL   C26636008   2.068   8.215   8.102  0.1414 -0.7443  0.2139
  112MOL   H26736009   2.175   0.168   8.050 -0.5117  0.0644  2.8070
  112MOL   H26836010   1.835   0.091   7.915  1.2980  0.1323 -1.8075
  112MOL   H26936011   1.643   0.232   7.987 -0.3484 -1.4369  1.2178
  112MOL   H27036012   1.928   0.479   8.211  0.8534 -0.5215  0.2414
  112MOL   H27136013   2.108   0.338   8.140  1.3677 -1.3663 -1.9962
  112MOL   H27236014   2.017   0.018   8.191 -1.1407 -0.4701 -0.6190
  112MOL   H27336015   1.994   8.163   8.042  0.6647 -2.0351  0.6635
  112MOL   C27436016   2.198   8.124   8.123 -0.2375  0.1841  0.6780
  112MOL   C27536017   2.322   8.196   8.177  0.4399  0.0648  0.4255
  112MOL   C27636018   2.457   8.154   8.158 -1.3767 -0.2424  0.0380
  112MOL   C27736019   2.571   8.234   8.195  0.0561  0.0494 -0.7677
  112MOL   C27836020   2.550   0.112   0.034 -0.5118 -0.4479  0.2763
  112MOL   F27936021   2.650   0.193   0.055 -0.1362 -0.1056  0.3496
  112MOL   C28036022   2.423   0.155   0.063  0.1339  0.1419  0.6958
  112MOL   C28136023   2.310   0.081   0.018  0.2368 -0.1106 -0.4633
  112MOL   C28236024   2.174   8.005   8.216 -0.3579 -0.2357  0.2151
  112MOL   H28336025   2.222   8.084   8.024  0.7200 -0.1936  1.0537
  112MOL   H28436026   2.473   8.068   8.095  0.6122  1.1612 -1.4667
  112MOL   H28536027   2.673   8.202   8.178  0.2498 -1.1017  2.3272
  112MOL   H28636028   2.403   0.252   0.105  0.2329  0.0895  0.8652
  112MOL   H28736029   2.213   0.123   0.040  1.5774  3.6018 -1.2608
  112MOL   H28836030   2.263   7.962   0.028 -1.1495 -0.4495  1.5748
  112MOL   H28936031   2.125   8.050   0.068 -1.2870 -2.2036  0.7459
  112MOL   C29036032   2.079   7.894   8.161 -0.3668  0.2397  0.2776
  112MOL   C29136033   2.146   7.786   8.069 -0.2289 -0.6857 -0.8169
  112MOL   C29236034   2.289   7.775   8.060 -0.0436  0.0712  0.2312
  112MOL   C29336035   2.337   7.677   7.972 -0.2633 -0.4126  0.3525
  112MOL   C29436036   2.257   7.594   7.894 -0.3303  0.5085  0.2795
  112MOL   F29536037   2.316   7.498   7.814  0.3106  0.4463  0.5044
  112MOL   C29636038   2.115   7.609   7.899  0.1379 -0.2549 -0.1804
  112MOL   C29736039   2.065   7.700   7.994 -0.8587 -0.8692  0.3307
  112MOL   C29836040   1.998   7.829   0.042 -0.4174  0.2114 -0.4526
  112MOL   H29936041   2.007   7.948   8.100 -1.7965 -0.6781  1.1377
  112MOL   H30036042   2.360   7.821   8.127  0.6871 -1.6457  0.6801
  112MOL   H30136043   2.445   7.676   7.969 -0.3012 -0.4036 -1.0601
  112MOL   H30236044   2.054   7.546   7.836  0.1832  0.7425 -1.2239
  112MOL   H30336045   1.958   7.700   8.005 -0.5102  0.8418  4.5378
  112MOL   H30436046   1.980   7.723   0.023  0.4593 -0.0632  0.2414
  112MOL   H30536047   2.039   7.832   0.142 -0.6401  1.0398 -0.3804
  112MOL   C30636048   1.857   7.885   0.045 -0.0008 -0.1337  0.2252
  112MOL   C30736049   1.764   7.800   0.130  0.3239 -0.1476 -0.0929
  112MOL   C30836050   1.806   7.762   0.259  0.1582 -0.1549 -0.0952
  112MOL   C30936051   1.726   7.689   0.348 -0.4576 -0.3168 -0.0140
  112MOL   C31036052   1.603   7.644   0.306  0.4792  0.2437  0.5568
  112MOL   F31136053   1.517   7.584   0.396 -0.4584 -0.0198  0.2476
  112MOL   C31236054   1.553   7.688   0.184 -0.5828 -0.7326  0.0518
  112MOL   C31336055   1.633   7.758   0.099 -0.5636 -0.6910  0.0035
  112MOL   C31436056   1.842   8.025   0.103 -0.4422 -0.9201  0.0328
  112MOL   H31536057   1.807   7.877   8.183 -0.9697  1.1172  0.6078
  112MOL   H31636058   1.910   7.774   0.287  0.6098  0.3621 -1.8994
  112MOL   H31736059   1.772   7.645   0.435  1.5670  0.5571 -0.6155
  112MOL   H31836060   1.451   7.664   0.158 -0.2992 -1.6827 -0.2018
  112MOL   H31936061   1.584   7.781   0.005  0.2493  0.4265 -0.1560
  112MOL   H32036062   1.738   8.050   0.084 -0.5801 -1.1809  0.4359
  112MOL   H32136063   1.871   8.022   0.208  0.8320  1.3361 -0.2153
  112MOL   H32236064   1.911   8.095   0.056 -0.7184 -0.1846  0.6996
  113MOL     C136065   5.365   7.137   1.279 -0.1113  0.1013 -0.0407
  113MOL     C236066   5.328   7.109   1.130  0.6713  0.0362 -0.0588
  113MOL     C336067   5.230   7.183   1.062 -0.3782  0.2201 -0.3905
  113MOL     C436068   5.200   7.157   0.927 -0.2459  0.4977  0.2721
  113MOL     C536069   5.272   7.068   0.844  0.2267 -0.2800 -0.2168
  113MOL     F636070   5.232   7.042   0.717  0.0782 -0.1233  0.2771
  113MOL     C736071   5.361   6.985   0.909  0.2072 -0.5670 -0.2908
  113MOL     C836072   5.398   7.016   1.046 -0.6726  0.6814  0.3556
  113MOL     C936073   5.314   7.025   1.379  0.1977  0.0409  0.5102
  113MOL    H1036074   5.331   7.238   1.301 -0.2196 -0.2964  1.6659
  113MOL    H1136075   5.173   7.255   1.119 -0.2496 -0.2525  0.3461
  113MOL    H1236076   5.124   7.217   0.881  0.3457  0.6525 -0.5125
  113MOL    H1336077   5.423   6.916   0.853 -0.0463 -0.0838 -1.1766
  113MOL    H1436078   5.477   6.961   1.095 -0.1937  0.5905 -0.5151
  113MOL    H1536079   5.213   7.001   1.347  0.4823  0.9160 -1.0657
  113MOL    H1636080   5.375   6.935   1.371  0.2193  0.1616 -0.8685
  113MOL    H1736081   5.473   7.151   1.282 -0.1261  0.4873 -0.9244
  113MOL    C1836082   5.302   7.078   1.530  0.9500 -0.3928 -0.0451
  113MOL    C1936083   5.240   6.969   1.625  0.1023  0.1962 -0.5248
  113MOL    C2036084   5.317   6.855   1.659  0.2036 -0.5008  0.2211
  113MOL    C2136085   5.266   6.756   1.737  0.1146 -0.3026 -0.0971
  113MOL    C2236086   5.135   6.770   1.785  0.3447  0.1177 -0.0798
  113MOL    F2336087   5.070   6.664   1.838 -0.0507 -0.4523 -0.0451
  113MOL    C2436088   5.062   6.884   1.755  0.3065  0.2609 -0.4261
  113MOL    C2536089   5.114   6.982   1.674 -0.0187 -0.3501  0.2232
  113MOL    C2636090   5.431   7.144   1.590 -0.3771 -0.2108 -0.7683
  113MOL    H2736091   5.228   7.157   1.526  0.2571 -0.9654  1.0782
  113MOL    H2836092   5.419   6.842   1.625  0.1599 -0.6806  0.1593
  113MOL    H2936093   5.314   6.662   1.759 -0.9442 -0.6982  0.5985
  113MOL    H3036094   4.958   6.880   1.783  0.5515  0.7241  0.5707
  113MOL    H3136095   5.053   7.064   1.640  0.1857 -0.3687 -0.1874
  113MOL    H3236096   5.482   7.058   1.632 -2.0666 -1.5196 -1.3302
  113MOL    H3336097   5.504   7.173   1.515  0.6358  0.6291  0.5310
  113MOL    C3436098   5.425   7.247   1.701 -0.4639  0.6597 -0.2308
  113MOL    C3536099   5.554   7.251   1.788  0.1214  0.0016  0.3661
  113MOL    C3636100   5.551   7.220   1.925  0.2095  0.4637 -0.5895
  113MOL    C3736101   5.668   7.189   2.005  0.1694 -0.8977  0.0969
  113MOL    C3836102   5.793   7.211   1.942  0.3405  1.0148 -0.7575
  113MOL    F3936103   5.910   7.189   2.005 -0.2529  0.0550 -0.2219
  113MOL    C4036104   5.794   7.245   1.802 -0.2388 -0.0318 -0.1681
  113MOL    C4136105   5.681   7.262   1.726  0.2753  0.1286 -0.2109
  113MOL    C4236106   5.382   7.388   1.645  0.2562  0.2559  0.2915
  113MOL    H4336107   5.343   7.222   1.767  1.2376 -0.1868  1.6339
  113MOL    H4436108   5.452   7.203   1.964  1.3110 -1.8866  1.2730
  113MOL    H4536109   5.662   7.160   2.108 -1.3924 -0.2309  0.2237
  113MOL    H4636110   5.889   7.263   1.755  0.0086  0.3671  0.4774
  113MOL    H4736111   5.694   7.279   1.620 -1.1802 -1.3723 -0.6448
  113MOL    H4836112   5.471   7.427   1.596 -0.3614  1.3549  0.0432
  113MOL    H4936113   5.315   7.368   1.562  1.3533  0.9270 -0.7646
  113MOL    C5036114   5.329   7.489   1.751  0.7487 -0.1408 -0.2471
  113MOL    C5136115   5.320   7.634   1.697 -0.4295  0.2586 -0.1575
  113MOL    C5236116   5.378   7.738   1.762 -0.0599  0.4950  1.1018
  113MOL    C5336117   5.372   7.869   1.719 -0.1994 -0.3992 -0.2983
  113MOL    C5436118   5.286   7.895   1.611 -0.2431 -0.6298  0.4110
  113MOL    F5536119   5.268   8.020   1.576 -0.0946  0.1801  0.1954
  113MOL    C5636120   5.231   7.789   1.539 -0.6099  0.6537  0.3653
  113MOL    C5736121   5.246   7.661   1.585 -0.6193  0.5050 -0.1882
  113MOL    C5836122   5.180   7.448   1.790  0.3865  0.0190 -0.2856
  113MOL    H5936123   5.386   7.487   1.844  0.4528 -1.3209 -0.0903
  113MOL    H6036124   5.444   7.727   1.848  1.9119 -1.0615 -0.5470
  113MOL    H6136125   5.420   7.943   1.782 -2.7074  0.5089  0.6296
  113MOL    H6236126   5.165   7.813   1.457  2.4571 -0.7244 -2.6391
  113MOL    H6336127   5.199   7.587   1.522  1.3108 -1.3956  0.5313
  113MOL    H6436128   5.108   7.434   1.710  0.6349  1.1950 -0.7313
  113MOL    H6536129   5.184   7.344   1.820 -0.6256  0.7446  2.5979
  113MOL    C6636130   5.114   7.532   1.903  0.1424  0.2636  0.1722
  113MOL    C6736131   4.998   7.614   1.852 -0.2606  0.4220  0.4032
  113MOL    C6836132   5.010   7.755   1.835  0.2895 -0.2524 -0.4512
  113MOL    C6936133   4.900   7.830   1.782 -0.1528 -0.2936  0.1641
  113MOL    C7036134   4.783   7.762   1.746  0.5092 -0.3394  0.0498
  113MOL    F7136135   4.672   7.836   1.708 -0.0717 -0.1481  0.3703
  113MOL    C7236136   4.765   7.627   1.774  0.5993  0.1428 -0.1208
  113MOL    C7336137   4.874   7.554   1.831 -0.2141 -0.6597 -0.1908
  113MOL    C7436138   5.084   7.446   2.022 -0.3195  0.4024 -1.0132
  113MOL    H7536139   5.188   7.603   1.942  0.2573  0.0417  0.3564
  113MOL    H7636140   5.105   7.800   1.864 -2.2389  4.2680  1.3549
  113MOL    H7736141   4.904   7.936   1.762 -0.6021 -0.1112  1.0060
  113MOL    H7836142   4.674   7.578   1.745  1.3259 -1.8006  0.8285
  113MOL    H7936143   4.857   7.448   1.843  0.1493 -0.8208 -1.0192
  113MOL    H8036144   5.027   7.359   1.991  2.4778 -1.1903 -1.8836
  113MOL    H8136145   5.171   7.394   2.062  0.1462  2.4968  0.7899
  113MOL    C8236146   5.047   7.505   2.163  0.1500 -0.6241  0.1268
  113MOL    C8336147   4.923   7.595   2.163  0.0560  0.4994  0.1365
  113MOL    C8436148   4.940   7.736   2.159  0.7756  0.4373  0.9852
  113MOL    C8536149   4.825   7.820   2.148  0.4258 -0.0077  0.0435
  113MOL    C8636150   4.699   7.756   2.142  1.2943 -0.6252 -0.0300
  113MOL    F8736151   4.590   7.832   2.128  0.4583  0.1254 -0.4084
  113MOL    C8836152   4.676   7.619   2.147  1.1603  0.4391  0.4601
  113MOL    C8936153   4.790   7.541   2.162 -0.8398 -0.6303  0.1942
  113MOL    C9036154   5.048   7.411   2.293  0.2739 -0.1962 -0.2948
  113MOL    H9136155   5.129   7.571   2.191  0.0069  0.3332 -1.6454
  113MOL    H9236156   5.034   7.789   2.156 -0.5096  2.7970  0.8096
  113MOL    H9336157   4.853   7.923   2.132 -0.7348  0.3889  0.4891
  113MOL    H9436158   4.573   7.586   2.144  0.1454  3.5367 -1.4452
  113MOL    H9536159   4.766   7.438   2.179 -0.7909 -1.0508 -2.1469
  113MOL    H9636160   5.000   7.458   2.378 -0.7270 -2.3160  0.3364
  113MOL    H9736161   4.982   7.332   2.259  2.2844 -0.6151 -3.4911
  113MOL    C9836162   5.182   7.337   2.319 -0.5885  0.9434 -0.0106
  113MOL    C9936163   5.297   7.438   2.333  0.1365 -0.6771  0.3247
  113MOL   C10036164   5.398   7.434   2.232 -0.0545 -0.2345 -0.0736
  113MOL   C10136165   5.506   7.529   2.222  0.3227  0.4573  0.0876
  113MOL   C10236166   5.508   7.623   2.327 -0.4019 -0.5048  0.3471
  113MOL   F10336167   5.600   7.717   2.318  0.1221  0.1011 -0.1410
  113MOL   C10436168   5.419   7.625   2.433  0.6529 -0.4379 -0.2190
  113MOL   C10536169   5.311   7.537   2.436 -0.1222 -0.5744 -0.7614
  113MOL   C10636170   5.164   7.250   2.454  1.1817 -0.0521  0.4623
  113MOL   H10736171   5.209   7.270   2.239 -1.2390  3.1977 -2.1860
  113MOL   H10836172   5.387   7.357   2.157 -1.9074 -1.8076  1.7472
  113MOL   H10936173   5.575   7.531   2.139 -1.0957 -0.5136 -1.1679
  113MOL   H11036174   5.435   7.693   2.515  1.8702  1.2050 -1.7687
  113MOL   H11136175   5.248   7.530   2.524  2.2256  2.7787  1.2868
  113MOL   H11236176   5.265   7.236   2.494  1.3548  1.3483  0.5239
  113MOL   H11336177   5.104   7.311   2.520 -0.8378 -1.6240  0.1378
  113MOL   C11436178   5.107   7.109   2.441 -0.1085 -0.5087  0.3658
  113MOL   C11536179   5.176   7.029   2.332 -0.1461  0.8366 -0.1529
  113MOL   C11636180   5.312   7.015   2.324  0.2220  0.0869 -0.0949
  113MOL   C11736181   5.375   6.926   2.230  0.0289  0.5013  0.9086
  113MOL   C11836182   5.291   6.858   2.138 -0.1207 -0.2997 -0.0348
  113MOL   F11936183   5.343   6.775   2.045  0.1159 -0.0742  0.2133
  113MOL   C12036184   5.151   6.864   2.152 -0.1522  0.4830 -0.1170
  113MOL   C12136185   5.096   6.952   2.244  0.3784 -0.5135  0.3308
  113MOL   C12236186   5.113   7.027   2.570 -0.2903 -1.1080 -0.0068
  113MOL   H12336187   5.004   7.135   2.417  0.5718  2.8557  0.9368
  113MOL   H12436188   5.377   7.054   2.401 -0.0587  0.9817 -0.3053
  113MOL   H12536189   5.481   6.910   2.238 -0.0361  0.8765  2.7928
  113MOL   H12636190   5.086   6.801   2.092  3.1665 -3.0472 -0.2200
  113MOL   H12736191   4.991   6.960   2.266  0.6214 -2.3660  2.3314
  113MOL   H12836192   5.066   6.931   2.551 -0.1643 -1.5119  1.6185
  113MOL   H12936193   5.216   6.998   2.592 -0.4626 -0.8177  1.2266
  113MOL   C13036194   5.043   7.085   2.702 -0.1574  0.7122  1.0139
  113MOL   C13136195   4.903   7.137   2.670  0.9707  0.1703  0.0850
  113MOL   C13236196   4.796   7.048   2.670  0.6949  0.0546  0.5649
  113MOL   C13336197   4.666   7.094   2.656 -0.2647  0.2048  0.5274
  113MOL   C13436198   4.641   7.227   2.628 -0.7795  0.2121 -0.5005
  113MOL   F13536199   4.513   7.275   2.605  0.4629 -0.2663 -0.2693
  113MOL   C13636200   4.746   7.316   2.622  0.4430 -0.4741 -0.2596
  113MOL   C13736201   4.873   7.272   2.656  0.4428 -0.0097 -0.5330
  113MOL   C13836202   5.063   6.988   2.820 -0.3696  0.1451  0.6425
  113MOL   H13936203   5.106   7.174   2.707  1.2647 -0.2541  0.8629
  113MOL   H14036204   4.819   6.943   2.682  1.8093  0.1174 -0.9371
  113MOL   H14136205   4.582   7.027   2.656  1.3380 -1.8422  1.2832
  113MOL   H14236206   4.726   7.422   2.619  1.3418 -0.2696  0.4527
  113MOL   H14336207   4.940   7.357   2.652 -2.6885  2.6395  0.5974
  113MOL   H14436208   5.026   6.893   2.782  2.0213 -0.5449 -0.0706
  113MOL   H14536209   5.171   6.980   2.835  0.0893  1.6577 -1.5704
  113MOL   C14636210   4.991   7.024   2.953  0.0425  0.8144 -0.6165
  113MOL   C14736211   4.946   6.901   3.035 -0.1794  0.6949 -0.0655
  113MOL   C14836212   4.815   6.898   3.096 -0.0700 -0.2586 -0.4786
  113MOL   C14936213   4.775   6.789   3.175 -0.1341  0.3184  0.3469
  113MOL   C15036214   4.843   6.671   3.183 -0.4469 -0.0158  0.9699
  113MOL   F15136215   4.800   6.572   3.257  0.3379 -0.0704  0.0327
  113MOL   C15236216   4.969   6.667   3.122  0.1870 -0.0680  0.0555
  113MOL   C15336217   5.018   6.780   3.053  0.5924  0.7921  0.7885
  113MOL   C15436218   5.083   7.111   3.037  0.7211 -0.2132 -0.7079
  113MOL   H15536219   4.910   7.087   2.917  0.5411  1.7621 -0.0878
  113MOL   H15636220   4.759   6.990   3.088 -1.2055 -1.0722 -2.2278
  113MOL   H15736221   4.681   6.796   3.227 -0.8712  1.8719 -1.1440
  113MOL   H15836222   5.025   6.574   3.122 -0.0104 -0.2338 -2.5536
  113MOL   H15936223   5.114   6.779   3.004  0.4497  2.7734  0.4220
  113MOL   H16036224   5.157   7.037   3.068  0.5771  0.0178  0.1970
  113MOL   H16136225   5.143   7.186   2.986  0.7258  0.2861  0.0280
  113MOL   C16236226   5.011   7.187   3.160  0.1158  0.4893  0.1097
  113MOL   C16336227   5.080   7.148   3.290 -0.0265 -1.4156  0.2754
  113MOL   C16436228   5.005   7.087   3.394 -0.3786 -0.1772 -0.3503
  113MOL   C16536229   5.065   7.067   3.522 -0.7122 -0.9951  0.5001
  113MOL   C16636230   5.201   7.108   3.543 -0.1897 -0.6258  0.0002
  113MOL   F16736231   5.249   7.091   3.663  0.1757 -0.1145  0.4724
  113MOL   C16836232   5.273   7.165   3.439 -0.3309 -0.3422 -0.7416
  113MOL   C16936233   5.212   7.191   3.314 -0.1450 -0.2697 -0.1040
  113MOL   C17036234   4.996   7.345   3.152 -0.2048  0.4797 -0.0550
  113MOL   H17136235   4.912   7.143   3.165  0.2212 -0.3802 -3.6815
  113MOL   H17236236   4.900   7.062   3.388 -0.1197 -1.0932 -1.1364
  113MOL   H17336237   5.010   7.013   3.598 -2.6676 -1.6535 -1.3149
  113MOL   H17436238   5.372   7.205   3.460 -1.7655  4.0615 -1.8753
  113MOL   H17536239   5.266   7.240   3.234  0.2642 -2.1314 -0.9884
  113MOL   H17636240   5.093   7.392   3.135  0.5302 -0.8433  0.4734
  113MOL   H17736241   4.941   7.367   3.061 -0.6422 -1.2385 -0.2208
  113MOL   C17836242   4.923   7.420   3.268 -0.2083 -0.1553 -0.9406
  113MOL   C17936243   4.985   7.554   3.301  0.5267 -0.4106 -0.5491
  113MOL   C18036244   5.093   7.562   3.394  0.4353 -0.1925  0.1913
  113MOL   C18136245   5.148   7.685   3.436 -0.7138 -0.5271  0.4086
  113MOL   C18236246   5.104   7.802   3.374 -0.2407 -0.2543  0.6592
  113MOL   F18336247   5.165   7.919   3.400  0.0660  0.4439 -0.3250
  113MOL   C18436248   4.997   7.796   3.282  0.4159  0.3474 -0.0237
  113MOL   C18536249   4.942   7.675   3.245  0.3021  0.3910  0.1914
  113MOL   C18636250   4.769   7.425   3.246  0.0353  0.3180 -0.3703
  113MOL   H18736251   4.921   7.355   3.355 -0.2384 -0.3813 -1.1081
  113MOL   H18836252   5.142   7.471   3.423 -1.4696 -0.9447  1.1673
  113MOL   H18936253   5.235   7.688   3.499 -0.9016  0.5358  0.6252
  113MOL   H19036254   4.965   7.894   3.247  0.8277  0.4587 -0.0872
  113MOL   H19136255   4.859   7.671   3.176 -0.0081 -0.3166  0.5959
  113MOL   H19236256   4.741   7.490   3.163 -0.1970  2.4308  1.3210
  113MOL   H19336257   4.748   7.322   3.215  2.0979 -0.4090  0.6067
  113MOL   C19436258   4.684   7.454   3.372 -0.4112  0.1990  0.3022
  113MOL   C19536259   4.654   7.598   3.387  0.8033 -0.3814  0.2449
  113MOL   C19636260   4.702   7.670   3.499  0.6691  0.3807 -0.3261
  113MOL   C19736261   4.677   7.807   3.516 -0.0765  0.2134 -0.2928
  113MOL   C19836262   4.600   7.877   3.423  0.3578  0.0561  0.0538
  113MOL   F19936263   4.565   8.009   3.440  0.4366  0.1094 -0.3059
  113MOL   C20036264   4.544   7.811   3.312 -0.2609  0.6578 -0.2850
  113MOL   C20136265   4.575   7.674   3.292 -0.4541  0.6392 -0.3513
  113MOL   C20236266   4.547   7.380   3.369  0.8572 -0.4030  0.3923
  113MOL   H20336267   4.736   7.419   3.462 -1.9624  0.7488  1.4467
  113MOL   H20436268   4.756   7.617   3.577  1.4478 -0.0734 -1.1566
  113MOL   H20536269   4.717   7.866   3.596 -1.2485  1.8300 -0.8806
  113MOL   H20636270   4.474   7.861   3.247 -1.8083 -0.9555  0.1195
  113MOL   H20736271   4.530   7.614   3.215 -0.3696  1.8178 -1.3352
  113MOL   H20836272   4.476   7.424   3.438 -0.4414  1.6214 -2.1415
  113MOL   H20936273   4.496   7.391   3.274  1.4311  0.5253  0.1816
  113MOL   C21036274   4.540   7.235   3.414  0.0319 -0.0942 -0.3008
  113MOL   C21136275   4.616   7.213   3.546  0.6393 -0.2361 -0.1038
  113MOL   C21236276   4.686   7.089   3.561 -0.4087 -0.5406  0.6477
  113MOL   C21336277   4.729   7.043   3.689  0.2595  0.3894 -0.0554
  113MOL   C21436278   4.722   7.137   3.797 -0.2575  0.9504 -0.4381
  113MOL   F21536279   4.789   7.107   3.911  0.0841  0.9539  0.6394
  113MOL   C21636280   4.664   7.261   3.779  0.5602 -0.8865  0.1927
  113MOL   C21736281   4.608   7.305   3.657 -0.2232  0.3342  0.0990
  113MOL   C21836282   4.394   7.178   3.410 -0.3792 -0.1106  0.2325
  113MOL   H21936283   4.594   7.184   3.334  0.2755  1.1921 -0.9808
  113MOL   H22036284   4.697   7.028   3.473 -0.7356  0.8472 -0.3543
  113MOL   H22136285   4.758   6.940   3.707 -0.9148 -0.2502 -1.7223
  113MOL   H22236286   4.658   7.320   3.869  3.0572 -0.5880  0.1761
  113MOL   H22336287   4.562   7.403   3.657 -2.5930 -0.6826 -2.9767
  113MOL   H22436288   4.352   7.214   3.504 -0.6297  0.1149  0.0380
  113MOL   H22536289   4.364   7.232   3.320 -1.4012 -1.6802 -0.4030
  113MOL   C22636290   4.373   7.033   3.386  0.0926  0.5263  0.1371
  113MOL   C22736291   4.224   6.978   3.392 -0.4648  1.1061  0.0637
  113MOL   C22836292   4.200   6.837   3.415  0.1242 -0.8914 -0.3014
  113MOL   C22936293   4.064   6.798   3.418  0.0578  0.6275 -0.0577
  113MOL   C23036294   3.961   6.880   3.367  1.2112  0.2030  0.0615
  113MOL   F23136295   3.834   6.837   3.352  0.4554 -0.1863 -0.6891
  113MOL   C23236296   3.980   7.020   3.340  0.6005 -0.1465 -0.3024
  113MOL   C23336297   4.117   7.064   3.350 -0.2032 -0.2719 -0.0974
  113MOL   C23436298   4.450   6.965   3.258  0.0553 -0.5199 -0.1102
  113MOL   H23536299   4.434   6.992   3.466 -0.4467  2.9597  1.8336
  113MOL   H23636300   4.277   6.773   3.455 -2.2420 -2.6689  1.6021
  113MOL   H23736301   4.027   6.703   3.453 -1.7026  1.9671  1.8273
  113MOL   H23836302   3.898   7.085   3.317 -0.7677 -1.5551  0.4982
  113MOL   H23936303   4.134   7.168   3.326 -0.2087 -0.2301  0.0818
  113MOL   H24036304   4.553   7.000   3.258 -1.0489  2.9437 -1.4849
  113MOL   H24136305   4.459   6.858   3.276  1.5843 -0.4153 -0.2060
  113MOL   C24236306   4.376   6.989   3.125 -0.4254  0.5517  0.5285
  113MOL   C24336307   4.399   7.129   3.075 -0.3916  1.1296  0.3181
  113MOL   C24436308   4.293   7.210   3.057  0.5407  0.2957  0.2993
  113MOL   C24536309   4.313   7.341   3.018  0.6922 -0.6549  0.9501
  113MOL   C24636310   4.439   7.388   2.994  0.0177 -0.5810  0.1445
  113MOL   F24736311   4.458   7.520   2.978 -0.3696 -0.1086  0.0664
  113MOL   C24836312   4.547   7.305   2.991  0.1677 -0.9212  0.3897
  113MOL   C24936313   4.532   7.178   3.044 -0.5522 -0.1470 -0.2186
  113MOL   C25036314   4.436   6.884   3.027 -0.6642  0.1130 -0.9119
  113MOL   H25136315   4.271   6.960   3.131  0.0091 -0.8117  1.9716
  113MOL   H25236316   4.198   7.183   3.100  0.8875  0.3463  1.1125
  113MOL   H25336317   4.229   7.407   3.008  1.0571 -0.3012  0.1198
  113MOL   H25436318   4.645   7.341   2.963 -0.3479 -0.1056 -0.4101
  113MOL   H25536319   4.615   7.110   3.032 -2.1349 -1.9304 -1.4463
  113MOL   H25636320   4.524   6.928   2.980 -0.7060 -1.4857 -2.5488
  113MOL   H25736321   4.464   6.793   3.080 -2.4009  0.0632 -0.0400
  113MOL   C25836322   4.345   6.837   2.909  0.5154  0.2352 -0.7996
  113MOL   C25936323   4.226   6.760   2.968 -0.1405  0.7946  0.1371
  113MOL   C26036324   4.097   6.816   2.988  0.0730  0.2662 -0.1885
  113MOL   C26136325   3.989   6.747   3.053  0.2150  0.0960  0.4744
  113MOL   C26236326   4.021   6.614   3.093 -0.0194 -0.3603  0.7673
  113MOL   F26336327   3.926   6.534   3.141  0.3948 -0.1666  0.4641
  113MOL   C26436328   4.151   6.553   3.078  0.2098 -0.5988 -0.0359
  113MOL   C26536329   4.252   6.628   3.016 -0.2959  0.1425 -0.1948
  113MOL   C26636330   4.307   6.952   2.808  0.2850 -0.2722 -0.6669
  113MOL   H26736331   4.397   6.761   2.850  1.3442 -0.2197  0.4955
  113MOL   H26836332   4.072   6.917   2.960  2.8045  1.0497  0.0870
  113MOL   H26936333   3.891   6.785   3.079 -0.0107 -0.7786  0.9108
  113MOL   H27036334   4.166   6.449   3.103  1.9083 -0.5014 -0.6224
  113MOL   H27136335   4.343   6.576   2.987  0.2192  1.6377 -1.3165
  113MOL   H27236336   4.224   7.009   2.850  0.8436 -0.7485  1.1372
  113MOL   H27336337   4.396   7.015   2.804  1.0269 -1.2761 -0.2740
  113MOL   C27436338   4.252   6.911   2.669  0.5011  0.0209 -0.0704
  113MOL   C27536339   4.195   7.035   2.596 -0.7271 -0.6991 -0.0444
  113MOL   C27636340   4.067   7.020   2.535 -0.4040  0.6742 -0.0319
  113MOL   C27736341   4.005   7.131   2.469 -0.1805  0.6430  0.5021
  113MOL   C27836342   4.068   7.256   2.478  0.7271 -0.9266 -0.7384
  113MOL   F27936343   4.013   7.359   2.412  0.4312 -0.0913 -0.7277
  113MOL   C28036344   4.189   7.274   2.551 -0.4619  0.8729 -0.2308
  113MOL   C28136345   4.249   7.164   2.617 -0.4488 -0.1011 -0.5996
  113MOL   C28236346   4.346   6.825   2.587 -0.4113 -0.5588 -0.2306
  113MOL   H28336347   4.169   6.846   2.695  0.4358  0.1583  0.0698
  113MOL   H28436348   4.019   6.926   2.512  1.1456  0.3790 -2.2131
  113MOL   H28536349   3.911   7.117   2.417 -0.1702  1.1503  0.3367
  113MOL   H28636350   4.252   7.360   2.538  0.5545  0.1171 -0.3440
  113MOL   H28736351   4.345   7.163   2.665  0.2861 -2.1715 -2.0158
  113MOL   H28836352   4.442   6.824   2.638 -1.2388  0.7344  1.3891
  113MOL   H28936353   4.315   6.721   2.591  2.1426 -1.2798  1.5826
  113MOL   C29036354   4.384   6.862   2.438 -0.6077 -0.1418 -0.4869
  113MOL   C29136355   4.514   6.791   2.405  0.1867  0.6322  0.1751
  113MOL   C29236356   4.530   6.654   2.431 -0.2411 -0.0998  0.3969
  113MOL   C29336357   4.655   6.588   2.394 -0.6756 -0.1340 -0.2000
  113MOL   C29436358   4.761   6.657   2.335  0.1345 -0.9002  1.0287
  113MOL   F29536359   4.880   6.602   2.304 -0.4323 -0.0962 -0.6812
  113MOL   C29636360   4.751   6.794   2.329 -0.1484  0.4783  0.1659
  113MOL   C29736361   4.627   6.862   2.357  0.1737 -0.3204 -0.0013
  113MOL   C29836362   4.272   6.817   2.337  0.1556  0.0682  0.3408
  113MOL   H29936363   4.388   6.970   2.427 -1.8074 -0.1731 -1.2732
  113MOL   H30036364   4.453   6.595   2.477  0.6642 -0.3039  1.6645
  113MOL   H30136365   4.657   6.481   2.406 -0.7939 -0.2309 -1.0027
  113MOL   H30236366   4.842   6.843   2.297  0.5754 -1.2714 -0.4748
  113MOL   H30336367   4.633   6.970   2.352 -0.2402 -0.2797  0.3515
  113MOL   H30436368   4.264   6.708   2.336 -1.1450  0.1407  1.8019
  113MOL   H30536369   4.169   6.835   2.368  0.0740 -0.0359  0.1318
  113MOL   C30636370   4.287   6.883   2.194  0.1435  0.6455  0.2277
  113MOL   C30736371   4.255   6.795   2.080 -0.7310  0.2450 -0.3538
  113MOL   C30836372   4.125   6.743   2.068 -0.4416  0.4814  0.3820
  113MOL   C30936373   4.091   6.651   1.968  0.4909  0.4347 -0.1150
  113MOL   C31036374   4.186   6.616   1.876 -0.8720  0.4025 -0.1135
  113MOL   F31136375   4.140   6.542   1.772  0.6133  0.5911  0.1253
  113MOL   C31236376   4.319   6.675   1.878 -0.0448 -0.0415 -0.7231
  113MOL   C31336377   4.353   6.764   1.985 -0.4332 -0.5837  0.1007
  113MOL   C31436378   4.206   7.019   2.202  0.5778  0.1964  0.1329
  113MOL   H31536379   4.390   6.917   2.201 -0.0570  0.8640  2.7638
  113MOL   H31636380   4.048   6.771   2.139 -0.7572 -0.0803  0.2670
  113MOL   H31736381   3.991   6.614   1.954  0.8206 -0.5861  0.1788
  113MOL   H31836382   4.389   6.645   1.801 -2.1291 -0.3385 -2.5359
  113MOL   H31936383   4.446   6.818   1.983  0.0710 -1.3536  1.8406
  113MOL   H32036384   4.098   7.006   2.199  0.5962  0.1748 -0.4833
  113MOL   H32136385   4.233   7.063   2.298  0.2850 -1.3588  0.9343
  113MOL   H32236386   4.234   7.087   2.121  0.0352 -0.4640 -0.6094
  114MOL     C136387   0.096   2.832   4.068 -0.0078  0.3057 -0.3518
  114MOL     C236388   0.142   2.974   4.032 -0.6977 -0.1919 -0.6436
  114MOL     C336389   0.197   2.994   3.906  0.1485  0.4380 -0.1249
  114MOL     C436390   0.227   3.121   3.859 -0.7908  0.0334  0.1441
  114MOL     C536391   0.201   3.239   3.943 -0.1019 -0.6080  0.6402
  114MOL     F636392   0.222   3.365   3.888  0.2803  0.0678  0.1816
  114MOL     C736393   0.155   3.217   4.077  0.0880 -0.4271  0.3778
  114MOL     C836394   0.123   3.083   4.122 -0.4149 -0.2037 -0.1088
  114MOL     C936395   0.164   2.779   4.196 -0.0036 -0.2808  0.2716
  114MOL    H1036396   0.108   2.758   3.989  2.6632  0.3833 -0.0601
  114MOL    H1136397   0.211   2.909   3.841  0.9139  0.6709 -0.2757
  114MOL    H1236398   0.262   3.133   3.757 -1.5904  1.2605  0.0063
  114MOL    H1336399   0.142   3.301   4.144 -2.1037  0.6528 -1.3069
  114MOL    H1436400   0.085   3.073   4.223  0.9888  1.9339  0.6674
  114MOL    H1536401   0.267   2.813   4.208  0.4900 -1.8870  0.7127
  114MOL    H1636402   0.121   2.812   4.291  0.5410  2.1371 -0.2792
  114MOL    H1736403   8.226   2.840   4.100  0.2642  1.7821  0.1905
  114MOL    C1836404   0.168   2.628   4.204 -0.3131 -0.4959 -0.2955
  114MOL    C1936405   0.255   2.581   4.315 -0.5234  0.4084  0.3866
  114MOL    C2036406   0.349   2.473   4.287  0.0629  0.3834  0.1593
  114MOL    C2136407   0.418   2.420   4.390  0.0525 -0.2159  0.7162
  114MOL    C2236408   0.417   2.470   4.519  0.0136 -0.2217 -0.3120
  114MOL    F2336409   0.490   2.410   4.615  1.1587  0.2447 -0.2408
  114MOL    C2436410   0.322   2.569   4.552  0.2302 -0.8418  0.0691
  114MOL    C2536411   0.248   2.632   4.452 -0.2398  0.4943  0.5954
  114MOL    C2636412   0.032   2.565   4.208 -0.0926 -0.8414  0.1632
  114MOL    H2736413   0.219   2.605   4.110  0.0155 -0.4207 -0.1389
  114MOL    H2836414   0.367   2.440   4.186  0.1223  3.3337 -0.8449
  114MOL    H2936415   0.482   2.334   4.374 -1.0264 -0.6471 -1.4609
  114MOL    H3036416   0.321   2.617   4.649  0.0829 -1.3254  0.3068
  114MOL    H3136417   0.189   2.716   4.484  0.2911  0.4742  1.6323
  114MOL    H3236418   8.232   2.576   4.311 -0.2858  1.5677 -0.1106
  114MOL    H3336419   8.187   2.616   4.154 -1.3843 -2.6878  0.2951
  114MOL    C3436420   0.011   2.411   4.178  0.5924 -0.0036  0.2079
  114MOL    C3536421   8.124   2.352   4.252  0.4823  0.0421  0.1239
  114MOL    C3636422   8.127   2.305   4.384 -0.2776 -0.2727 -0.0190
  114MOL    C3736423   8.019   2.248   4.448 -0.0204  0.2603 -0.4504
  114MOL    C3836424   7.897   2.241   4.381 -0.6658  0.4004 -0.2211
  114MOL    F3936425   7.786   2.190   4.442 -0.4671 -0.2614  0.6265
  114MOL    C4036426   7.884   2.303   4.253 -0.3580 -0.1540  0.4868
  114MOL    C4136427   7.999   2.348   4.187 -0.3976  0.2346  0.0830
  114MOL    C4236428   0.026   2.366   4.028  0.2577 -0.5197  0.1393
  114MOL    H4336429   0.096   2.365   4.229 -0.7796 -0.9914  1.6702
  114MOL    H4436430   8.220   2.327   4.433  0.7559 -1.2376 -1.4957
  114MOL    H4536431   8.034   2.216   4.550  1.5390  0.9938 -0.4394
  114MOL    H4636432   7.791   2.302   4.198  1.0352  0.4678 -1.9610
  114MOL    H4736433   7.987   2.387   4.087  0.1817 -0.1935 -0.1543
  114MOL    H4836434   8.172   2.403   3.976 -0.2800 -1.3305  0.4573
  114MOL    H4936435   0.108   2.426   3.989 -0.9531  0.2460 -1.2809
  114MOL    C5036436   0.042   2.216   3.999 -0.4545  0.0414 -0.3354
  114MOL    C5136437   0.063   2.194   3.849 -0.7635 -0.2833 -0.0503
  114MOL    C5236438   0.189   2.235   3.785  0.6816  0.1138  0.4098
  114MOL    C5336439   0.218   2.209   3.650  0.6256  0.1116  0.1326
  114MOL    C5436440   0.121   2.145   3.573  0.0599  0.8522 -0.6962
  114MOL    F5536441   0.129   2.127   3.436  0.2231  0.1919 -0.7559
  114MOL    C5636442   0.002   2.101   3.636  0.2152  0.5731 -0.0327
  114MOL    C5736443   8.203   2.124   3.771 -0.4609 -0.1760 -1.0833
  114MOL    C5836444   0.145   2.136   4.079  0.4357 -0.5578  0.9663
  114MOL    H5936445   8.179   2.177   4.030  0.6803  0.3800  4.0748
  114MOL    H6036446   0.271   2.286   3.833  1.5828 -1.1458  0.2242
  114MOL    H6136447   0.317   2.239   3.619  1.0310 -2.6762 -1.4239
  114MOL    H6236448   8.168   2.046   3.572  1.5678  2.4914 -3.2436
  114MOL    H6336449   8.115   2.074   3.809 -0.0394 -0.1827 -0.0984
  114MOL    H6436450   0.197   2.075   4.005  1.5270 -0.4132  1.6058
  114MOL    H6536451   0.223   2.199   4.120  0.4891  0.1838 -0.2378
  114MOL    C6636452   0.090   2.042   4.191  0.1627  0.1236 -0.2492
  114MOL    C6736453   8.202   1.968   4.149 -0.1061 -0.0433  0.4593
  114MOL    C6836454   8.211   1.881   4.042 -0.2644 -0.3641  0.1886
  114MOL    C6936455   8.102   1.804   4.003 -0.1821  0.1256  0.5620
  114MOL    C7036456   7.981   1.815   4.064 -0.0882 -0.3325  0.8672
  114MOL    F7136457   7.874   1.746   4.014  0.0095  0.0310  0.4407
  114MOL    C7236458   7.969   1.905   4.168  0.2277 -0.1002  0.3606
  114MOL    C7336459   8.081   1.975   4.219 -0.2749  0.3840 -0.6621
  114MOL    C7436460   0.188   1.938   4.253 -0.4497  0.4655 -0.2080
  114MOL    H7536461   0.064   2.103   4.278  0.9336 -0.1415  0.1736
  114MOL    H7636462   0.069   1.866   3.988 -1.0695  1.2556 -1.6898
  114MOL    H7736463   8.116   1.736   3.920  0.1442  1.3485 -0.4091
  114MOL    H7836464   7.883   1.912   4.234 -0.1331  1.7437 -0.2957
  114MOL    H7936465   8.076   2.020   4.317  2.2512 -2.4180  0.8282
  114MOL    H8036466   0.141   1.865   4.319  1.0418 -0.0616  0.2754
  114MOL    H8136467   0.250   1.907   4.170 -0.8186  2.5789 -1.3245
  114MOL    C8236468   0.293   2.004   4.350 -0.3606  0.0612 -0.6737
  114MOL    C8336469   0.233   2.043   4.480 -0.7913  0.6535  0.3391
  114MOL    C8436470   0.198   1.938   4.570  0.1889  0.3057 -0.3264
  114MOL    C8536471   0.131   1.965   4.690 -0.0991 -0.5425 -0.8626
  114MOL    C8636472   0.113   2.094   4.732 -0.0742 -0.7077  0.1082
  114MOL    F8736473   0.048   2.116   4.850 -0.0145 -0.6773  0.2795
  114MOL    C8836474   0.153   2.202   4.650 -0.0341 -0.3487 -0.4712
  114MOL    C8936475   0.215   2.173   4.523  0.6784 -0.7338 -0.4882
  114MOL    C9036476   0.416   1.909   4.377  0.0564  0.2780 -0.1356
  114MOL    H9136477   0.333   2.095   4.305 -2.5349  1.1520 -0.5008
  114MOL    H9236478   0.214   1.836   4.539  2.1237  0.9469 -1.5601
  114MOL    H9336479   0.108   1.886   4.759  1.7811 -0.6686 -0.3492
  114MOL    H9436480   0.131   2.305   4.674 -1.0926 -0.9014  1.0635
  114MOL    H9536481   0.238   2.256   4.457  0.6996  1.7409  2.5015
  114MOL    H9636482   0.465   1.946   4.467  3.9678 -2.4350 -1.0127
  114MOL    H9736483   0.373   1.815   4.410  0.8234 -0.7350 -1.9200
  114MOL    C9836484   0.524   1.898   4.271 -0.1787  0.0200  0.0796
  114MOL    C9936485   0.586   2.029   4.220  0.3595 -0.1535  0.0204
  114MOL   C10036486   0.709   2.073   4.282  0.0661 -0.0867  0.6969
  114MOL   C10136487   0.773   2.198   4.242  0.0980  1.4803 -0.0136
  114MOL   C10236488   0.711   2.282   4.147 -0.1756  0.5140  0.0777
  114MOL   F10336489   0.768   2.397   4.103 -0.3895 -0.0218  0.2302
  114MOL   C10436490   0.591   2.240   4.090  0.8834  0.3739 -0.0814
  114MOL   C10536491   0.523   2.116   4.130  0.2862  0.0269 -0.3460
  114MOL   C10636492   0.624   1.782   4.303  0.0786  0.8250 -0.3194
  114MOL   H10736493   0.468   1.853   4.190  1.6279  0.2889 -1.3529
  114MOL   H10836494   0.758   2.010   4.356 -0.7727  1.9981  3.1102
  114MOL   H10936495   0.865   2.227   4.291 -0.2256 -2.2680  3.0456
  114MOL   H11036496   0.541   2.312   4.028  0.3043 -1.6409 -2.0296
  114MOL   H11136497   0.431   2.077   4.089  0.2183 -1.0415  0.7807
  114MOL   H11236498   0.673   1.805   4.397 -1.0811  1.6253  0.0924
  114MOL   H11336499   0.567   1.695   4.335 -0.0309 -0.0829 -2.8934
  114MOL   C11436500   0.728   1.746   4.194 -0.2199  0.8321  0.1235
  114MOL   C11536501   0.871   1.734   4.257 -0.0061 -0.2866 -0.0604
  114MOL   C11636502   0.892   1.653   4.371 -0.1502 -0.1948 -0.5949
  114MOL   C11736503   1.016   1.647   4.434 -0.0481  0.7312 -0.4293
  114MOL   C11836504   1.116   1.733   4.385 -0.8778 -0.7753  0.5447
  114MOL   F11936505   1.240   1.735   4.447  0.2482  0.6550  0.0320
  114MOL   C12036506   1.098   1.824   4.278 -0.2037 -0.3857 -0.5295
  114MOL   C12136507   0.971   1.815   4.209  0.9543  0.9786  0.8704
  114MOL   C12236508   0.691   1.609   4.127 -0.2181  1.0080 -0.4860
  114MOL   H12336509   0.729   1.813   4.109 -1.4489  0.4947 -0.1617
  114MOL   H12436510   0.813   1.593   4.411 -0.1966  0.6075  0.5311
  114MOL   H12536511   1.026   1.582   4.520 -1.0001 -0.6340 -1.3413
  114MOL   H12636512   1.177   1.891   4.247  0.5661 -0.7398  0.6678
  114MOL   H12736513   0.956   1.880   4.124  1.5347  1.5077  1.1632
  114MOL   H12836514   0.776   1.571   4.070  1.0525  0.5400  1.6925
  114MOL   H12936515   0.659   1.541   4.205  1.1590  0.2428 -0.5643
  114MOL   C13036516   0.560   1.615   4.033 -0.1873  0.0737 -0.1022
  114MOL   C13136517   0.567   1.731   3.921  0.2211  0.0484 -0.2243
  114MOL   C13236518   0.690   1.751   3.852 -0.3998 -0.3351  0.0778
  114MOL   C13336519   0.705   1.855   3.759  0.6240 -0.1667  0.3523
  114MOL   C13436520   0.596   1.942   3.740  0.0806 -0.4905 -0.2340
  114MOL   F13536521   0.605   2.042   3.647 -0.0030  0.2593  0.6102
  114MOL   C13636522   0.478   1.931   3.815 -0.0326 -0.2945 -0.0295
  114MOL   C13736523   0.462   1.822   3.902 -0.3045 -0.1271 -0.6783
  114MOL   C13836524   0.524   1.481   3.972  0.2333  0.1432  1.1426
  114MOL   H13936525   0.480   1.642   4.102 -0.3162  1.1492 -0.6569
  114MOL   H14036526   0.773   1.683   3.870  0.5595  1.0271  0.8678
  114MOL   H14136527   0.803   1.860   3.712 -0.2677  1.8032 -1.3707
  114MOL   H14236528   0.401   2.007   3.810 -0.3797 -0.6434 -0.0971
  114MOL   H14336529   0.368   1.820   3.955 -0.0425  0.9939 -0.1450
  114MOL   H14436530   0.459   1.492   3.885  0.8402  0.0449  0.6671
  114MOL   H14536531   0.616   1.449   3.923  0.6561  2.2460  0.5273
  114MOL   C14636532   0.461   1.380   4.068  0.5997  0.2887  0.0544
  114MOL   C14736533   0.346   1.438   4.142  0.6236  1.1670  0.3183
  114MOL   C14836534   0.345   1.470   4.281  0.5414  0.3874 -0.8161
  114MOL   C14936535   0.243   1.534   4.347 -0.2394  0.1263 -0.0277
  114MOL   C15036536   0.129   1.573   4.271 -0.2263  0.1278  0.0799
  114MOL   F15136537   0.021   1.634   4.332 -0.0035 -0.2592 -0.0951
  114MOL   C15236538   0.128   1.550   4.130 -0.4330  0.4664 -0.1248
  114MOL   C15336539   0.233   1.485   4.067 -0.3758 -0.9096  0.1422
  114MOL   C15436540   0.418   1.248   4.003  0.2066 -0.0749 -0.0543
  114MOL   H15536541   0.536   1.361   4.145  0.0318 -1.5623  0.1696
  114MOL   H15636542   0.435   1.448   4.337  0.7715  2.8843 -0.1653
  114MOL   H15736543   0.241   1.559   4.452  1.7981  2.6414 -0.5376
  114MOL   H15836544   0.049   1.584   4.064 -0.3438 -0.2343 -0.5976
  114MOL   H15936545   0.226   1.470   3.960 -0.7767 -0.7236  0.1429
  114MOL   H16036546   0.349   1.205   4.076 -0.0160 -0.8279 -0.6961
  114MOL   H16136547   0.351   1.260   3.917  1.1619 -2.2647 -1.1403
  114MOL   C16236548   0.538   1.158   3.977  0.0613  0.5340  0.2062
  114MOL   C16336549   0.603   1.103   4.105  0.1355 -0.1699 -0.4956
  114MOL   C16436550   0.739   1.124   4.135 -0.3266  0.6802  0.4974
  114MOL   C16536551   0.793   1.070   4.251  0.1660 -0.8279 -0.1253
  114MOL   C16636552   0.718   0.988   4.337  0.1881  0.0104 -0.0933
  114MOL   F16736553   0.776   0.925   4.436  0.3347  0.4119  0.2306
  114MOL   C16836554   0.579   0.972   4.310  0.5475 -0.6234  0.0806
  114MOL   C16936555   0.522   1.028   4.192  0.6375  0.1840 -0.0634
  114MOL   C17036556   0.498   1.037   3.893 -0.4403  0.0182  0.3004
  114MOL   H17136557   0.612   1.214   3.920  0.9701  0.3086  1.1651
  114MOL   H17236558   0.802   1.176   4.065  1.1075 -0.4178  0.9398
  114MOL   H17336559   0.895   1.082   4.283 -0.0465 -1.0938  0.6802
  114MOL   H17436560   0.523   0.915   4.382  1.1961  0.2308  1.2761
  114MOL   H17536561   0.418   1.031   4.162  0.5650  0.1786  0.1875
  114MOL   H17636562   0.570   0.955   3.906  1.9953  2.1071  0.5204
  114MOL   H17736563   0.404   0.990   3.920 -0.8131  1.6471  1.9363
  114MOL   C17836564   0.479   1.057   3.738  0.0310 -0.1489 -0.1207
  114MOL   C17936565   0.600   1.127   3.684 -0.5367  0.0007  0.7259
  114MOL   C18036566   0.722   1.060   3.684  0.0220 -0.6043 -0.2958
  114MOL   C18136567   0.840   1.139   3.649 -0.3676  0.4293 -0.3735
  114MOL   C18236568   0.828   1.277   3.629 -0.3449 -0.2099  0.6091
  114MOL   F18336569   0.937   1.348   3.595  0.1279 -0.1735 -0.3652
  114MOL   C18436570   0.700   1.339   3.632  0.0492  0.0728  0.4809
  114MOL   C18536571   0.586   1.264   3.651  0.3068  0.1472  0.1520
  114MOL   C18636572   0.439   0.926   3.658  0.3912 -0.3788  0.2374
  114MOL   H18736573   0.397   1.128   3.734  2.2241  2.4424 -0.5760
  114MOL   H18836574   0.738   0.959   3.718 -0.4998 -0.8883 -0.8800
  114MOL   H18936575   0.935   1.089   3.659 -0.8725 -0.3813  0.5395
  114MOL   H19036576   0.687   1.445   3.619 -1.0550 -0.2871 -1.4865
  114MOL   H19136577   0.488   1.306   3.669 -0.8631 -3.4891  2.9962
  114MOL   H19236578   0.504   0.916   3.570 -1.2230  2.2729 -1.3110
  114MOL   H19336579   0.456   0.831   3.709 -2.5046 -0.4209  1.1666
  114MOL   C19436580   0.298   0.921   3.599  0.4974  0.6004  0.0657
  114MOL   C19536581   0.267   1.032   3.494 -0.8855 -0.0837  0.2726
  114MOL   C19636582   0.342   1.066   3.380 -0.5925 -0.3988  0.3458
  114MOL   C19736583   0.301   1.168   3.295 -0.3424  0.7342 -0.2416
  114MOL   C19836584   0.188   1.244   3.328 -0.0845  0.1854 -0.7957
  114MOL   F19936585   0.147   1.344   3.251  0.5285  0.2119 -0.0773
  114MOL   C20036586   0.115   1.221   3.441  0.2162  0.3822 -0.1118
  114MOL   C20136587   0.155   1.112   3.526  0.1347  0.6726  0.0089
  114MOL   C20236588   0.256   0.786   3.545 -0.5176 -0.1664  0.2577
  114MOL   H20336589   0.236   0.942   3.686  1.2518  1.6941  0.3509
  114MOL   H20436590   0.432   1.010   3.359 -0.0690  0.4570  0.2593
  114MOL   H20536591   0.355   1.205   3.209  2.2548  1.7880  1.7504
  114MOL   H20636592   0.034   1.286   3.472  1.3099  0.6657  2.2679
  114MOL   H20736593   0.092   1.083   3.609  1.1958 -0.0578  0.5768
  114MOL   H20836594   0.306   0.774   3.448  1.1718 -0.1348  1.1079
  114MOL   H20936595   0.296   0.713   3.615 -1.0251  1.5412  2.3719
  114MOL   C21036596   0.104   0.787   3.523 -0.5341 -0.1782  0.2005
  114MOL   C21136597   0.072   0.694   3.411  0.1057 -0.1973  0.2460
  114MOL   C21236598   0.111   0.560   3.424 -0.0895 -0.8471 -0.2616
  114MOL   C21336599   0.082   0.464   3.320  0.4767 -0.4546  0.5698
  114MOL   C21436600   0.017   0.518   3.204 -0.7261  0.3046  0.3353
  114MOL   F21536601   8.230   0.430   3.098  0.1254 -0.1229  0.6368
  114MOL   C21636602   8.207   0.652   3.192 -0.3421 -0.5629  0.0339
  114MOL   C21736603   0.009   0.737   3.298 -0.1032 -0.4301  0.2733
  114MOL   C21836604   0.035   0.745   3.652  0.1372  0.5903  0.7435
  114MOL   H21936605   0.076   0.888   3.495  1.5391  0.0577 -1.1120
  114MOL   H22036606   0.145   0.523   3.519  0.0454 -1.4057 -0.5261
  114MOL   H22136607   0.115   0.363   3.335 -1.6645 -1.2037  0.4283
  114MOL   H22236608   8.168   0.694   3.101 -0.1631 -1.5696 -0.5216
  114MOL   H22336609   8.213   0.840   3.287  1.1116 -0.1849 -0.8990
  114MOL   H22436610   0.057   0.639   3.660 -1.4019  0.2085  0.0695
  114MOL   H22536611   0.077   0.797   3.739  0.4346  1.8338 -0.1239
  114MOL   C22636612   8.115   0.757   3.666  0.5520 -0.1619 -0.3755
  114MOL   C22736613   8.054   0.899   3.659 -0.3132 -0.2799  0.0088
  114MOL   C22836614   8.062   0.986   3.542  0.3689 -0.4865  1.1971
  114MOL   C22936615   8.013   1.118   3.543 -0.3397  0.0977 -0.0297
  114MOL   C23036616   7.956   1.171   3.655  0.2875 -0.2785 -0.0348
  114MOL   F23136617   7.919   1.298   3.649 -0.3207 -0.0531  0.7615
  114MOL   C23236618   7.945   1.093   3.774 -0.3628 -0.7499 -0.4686
  114MOL   C23336619   7.988   0.957   3.772 -0.5887  0.1611  0.0371
  114MOL   C23436620   8.039   0.668   3.561 -0.0293 -0.8577 -0.0418
  114MOL   H23536621   8.093   0.724   3.768 -0.1654  0.6084 -0.2750
  114MOL   H23636622   8.109   0.953   3.450 -1.7252  2.8887 -1.1917
  114MOL   H23736623   8.036   1.189   3.464  2.1246 -0.3522  0.2334
  114MOL   H23836624   7.895   1.137   3.860  0.5689  0.1726 -0.3824
  114MOL   H23936625   7.976   0.905   3.865  1.5540  0.4668  0.5227
  114MOL   H24036626   8.029   0.718   3.465  0.1471  0.5720  0.6616
  114MOL   H24136627   8.112   0.588   3.549  0.8688  0.2020 -1.8534
  114MOL   C24236628   7.899   0.620   3.604  0.5549  0.0153  0.4617
  114MOL   C24336629   7.816   0.592   3.481  0.1514 -0.4630 -0.2617
  114MOL   C24436630   7.677   0.621   3.487 -0.5749  0.7965 -0.3775
  114MOL   C24536631   7.588   0.585   3.380  0.3258 -0.0164 -0.1857
  114MOL   C24636632   7.643   0.529   3.265  0.6920 -0.3307  0.0087
  114MOL   F24736633   7.554   0.490   3.168  0.4336 -0.3356 -0.0919
  114MOL   C24836634   7.779   0.508   3.252 -0.7332  0.2155  0.1290
  114MOL   C24936635   7.869   0.534   3.363  0.0026  0.6306  0.3724
  114MOL   C25036636   7.916   0.495   3.690 -1.0960 -0.0583  0.1953
  114MOL   H25136637   7.844   0.691   3.666 -0.4139 -1.4841  1.3469
  114MOL   H25236638   7.629   0.669   3.571 -1.3861  2.5018 -1.7671
  114MOL   H25336639   7.480   0.596   3.381  0.2577 -0.6018  2.1047
  114MOL   H25436640   7.828   0.468   3.164  1.0088  3.8832 -0.6625
  114MOL   H25536641   7.974   0.512   3.351 -0.5857 -2.2421  0.0903
  114MOL   H25636642   7.944   0.408   3.630 -2.4162  0.2331 -0.8716
  114MOL   H25736643   7.998   0.518   3.758 -1.9833  1.1472  0.8664
  114MOL   C25836644   7.793   0.450   3.772 -0.7670  0.5941  0.0631
  114MOL   C25936645   7.790   0.299   3.772 -0.0241 -0.0358 -0.6560
  114MOL   C26036646   7.905   0.228   3.809  0.0891 -0.7693 -0.2918
  114MOL   C26136647   7.922   0.091   3.789  0.2169  0.3997 -0.0072
  114MOL   C26236648   7.812   0.016   3.738  0.7590  0.5307  0.2167
  114MOL   F26336649   7.819   8.119   3.716  0.2391 -0.2379 -0.6738
  114MOL   C26436650   7.697   0.087   3.696 -0.1192 -0.7779  0.8476
  114MOL   C26536651   7.684   0.228   3.708  0.5122 -0.1075  0.1015
  114MOL   C26636652   7.800   0.508   3.913 -0.6951 -0.1119 -1.0138
  114MOL   H26736653   7.703   0.491   3.726 -0.3196  0.2937 -1.0944
  114MOL   H26836654   7.976   0.287   3.865 -0.9103 -2.3236  2.7420
  114MOL   H26936655   8.006   0.035   3.827  0.2920  0.9310  0.6125
  114MOL   H27036656   7.623   0.029   3.643 -1.4360  1.9887 -0.4224
  114MOL   H27136657   7.594   0.269   3.665  0.1584  0.0225  0.9589
  114MOL   H27236658   7.899   0.512   3.957  0.1825  1.5867 -3.0529
  114MOL   H27336659   7.810   0.616   3.923  1.9181 -0.3328 -0.8356
  114MOL   C27436660   7.678   0.466   4.003 -0.2126 -0.5803 -0.1657
  114MOL   C27536661   7.719   0.490   4.148  0.3084 -0.2268  0.4068
  114MOL   C27636662   7.735   0.381   4.237 -0.2722  0.0110  0.3469
  114MOL   C27736663   7.756   0.403   4.373  0.2060  0.4366  0.0022
  114MOL   C27836664   7.764   0.534   4.420 -0.5176 -0.1624  0.0234
  114MOL   F27936665   7.784   0.550   4.554 -0.3596  0.2545 -0.1753
  114MOL   C28036666   7.749   0.644   4.332 -0.3050 -0.1069  0.3726
  114MOL   C28136667   7.732   0.623   4.197 -0.8329 -0.9643 -0.1139
  114MOL   C28236668   7.548   0.540   3.960 -0.1790 -0.3746  0.3752
  114MOL   H28336669   7.669   0.358   3.997 -0.0007 -0.5996 -0.1419
  114MOL   H28436670   7.731   0.281   4.198 -0.6319  0.0198  0.3613
  114MOL   H28536671   7.773   0.321   4.441  0.2910  0.3605 -0.1124
  114MOL   H28636672   7.761   0.745   4.366  1.7397 -0.0604 -0.4648
  114MOL   H28736673   7.720   0.710   4.134 -0.1372 -0.6550  0.1821
  114MOL   H28836674   7.545   0.642   4.000  0.0641  0.2784 -1.2272
  114MOL   H28936675   7.543   0.565   3.854  0.3652 -0.5612  0.3033
  114MOL   C29036676   7.413   0.472   3.993 -0.6077  0.2452 -0.1535
  114MOL   C29136677   7.410   0.335   3.928 -0.5230  0.0318 -0.4891
  114MOL   C29236678   7.466   0.218   3.991  0.1446 -0.6755  0.6174
  114MOL   C29336679   7.447   0.092   3.937  0.1552 -0.3353  0.0772
  114MOL   C29436680   7.375   0.080   3.817  0.2573 -0.1967  0.1240
  114MOL   F29536681   7.355   8.194   3.760  0.4580  0.1868  0.1661
  114MOL   C29636682   7.330   0.196   3.754 -0.4309 -0.0391  0.1875
  114MOL   C29736683   7.346   0.327   3.805  0.1085  0.1707  0.1556
  114MOL   C29836684   7.381   0.450   4.148  0.5527 -0.3572 -0.4418
  114MOL   H29936685   7.341   0.545   3.955 -1.8445 -0.9965 -0.1956
  114MOL   H30036686   7.522   0.232   4.083  2.2238 -1.0087 -0.5739
  114MOL   H30136687   7.489   0.004   3.983 -0.6758 -0.5189  0.4899
  114MOL   H30236688   7.280   0.186   3.658  0.4229 -1.2365 -0.1523
  114MOL   H30336689   7.312   0.415   3.752  1.0966  0.2891 -0.3017
  114MOL   H30436690   7.296   0.384   4.167  0.6786 -0.3565  0.1318
  114MOL   H30536691   7.462   0.406   4.206  0.4275  0.6349  0.4884
  114MOL   C30636692   7.357   0.569   4.235  0.1863 -0.2325 -0.5118
  114MOL   C30736693   7.271   0.669   4.161 -1.0366  0.7658  0.5597
  114MOL   C30836694   7.327   0.796   4.122 -0.1621  0.3677  0.6981
  114MOL   C30936695   7.252   0.893   4.057 -0.8235 -0.4814 -0.3022
  114MOL   C31036696   7.119   0.867   4.019  0.0450 -0.1928 -0.1403
  114MOL   F31136697   7.043   0.953   3.945  0.1840  0.1328 -0.5301
  114MOL   C31236698   7.067   0.745   4.057  0.0907  0.1510  0.0198
  114MOL   C31336699   7.135   0.646   4.131 -0.5207 -0.0142  0.7778
  114MOL   C31436700   7.316   0.531   4.375 -0.4104  0.0683 -0.3973
  114MOL   H31536701   7.450   0.625   4.242 -0.5799  1.1052 -0.8256
  114MOL   H31636702   7.429   0.826   4.143  0.9455 -2.6541 -0.2153
  114MOL   H31736703   7.299   0.978   4.011 -1.6158  0.2581  0.2561
  114MOL   H31836704   6.968   0.719   4.024  0.1424  0.6425 -0.5169
  114MOL   H31936705   7.080   0.554   4.146 -1.3063  0.3197 -0.0311
  114MOL   H32036706   7.222   0.476   4.372 -0.6006  0.2405  1.5998
  114MOL   H32136707   7.390   0.466   4.422 -0.2100 -0.2656 -1.1677
  114MOL   H32236708   7.312   0.623   4.434 -1.5174  0.2403 -0.7228
  115MOL     C136709   2.885   6.141   2.188  0.9721 -0.0775  0.2569
  115MOL     C236710   2.863   6.223   2.063  0.2276  0.4487  0.6140
  115MOL     C336711   2.958   6.234   1.958  0.3823  0.0474  0.3044
  115MOL     C436712   2.930   6.305   1.842 -0.1745  0.1044 -0.1755
  115MOL     C536713   2.801   6.354   1.819  0.0969  0.1813  0.1522
  115MOL     F636714   2.772   6.401   1.696 -0.0507 -0.0740 -0.2370
  115MOL     C736715   2.704   6.349   1.920 -0.2838  0.1205 -0.4388
  115MOL     C836716   2.737   6.285   2.045 -0.1326 -0.1638  0.1153
  115MOL     C936717   3.025   6.146   2.241 -0.7745 -0.0646 -0.2044
  115MOL    H1036718   2.845   6.040   2.174  0.9335 -0.0631  0.2658
  115MOL    H1136719   3.058   6.192   1.963  1.2183  2.1316  2.4506
  115MOL    H1236720   3.003   6.306   1.763 -0.8749 -1.1885 -0.8550
  115MOL    H1336721   2.603   6.384   1.913 -0.2769 -0.0096 -1.1674
  115MOL    H1436722   2.658   6.282   2.118  1.3024  2.2304  1.8427
  115MOL    H1536723   3.103   6.138   2.165 -0.7138  0.6255 -0.2170
  115MOL    H1636724   3.035   6.240   2.295 -0.8287  0.1638 -0.5917
  115MOL    H1736725   2.814   6.185   2.259 -1.6274  1.9722 -3.4694
  115MOL    C1836726   3.063   6.045   2.364  0.2301 -0.4310  0.5370
  115MOL    C1936727   3.016   5.906   2.325 -0.0778 -0.2376  0.2775
  115MOL    C2036728   3.097   5.820   2.243 -0.4839  0.0406  0.3101
  115MOL    C2136729   3.055   5.688   2.202  0.0142 -0.5224  0.5838
  115MOL    C2236730   2.934   5.632   2.251  0.1188 -0.3602  0.4711
  115MOL    F2336731   2.894   5.505   2.234  0.1776 -0.3118 -0.7752
  115MOL    C2436732   2.853   5.720   2.322  0.6800 -0.6326 -0.0823
  115MOL    C2536733   2.892   5.852   2.363 -0.3165  0.4596 -0.5714
  115MOL    C2636734   3.210   6.053   2.416 -0.6725  0.1978 -0.6413
  115MOL    H2736735   3.007   6.081   2.450 -0.2471 -1.6124  0.7152
  115MOL    H2836736   3.198   5.853   2.222 -0.3939 -0.8957 -0.7079
  115MOL    H2936737   3.115   5.624   2.140 -1.4747 -2.4155  1.0448
  115MOL    H3036738   2.758   5.688   2.364 -0.6219  0.1592 -2.3061
  115MOL    H3136739   2.822   5.913   2.418  0.0161 -0.2079  0.6055
  115MOL    H3236740   3.236   5.975   2.489  0.0720 -0.5670 -1.7044
  115MOL    H3336741   3.272   6.032   2.329  1.8036  2.3057  0.5480
  115MOL    C3436742   3.259   6.191   2.474 -0.1041 -0.3292  0.1935
  115MOL    C3536743   3.186   6.226   2.603 -0.3704 -0.6143  0.0076
  115MOL    C3636744   3.131   6.358   2.618  0.7143 -0.7713  0.1360
  115MOL    C3736745   3.088   6.399   2.750  0.2148 -0.5492  0.0685
  115MOL    C3836746   3.074   6.304   2.851  0.1088  0.9240  0.3856
  115MOL    F3936747   3.024   6.338   2.978  0.2603  0.2543 -0.0959
  115MOL    C4036748   3.109   6.171   2.827 -0.8481 -0.1191  0.0925
  115MOL    C4136749   3.172   6.131   2.704  0.1960  0.3951  0.5353
  115MOL    C4236750   3.406   6.199   2.489  0.6080  0.7645  0.6612
  115MOL    H4336751   3.229   6.271   2.407  4.1642  1.6023  0.3918
  115MOL    H4436752   3.123   6.427   2.536  0.8392  1.2787  1.8230
  115MOL    H4536753   3.063   6.499   2.783  1.5773 -1.1492  3.1500
  115MOL    H4636754   3.099   6.099   2.906 -1.6452 -1.0814 -0.8785
  115MOL    H4736755   3.210   6.030   2.696 -1.4580 -0.2419  0.5782
  115MOL    H4836756   3.426   6.293   2.542  0.4468  1.0127  0.2792
  115MOL    H4936757   3.447   6.121   2.553  0.0635 -0.8359 -0.9295
  115MOL    C5036758   3.482   6.226   2.353  0.1840 -0.0314  0.1192
  115MOL    C5136759   3.420   6.343   2.278  0.2091  0.5048 -0.1240
  115MOL    C5236760   3.335   6.331   2.163  0.6416 -0.3029 -0.9605
  115MOL    C5336761   3.279   6.444   2.103  0.1865 -0.2033  0.5271
  115MOL    C5436762   3.300   6.572   2.154 -0.0407  0.2286 -0.1415
  115MOL    F5536763   3.248   6.677   2.096  0.0620  0.1599  0.1494
  115MOL    C5636764   3.390   6.588   2.261  0.2420 -0.0603 -0.2303
  115MOL    C5736765   3.444   6.475   2.327  0.2500  0.0404 -0.5196
  115MOL    C5836766   3.636   6.226   2.382  0.5168  0.1753  0.0080
  115MOL    H5936767   3.478   6.145   2.280 -0.5948  0.8528 -0.8338
  115MOL    H6036768   3.317   6.236   2.115  0.8729  0.2669 -2.2093
  115MOL    H6136769   3.201   6.429   2.029  0.7602 -1.0364  0.0730
  115MOL    H6236770   3.417   6.687   2.294 -0.5685 -0.3995  1.4724
  115MOL    H6336771   3.525   6.489   2.397  0.9075  0.4200 -1.3503
  115MOL    H6436772   3.659   6.302   2.457  1.4568  0.1187 -0.2056
  115MOL    H6536773   3.660   6.131   2.429 -2.8817  0.0958  1.7298
  115MOL    C6636774   3.740   6.263   2.263  0.3676  0.5353  0.4136
  115MOL    C6736775   3.789   6.410   2.263 -0.0913  0.0614  0.2247
  115MOL    C6836776   3.883   6.450   2.354  0.4859  0.3371  0.0234
  115MOL    C6936777   3.911   6.588   2.376 -0.5250 -1.0083 -0.5365
  115MOL    C7036778   3.841   6.687   2.303 -1.4471 -0.4627 -0.1805
  115MOL    F7136779   3.862   6.820   2.319  0.2608 -0.1530  0.0265
  115MOL    C7236780   3.754   6.649   2.199  0.0157  0.5213  0.0661
  115MOL    C7336781   3.733   6.507   2.174 -0.1310 -0.2875 -0.4652
  115MOL    C7436782   3.844   6.144   2.253  0.1330  0.1055 -0.6526
  115MOL    H7536783   3.677   6.261   2.174  0.1287  1.4928  0.5614
  115MOL    H7636784   3.933   6.371   2.407  1.7149  0.5015 -0.8773
  115MOL    H7736785   3.971   6.618   2.462 -1.0385  1.2565 -0.9295
  115MOL    H7836786   3.723   6.729   2.133  1.4495  1.9949  1.1457
  115MOL    H7936787   3.678   6.478   2.085 -0.9372  0.3289 -0.1679
  115MOL    H8036788   3.863   6.099   2.350 -0.9108 -0.6637 -0.7930
  115MOL    H8136789   3.795   6.065   2.195 -1.8133 -1.5614  3.0868
  115MOL    C8236790   3.970   6.166   2.171  0.0467  0.0186  0.8206
  115MOL    C8336791   4.085   6.216   2.257  0.2888  0.4649 -0.5923
  115MOL    C8436792   4.124   6.134   2.362  0.4595  0.7815 -0.4027
  115MOL    C8536793   4.226   6.175   2.448  0.2980 -0.8687  0.2264
  115MOL    C8636794   4.300   6.294   2.418 -0.1195 -0.2471 -0.2584
  115MOL    F8736795   4.409   6.326   2.485 -0.1129  0.1198  0.3915
  115MOL    C8836796   4.262   6.371   2.309 -0.1253  0.4000  0.6169
  115MOL    C8936797   4.152   6.334   2.227  0.9555 -0.0915  0.1795
  115MOL    C9036798   4.012   6.048   2.070  0.2850  0.2013  0.0074
  115MOL    H9136799   3.947   6.250   2.105  0.4892  0.2060  0.9076
  115MOL    H9236800   4.085   6.035   2.382  1.4420 -0.1062 -2.6721
  115MOL    H9336801   4.255   6.107   2.526  0.4398  0.0086  0.9471
  115MOL    H9436802   4.318   6.461   2.291  1.4556 -0.3821  1.5565
  115MOL    H9536803   4.121   6.398   2.146 -0.5678  2.2114  2.5116
  115MOL    H9636804   4.111   6.066   2.028  0.1573  1.2205  0.1186
  115MOL    H9736805   4.032   5.958   2.127  0.5080 -0.7550 -1.5509
  115MOL    C9836806   3.917   6.007   1.950 -1.2590 -0.1654 -0.1528
  115MOL    C9936807   3.840   6.126   1.899 -0.0927 -0.1756  0.7073
  115MOL   C10036808   3.903   6.234   1.825 -0.1727 -0.3460 -0.3298
  115MOL   C10136809   3.834   6.353   1.799 -0.4270 -0.1201 -0.5707
  115MOL   C10236810   3.692   6.358   1.832 -0.5824  0.7841 -0.0803
  115MOL   F10336811   3.626   6.469   1.794  0.1736 -0.1879  0.1794
  115MOL   C10436812   3.627   6.247   1.889  0.4853  0.4196 -1.0975
  115MOL   C10536813   3.704   6.132   1.919 -0.3309 -0.0572  0.0951
  115MOL   C10636814   3.989   5.933   1.838 -0.2258 -0.3977  0.2395
  115MOL   H10736815   3.838   5.942   1.988 -0.0283 -0.3913  2.1039
  115MOL   H10836816   4.008   6.226   1.801  0.5873 -0.4123  2.8562
  115MOL   H10936817   3.884   6.432   1.744  1.4130 -0.1245  1.0629
  115MOL   H11036818   3.523   6.254   1.918  1.2339  4.3711  0.9130
  115MOL   H11136819   3.653   6.053   1.972 -0.8143 -0.1051 -0.4324
  115MOL   H11236820   3.918   5.921   1.756  2.0004 -0.7088 -1.6984
  115MOL   H11336821   4.060   6.004   1.794 -0.7554 -0.3004 -0.4622
  115MOL   C11436822   4.054   5.799   1.868 -1.5065 -0.0360 -0.4083
  115MOL   C11536823   4.050   5.723   1.734  0.8604  0.3740  0.3319
  115MOL   C11636824   4.137   5.750   1.629 -0.5603  0.2474 -0.5491
  115MOL   C11736825   4.123   5.691   1.503  0.0230  0.0526  0.3492
  115MOL   C11836826   4.015   5.595   1.478  0.0204 -0.4468  0.5597
  115MOL   F11936827   3.991   5.544   1.352  0.1902  0.4081 -0.0432
  115MOL   C12036828   3.930   5.563   1.580  0.8685 -0.4573 -0.0793
  115MOL   C12136829   3.950   5.618   1.713  0.1757  0.7956  0.4629
  115MOL   C12236830   4.197   5.801   1.925  0.3919 -0.0559 -0.0531
  115MOL   H12336831   3.988   5.747   1.938 -1.5779  0.5833 -0.0185
  115MOL   H12436832   4.217   5.820   1.646  0.1167 -0.8517  0.9138
  115MOL   H12536833   4.191   5.727   1.426 -3.0557  3.7687 -0.8024
  115MOL   H12636834   3.855   5.485   1.573 -0.7058  1.1236 -1.5000
  115MOL   H12736835   3.885   5.589   1.794 -1.4710  0.3640 -0.9956
  115MOL   H12836836   4.256   5.863   1.858 -0.9334  0.8942 -0.3704
  115MOL   H12936837   4.194   5.865   2.014  2.0780  0.9525 -0.6985
  115MOL   C13036838   4.268   5.661   1.950 -0.0983 -0.0279  0.3100
  115MOL   C13136839   4.421   5.663   1.939  0.5987 -0.7039 -0.6129
  115MOL   C13236840   4.491   5.782   1.977  0.4669 -0.2699 -0.3165
  115MOL   C13336841   4.629   5.791   1.964 -0.1352  0.1704  1.0159
  115MOL   C13436842   4.700   5.683   1.909 -0.2497 -0.0566  0.2447
  115MOL   F13536843   4.832   5.689   1.884 -0.1074 -0.0639  0.3777
  115MOL   C13636844   4.633   5.563   1.870  0.1575  0.2968  0.0040
  115MOL   C13736845   4.493   5.553   1.890 -0.0677  0.5843  0.3921
  115MOL   C13836846   4.227   5.592   2.076 -0.1973  0.3753 -0.0801
  115MOL   H13936847   4.231   5.597   1.870 -1.4145  1.5245 -0.3669
  115MOL   H14036848   4.438   5.859   2.030  0.4126 -0.9884  0.6775
  115MOL   H14136849   4.683   5.876   2.002 -1.3419 -0.3708  4.0658
  115MOL   H14236850   4.691   5.478   1.835  2.6037  1.5331  0.9467
  115MOL   H14336851   4.459   5.458   1.853  2.5977 -0.7159  1.1444
  115MOL   H14436852   4.314   5.545   2.123 -0.2407  1.9442  1.6339
  115MOL   H14536853   4.196   5.674   2.141  0.0072  0.9138 -0.6640
  115MOL   C14636854   4.107   5.490   2.066 -0.7327  0.4997  0.1796
  115MOL   C14736855   4.149   5.368   1.986  0.8409  0.5094 -0.2681
  115MOL   C14836856   4.095   5.332   1.859 -0.6073 -0.2368 -0.1927
  115MOL   C14936857   4.151   5.224   1.788  0.0875  0.3280  0.8069
  115MOL   C15036858   4.228   5.131   1.858 -0.3621 -0.2481 -0.5996
  115MOL   F15136859   4.268   5.015   1.796  0.0875  0.0937  0.2649
  115MOL   C15236860   4.277   5.161   1.986  1.1592  0.2135 -0.1664
  115MOL   C15336861   4.235   5.275   2.054 -0.0334  1.1043  0.2677
  115MOL   C15436862   4.058   5.462   2.213 -0.1434 -0.1432  0.2576
  115MOL   H15536863   4.026   5.528   2.005  0.0441  0.8972 -0.6126
  115MOL   H15636864   4.017   5.387   1.807  0.1551  1.4360  0.4032
  115MOL   H15736865   4.108   5.196   1.693  3.2562  0.3847 -0.7048
  115MOL   H15836866   4.359   5.104   2.027 -0.5585 -0.7847  1.9439
  115MOL   H15936867   4.278   5.289   2.152  2.0115  1.9104 -0.7181
  115MOL   H16036868   3.989   5.378   2.199  0.5543 -0.4017 -1.9367
  115MOL   H16136869   4.143   5.434   2.276 -1.6849 -0.3238  2.2890
  115MOL   C16236870   3.982   5.575   2.286  0.0167  1.1712 -0.5953
  115MOL   C16336871   3.859   5.633   2.218 -0.8171 -0.3691  0.9421
  115MOL   C16436872   3.809   5.756   2.249 -0.0059 -0.3966 -0.3799
  115MOL   C16536873   3.687   5.806   2.196  0.2489  0.1149  0.3570
  115MOL   C16636874   3.613   5.725   2.109 -0.3336  0.6906 -0.3201
  115MOL   F16736875   3.497   5.763   2.064  0.2759 -0.0896  0.1445
  115MOL   C16836876   3.655   5.589   2.084  1.1895 -0.1152  0.0619
  115MOL   C16936877   3.781   5.549   2.134 -0.1195  1.0057  0.1152
  115MOL   C17036878   3.949   5.542   2.436 -0.0458 -0.3640 -0.0384
  115MOL   H17136879   4.049   5.661   2.282  2.3618 -0.5460  0.6148
  115MOL   H17236880   3.865   5.821   2.315  1.4028 -0.5386 -1.4169
  115MOL   H17336881   3.645   5.901   2.225 -0.0982  0.0750 -0.0033
  115MOL   H17436882   3.592   5.525   2.024  0.1972  0.8007  0.1204
  115MOL   H17536883   3.802   5.445   2.117 -0.8014  1.3675 -3.3002
  115MOL   H17636884   3.909   5.630   2.488  0.2753 -0.5279  0.4873
  115MOL   H17736885   3.881   5.457   2.439  0.2010 -0.5166  1.4902
  115MOL   C17836886   4.072   5.514   2.524  0.8113 -0.1711 -0.4230
  115MOL   C17936887   4.193   5.602   2.502 -0.1989  0.7308  0.3263
  115MOL   C18036888   4.315   5.533   2.514  0.3784 -0.4578 -0.2659
  115MOL   C18136889   4.436   5.596   2.474  0.1128 -0.6242  0.4467
  115MOL   C18236890   4.437   5.732   2.445  0.7092  0.1253 -0.5849
  115MOL   F18336891   4.550   5.794   2.409  0.0054  0.5774  0.0344
  115MOL   C18436892   4.310   5.805   2.430  0.6156  0.4699 -0.5645
  115MOL   C18536893   4.188   5.739   2.474  0.0995 -0.1907 -0.6406
  115MOL   C18636894   4.035   5.520   2.674  0.4732 -0.0561  0.0208
  115MOL   H18736895   4.084   5.409   2.499  0.5008 -1.0779  2.9518
  115MOL   H18836896   4.321   5.428   2.540  1.7404 -0.3422 -0.0754
  115MOL   H18936897   4.525   5.536   2.460  1.6681  2.0132 -1.5490
  115MOL   H19036898   4.318   5.910   2.407 -1.3638  0.8211  0.1710
  115MOL   H19136899   4.097   5.795   2.457 -0.2855 -0.6907 -0.2144
  115MOL   H19236900   4.122   5.547   2.733  0.1453 -0.3858  0.6559
  115MOL   H19336901   3.960   5.599   2.685  0.8338  0.5224 -1.4457
  115MOL   C19436902   3.964   5.391   2.722  0.2132  0.8361 -1.0479
  115MOL   C19536903   4.071   5.277   2.752 -0.7034  0.3751  0.0048
  115MOL   C19636904   4.070   5.160   2.683  0.4581 -0.5860  0.5105
  115MOL   C19736905   4.159   5.054   2.708 -0.3055  0.3283 -0.1795
  115MOL   C19836906   4.255   5.069   2.809 -0.5005  0.3981  0.8363
  115MOL   F19936907   4.353   4.978   2.838  0.4912 -0.6168  0.2205
  115MOL   C20036908   4.259   5.188   2.888  0.2479 -0.1583 -0.0045
  115MOL   C20136909   4.162   5.290   2.857  0.2989  0.0663 -0.6846
  115MOL   C20236910   3.872   5.411   2.836 -0.5451 -0.5831 -0.3761
  115MOL   H20336911   3.904   5.350   2.641  0.7358  1.2457 -1.6504
  115MOL   H20436912   3.994   5.164   2.606  1.0878 -1.3403 -0.1453
  115MOL   H20536913   4.155   4.970   2.640  0.9572  0.3909 -0.3540
  115MOL   H20636914   4.341   5.220   2.951  0.4513  0.6732 -0.6814
  115MOL   H20736915   4.182   5.382   2.909  1.0799  0.5556 -1.8253
  115MOL   H20836916   3.922   5.377   2.927 -1.9146  0.1205  0.6599
  115MOL   H20936917   3.862   5.518   2.856  0.7146 -0.4326 -0.5196
  115MOL   C21036918   3.732   5.342   2.824  0.2962  0.0475  1.1720
  115MOL   C21136919   3.737   5.194   2.821  0.2900  0.6348 -0.0639
  115MOL   C21236920   3.786   5.114   2.931 -1.1385 -0.0898 -0.2710
  115MOL   C21336921   3.809   4.979   2.914  0.1871 -0.5809 -0.4116
  115MOL   C21436922   3.772   4.917   2.792  0.4367 -0.4662 -0.9115
  115MOL   F21536923   3.801   4.786   2.778 -0.0888  0.0147  0.4000
  115MOL   C21636924   3.725   4.989   2.681 -0.0187  0.2867 -0.0104
  115MOL   C21736925   3.715   5.128   2.694 -0.5659  0.2825 -0.1084
  115MOL   C21836926   3.630   5.393   2.933 -0.3909 -0.8126 -0.4240
  115MOL   H21936927   3.687   5.370   2.729  0.4152  0.7484  1.3187
  115MOL   H22036928   3.817   5.166   3.021 -1.2805  2.0692 -1.4244
  115MOL   H22136929   3.865   4.922   2.987 -0.1439 -2.0020 -1.2428
  115MOL   H22236930   3.712   4.942   2.585  1.9080 -1.3620  0.4938
  115MOL   H22336931   3.689   5.194   2.613  1.0700  2.9630  1.4930
  115MOL   H22436932   3.666   5.358   3.030 -1.2659 -0.7422 -0.0694
  115MOL   H22536933   3.624   5.502   2.934  0.4299 -0.7244  3.6637
  115MOL   C22636934   3.485   5.349   2.925  0.5050  0.8611 -0.8188
  115MOL   C22736935   3.457   5.215   2.986 -0.5211 -0.4134  0.4027
  115MOL   C22836936   3.483   5.181   3.125  0.5224 -0.3678  0.4733
  115MOL   C22936937   3.448   5.052   3.170  0.0169 -0.0452  0.1982
  115MOL   C23036938   3.393   4.956   3.090 -0.5921 -0.6352  0.2671
  115MOL   F23136939   3.365   4.834   3.133 -0.4519  0.5590  0.2936
  115MOL   C23236940   3.379   4.985   2.950 -0.4493 -0.1833 -0.6720
  115MOL   C23336941   3.408   5.109   2.900 -0.5824  0.3341 -0.6052
  115MOL   C23436942   3.385   5.460   2.970 -0.3899 -0.3361 -0.2521
  115MOL   H23536943   3.475   5.347   2.816  1.8432  0.7667 -0.9483
  115MOL   H23636944   3.523   5.250   3.198 -1.5065  0.5990  0.7346
  115MOL   H23736945   3.478   5.021   3.269 -0.2155 -1.4214 -0.1545
  115MOL   H23836946   3.341   4.905   2.888  0.6724  0.9951 -2.9196
  115MOL   H23936947   3.387   5.132   2.797 -3.1458  1.0710  0.0589
  115MOL   H24036948   3.332   5.427   3.059 -0.0210 -0.5627 -0.1166
  115MOL   H24136949   3.445   5.536   3.022 -1.6735 -0.8287  2.0164
  115MOL   C24236950   3.291   5.526   2.867 -0.3535 -0.1051  0.7418
  115MOL   C24336951   3.366   5.622   2.778  0.6633  0.3701  0.5057
  115MOL   C24436952   3.387   5.602   2.639 -0.2305  0.2024  0.4584
  115MOL   C24536953   3.453   5.698   2.562  0.3094  0.5008 -0.2650
  115MOL   C24636954   3.497   5.814   2.626 -0.7298 -0.0994 -0.0680
  115MOL   F24736955   3.545   5.913   2.541  0.4116  0.3172 -0.0512
  115MOL   C24836956   3.481   5.833   2.762  0.0546  0.7355  0.2024
  115MOL   C24936957   3.421   5.740   2.841  0.0704 -0.5777 -0.0370
  115MOL   C25036958   3.202   5.417   2.800  0.0578 -0.5503  0.7805
  115MOL   H25136959   3.232   5.593   2.930 -1.4886  1.3783 -1.8569
  115MOL   H25236960   3.358   5.506   2.600  1.8923 -0.0942 -0.4912
  115MOL   H25336961   3.465   5.695   2.455 -0.5064  1.3268 -0.3909
  115MOL   H25436962   3.513   5.926   2.807  1.5396 -0.1104  0.9019
  115MOL   H25536963   3.409   5.745   2.948  0.8449 -0.6313  0.0600
  115MOL   H25636964   3.144   5.475   2.728  1.8054 -0.5757 -0.6749
  115MOL   H25736965   3.261   5.355   2.733 -1.7009 -1.0973 -0.3014
  115MOL   C25836966   3.112   5.317   2.884  0.3766  0.0526 -0.3383
  115MOL   C25936967   3.034   5.391   2.991 -0.0518  0.0055 -0.1336
  115MOL   C26036968   2.955   5.504   2.964  0.0032 -0.3672  0.2904
  115MOL   C26136969   2.865   5.557   3.054 -0.3143  0.0960 -0.8420
  115MOL   C26236970   2.854   5.487   3.178  0.4409 -0.9515 -1.1166
  115MOL   F26336971   2.756   5.526   3.266  0.3117  0.1033 -0.0204
  115MOL   C26436972   2.932   5.379   3.198 -0.2428 -0.0817 -0.5506
  115MOL   C26536973   3.036   5.335   3.117  0.1667  0.0389  0.0567
  115MOL   C26636974   3.031   5.234   2.785 -0.3047 -0.5710 -0.6440
  115MOL   H26736975   3.182   5.256   2.941  0.3871  0.5639  0.2018
  115MOL   H26836976   2.954   5.553   2.867 -1.2225  1.9601  1.4300
  115MOL   H26936977   2.800   5.639   3.026 -0.5169  0.4381  0.5656
  115MOL   H27036978   2.897   5.320   3.281  0.4773 -2.4835 -1.8956
  115MOL   H27136979   3.082   5.238   3.133 -1.9096 -0.7310  1.6034
  115MOL   H27236980   2.972   5.310   2.735 -0.0728  0.1288  0.1356
  115MOL   H27336981   3.088   5.183   2.707  0.7406 -1.7301  0.8303
  115MOL   C27436982   2.922   5.148   2.843  0.4430 -0.0540 -0.1007
  115MOL   C27536983   2.814   5.129   2.738  0.2651 -0.3353  0.1367
  115MOL   C27636984   2.688   5.198   2.749  0.0497  0.3943 -0.7480
  115MOL   C27736985   2.587   5.175   2.652 -0.6714 -0.2106 -1.0574
  115MOL   C27836986   2.616   5.098   2.537  0.7258 -0.0325 -0.8841
  115MOL   F27936987   2.526   5.078   2.443 -0.3851  0.0592 -0.0475
  115MOL   C28036988   2.741   5.037   2.524  0.0272 -0.4191  0.1614
  115MOL   C28136989   2.838   5.049   2.624 -0.7860 -0.2802 -0.5010
  115MOL   C28236990   2.980   5.013   2.886 -0.6029  0.2990 -0.2996
  115MOL   H28336991   2.885   5.187   2.938  0.9908 -1.5702  0.7542
  115MOL   H28436992   2.665   5.257   2.837  1.4912 -1.2866  0.7769
  115MOL   H28536993   2.490   5.219   2.671 -0.9091 -0.9733 -0.4772
  115MOL   H28636994   2.766   4.978   2.438  0.4950 -1.0201  0.7002
  115MOL   H28736995   2.932   4.998   2.609 -0.1103 -0.3483  3.3635
  115MOL   H28836996   3.016   4.966   2.795 -1.4481 -1.7537  0.3885
  115MOL   H28936997   3.065   5.036   2.950 -1.0404 -1.3735  0.9263
  115MOL   C29036998   2.886   4.914   2.960  0.2370  0.1063 -0.4730
  115MOL   C29136999   2.957   4.781   2.955 -0.3072 -0.0376  0.0861
  115MOL   C29237000   3.074   4.768   3.025 -0.3191 -0.0768 -0.3131
  115MOL   C29337001   3.149   4.652   3.028 -0.3308  0.0503  0.1533
  115MOL   C29437002   3.106   4.535   2.957 -0.1174 -0.0102  0.2661
  115MOL   F29537003   3.170   4.418   2.964 -0.3203 -0.0174 -0.1548
  115MOL   C29637004   2.990   4.548   2.879  0.6233 -0.8260 -0.4710
  115MOL   C29737005   2.914   4.671   2.879 -0.1718 -0.9768 -0.5324
  115MOL   C29837006   2.847   4.953   3.104  0.1779  0.2371  0.2876
  115MOL   H29937007   2.793   4.922   2.903  0.2397 -0.0084 -0.4928
  115MOL   H30037008   3.118   4.844   3.089 -2.1302 -1.4433  2.6927
  115MOL   H30137009   3.245   4.653   3.077  1.2815  1.2667 -2.9095
  115MOL   H30237010   2.958   4.464   2.818  0.8452  0.9408 -3.0849
  115MOL   H30337011   2.817   4.675   2.831 -1.8527 -2.3015  2.6300
  115MOL   H30437012   2.942   4.972   3.154  1.0243  1.1556 -1.6353
  115MOL   H30537013   2.807   5.054   3.104 -0.7437 -0.1266  0.3227
  115MOL   C30637014   2.759   4.849   3.189 -0.2498  0.4511  0.3401
  115MOL   C30737015   2.712   4.904   3.324 -0.3949  0.3776  0.3473
  115MOL   C30837016   2.715   4.818   3.433  0.5689 -0.1088  0.1995
  115MOL   C30937017   2.684   4.870   3.562 -0.1723 -0.2422  0.1922
  115MOL   C31037018   2.649   5.002   3.576 -0.2730 -0.3980 -0.3090
  115MOL   F31137019   2.634   5.056   3.697  0.2110 -0.0352 -0.0408
  115MOL   C31237020   2.641   5.089   3.467 -0.0629  0.1572  0.3172
  115MOL   C31337021   2.681   5.040   3.342  0.2930 -0.3525  0.2962
  115MOL   C31437022   2.643   4.792   3.111  0.0958 -0.4093  0.0307
  115MOL   H31537023   2.828   4.770   3.219 -0.0049  0.8347  0.7826
  115MOL   H31637024   2.739   4.714   3.418  0.6429  0.1153 -1.3286
  115MOL   H31737025   2.680   4.801   3.644  0.3880  1.1288  1.3908
  115MOL   H31837026   2.620   5.194   3.470  2.6272  0.8211 -1.7296
  115MOL   H31937027   2.675   5.112   3.262 -0.1798 -1.9494 -1.1378
  115MOL   H32037028   2.563   4.864   3.096  2.0930  1.7532 -0.5123
  115MOL   H32137029   2.666   4.743   3.016 -1.1119  0.9592 -0.9926
  115MOL   H32237030   2.594   4.716   3.172  0.0563 -0.1488  0.3249
  116MOL     C137031   0.708   3.675   7.437 -0.0904 -0.3532  0.7433
  116MOL     C237032   0.659   3.824   7.421 -0.0222 -0.7511  0.0728
  116MOL     C337033   0.613   3.868   7.293  0.1715  0.1410  0.0720
  116MOL     C437034   0.580   4.007   7.284  0.0844  0.2046 -0.4016
  116MOL     C537035   0.585   4.089   7.397  0.1255 -0.1010 -0.1542
  116MOL     F637036   0.559   4.218   7.368 -0.6245  0.4396 -0.3808
  116MOL     C737037   0.627   4.043   7.525 -1.1445 -0.3649 -0.4347
  116MOL     C837038   0.659   3.910   7.533  0.3102  0.2599 -0.2005
  116MOL     C937039   0.591   3.581   7.459  1.0634  0.0498 -0.0584
  116MOL    H1037040   0.779   3.652   7.516  1.3902  0.9873 -0.1608
  116MOL    H1137041   0.620   3.808   7.203 -0.2714  0.2401 -0.0273
  116MOL    H1237042   0.557   4.050   7.188  4.3249  0.7012 -1.2829
  116MOL    H1337043   0.630   4.107   7.612  1.0473 -2.1877  0.8758
  116MOL    H1437044   0.692   3.877   7.631  2.3196  2.0771 -0.2313
  116MOL    H1537045   0.554   3.593   7.560 -1.5332  0.5585 -1.0440
  116MOL    H1637046   0.504   3.612   7.401  0.9684  0.6888  0.4246
  116MOL    H1737047   0.754   3.651   7.341 -0.0450 -3.1746  1.4094
  116MOL    C1837048   0.615   3.432   7.445 -0.4053 -0.3474 -0.3100
  116MOL    C1937049   0.749   3.385   7.500 -0.8176  0.4920  1.0431
  116MOL    C2037050   0.778   3.389   7.636 -0.2872 -0.1970  0.5108
  116MOL    C2137051   0.903   3.357   7.693  0.0874  0.4892  0.4593
  116MOL    C2237052   1.004   3.314   7.599 -0.1961  0.5406  1.0256
  116MOL    F2337053   1.125   3.281   7.642 -0.1689 -0.4063 -0.3227
  116MOL    C2437054   0.978   3.310   7.463 -0.0188  0.1888 -0.3904
  116MOL    C2537055   0.856   3.355   7.412 -0.1249  0.2151  0.3146
  116MOL    C2637056   0.499   3.342   7.503  0.5271  0.9021 -0.5570
  116MOL    H2737057   0.631   3.414   7.338  0.5002 -1.3243 -0.0157
  116MOL    H2837058   0.701   3.420   7.705 -1.3263  0.7815 -1.0419
  116MOL    H2937059   0.923   3.356   7.800 -2.3160 -0.1139  0.9249
  116MOL    H3037060   1.055   3.286   7.392  0.6354 -0.1128  0.4165
  116MOL    H3137061   0.838   3.354   7.305 -2.8273 -0.3169  0.7349
  116MOL    H3237062   0.537   3.289   7.589  2.0605  0.5410 -1.4473
  116MOL    H3337063   0.414   3.404   7.533  1.0181  0.6549  1.3963
  116MOL    C3437064   0.438   3.236   7.403  0.0360  0.3943  0.0077
  116MOL    C3537065   0.346   3.141   7.483 -0.4313  1.1984  0.0356
  116MOL    C3637066   0.209   3.176   7.502  0.5891 -0.0749  0.1132
  116MOL    C3737067   0.126   3.082   7.566 -0.0524 -0.1476 -0.3116
  116MOL    C3837068   0.177   2.956   7.607 -0.7458 -0.4415  0.9859
  116MOL    F3937069   0.097   2.874   7.672 -0.1402  0.1878  0.2543
  116MOL    C4037070   0.310   2.920   7.579 -0.5635  0.3627 -0.1140
  116MOL    C4137071   0.397   3.013   7.522  0.0662 -0.2460 -0.4593
  116MOL    C4237072   0.372   3.304   7.285  0.1088  0.7866  0.1807
  116MOL    H4337073   0.523   3.178   7.367 -1.4353 -0.2147 -2.6613
  116MOL    H4437074   0.167   3.272   7.475  0.3656  0.0322  0.8322
  116MOL    H4537075   0.029   3.119   7.596  0.9924  0.7801  2.0991
  116MOL    H4637076   0.341   2.827   7.624 -0.5554 -0.3084 -1.4927
  116MOL    H4737077   0.499   2.986   7.502  0.5925  1.7109 -0.4796
  116MOL    H4837078   0.305   3.383   7.318 -1.5060 -0.0318 -1.0792
  116MOL    H4937079   0.453   3.348   7.226  1.1908 -0.6082  0.5756
  116MOL    C5037080   0.303   3.208   7.182  0.4206 -0.6394 -0.0060
  116MOL    C5137081   0.226   3.289   7.076  0.4990  0.3111 -0.8626
  116MOL    C5237082   0.088   3.266   7.069  0.2424  0.1196  0.8998
  116MOL    C5337083   0.007   3.352   6.986  0.1477  0.1160  0.2291
  116MOL    C5437084   0.066   3.458   6.910  0.0240 -0.3558  0.5462
  116MOL    F5537085   8.232   3.541   6.833  0.3580 -0.1579 -0.2063
  116MOL    C5637086   0.206   3.472   6.914  1.1305 -0.2993 -0.3901
  116MOL    C5737087   0.281   3.393   6.998  0.6853 -0.6233 -0.4411
  116MOL    C5837088   0.406   3.110   7.112  0.7115  0.0672  0.6240
  116MOL    H5937089   0.228   3.146   7.231  0.8354 -1.6067 -0.5830
  116MOL    H6037090   0.047   3.192   7.137 -0.2185 -1.5026 -1.0997
  116MOL    H6137091   8.134   3.338   6.982 -0.1150  1.8031  0.6002
  116MOL    H6237092   0.250   3.558   6.866 -0.9655  0.7908 -0.4147
  116MOL    H6337093   0.386   3.416   7.009  0.0356  0.8723  3.1644
  116MOL    H6437094   0.384   3.106   7.005 -2.0905 -3.3886  1.2336
  116MOL    H6537095   0.504   3.153   7.127  0.8893 -0.7814  1.9970
  116MOL    C6637096   0.411   2.968   7.164  0.0459  0.5770  0.3358
  116MOL    C6737097   0.278   2.898   7.148  0.4530 -0.6635  0.5847
  116MOL    C6837098   0.212   2.835   7.257 -0.4329 -1.0651  0.0546
  116MOL    C6937099   0.085   2.777   7.243  0.2108  0.1187 -0.4468
  116MOL    C7037100   0.022   2.766   7.117 -0.0693 -0.3512 -0.3705
  116MOL    F7137101   8.136   2.709   7.102  0.1384 -0.4691  0.1570
  116MOL    C7237102   0.092   2.823   7.008  0.2671 -0.3940  0.0283
  116MOL    C7337103   0.213   2.888   7.027  0.0742  0.2366  0.3078
  116MOL    C7437104   0.516   2.888   7.093 -0.5417  0.1753 -1.1021
  116MOL    H7537105   0.426   2.976   7.271  1.5609 -1.8118  0.3414
  116MOL    H7637106   0.265   2.839   7.351  0.4183  0.3908 -0.4627
  116MOL    H7737107   0.020   2.739   7.321  0.1603  0.9032 -0.1097
  116MOL    H7837108   0.054   2.810   6.909  0.6361 -0.4094 -0.1136
  116MOL    H7937109   0.247   2.935   6.936 -2.7331 -0.2794 -1.0450
  116MOL    H8037110   0.493   2.781   7.095 -0.8444  0.2467  1.6823
  116MOL    H8137111   0.512   2.912   6.987 -0.4122  0.8135 -0.9630
  116MOL    C8237112   0.661   2.912   7.143  0.3654 -1.1006 -0.2135
  116MOL    C8337113   0.671   2.902   7.294 -0.6805 -0.3114  0.3406
  116MOL    C8437114   0.645   2.773   7.350 -0.3840  0.1089 -0.2723
  116MOL    C8537115   0.668   2.753   7.489 -0.4952 -0.5165  0.0865
  116MOL    C8637116   0.727   2.858   7.564 -0.1047  1.0870 -0.2062
  116MOL    F8737117   0.760   2.834   7.697 -0.1742  0.0554 -0.5426
  116MOL    C8837118   0.759   2.983   7.509 -0.5164 -0.0844  0.0165
  116MOL    C8937119   0.730   3.002   7.370  0.6929 -0.0460  0.6206
  116MOL    C9037120   0.771   2.822   7.078  0.5245 -0.2139 -0.1520
  116MOL    H9137121   0.691   3.015   7.123 -0.5681 -0.0128  3.5360
  116MOL    H9237122   0.620   2.692   7.283 -1.8019  1.5994 -1.5738
  116MOL    H9337123   0.664   2.654   7.532 -0.0077 -0.2086  0.8579
  116MOL    H9437124   0.800   3.062   7.570  1.3718  0.3190 -1.7332
  116MOL    H9537125   0.759   3.095   7.323  2.2479 -1.7032 -1.8499
  116MOL    H9637126   0.867   2.846   7.125  1.9566 -1.2134 -2.4732
  116MOL    H9737127   0.751   2.719   7.107  0.3314  0.4775  2.2586
  116MOL    C9837128   0.782   2.838   6.931 -0.5120 -0.3610  0.5780
  116MOL    C9937129   0.774   2.981   6.875  0.0527  0.2794 -1.1177
  116MOL   C10037130   0.663   3.016   6.788 -0.8126 -0.0571 -0.4817
  116MOL   C10137131   0.646   3.142   6.737  0.4786  0.0669  0.3046
  116MOL   C10237132   0.737   3.237   6.775  0.1068  0.1300  0.5217
  116MOL   F10337133   0.723   3.360   6.724 -0.2101  0.0423 -0.2752
  116MOL   C10437134   0.846   3.208   6.865 -0.6400  0.1010 -0.1618
  116MOL   C10537135   0.867   3.079   6.914 -0.1294  0.6336 -0.1780
  116MOL   C10637136   0.903   2.765   6.872  0.2826  0.1679 -0.2914
  116MOL   H10737137   0.688   2.799   6.892  0.1294 -1.9966  0.6466
  116MOL   H10837138   0.585   2.945   6.769  0.0155 -0.9856 -0.4704
  116MOL   H10937139   0.575   3.155   6.656  0.7525 -0.7293 -0.0608
  116MOL   H11037140   0.915   3.282   6.901 -0.1483  0.5174 -1.9257
  116MOL   H11137141   0.951   3.063   6.979  1.1101  1.3422 -1.5888
  116MOL   H11237142   0.985   2.836   6.881 -0.9063  1.6370 -0.6843
  116MOL   H11337143   0.943   2.689   6.939 -2.0669 -0.7669  0.0994
  116MOL   C11437144   0.896   2.726   6.721  0.0314  0.0590 -0.1883
  116MOL   C11537145   1.032   2.749   6.654  0.0669 -0.0771  0.4002
  116MOL   C11637146   1.042   2.845   6.550 -0.4921  0.4879  0.0378
  116MOL   C11737147   1.161   2.851   6.475 -0.9271  0.2519 -0.0753
  116MOL   C11837148   1.265   2.757   6.504 -0.2414  0.3763 -0.0709
  116MOL   F11937149   1.373   2.754   6.419 -0.1382  0.0019  0.0598
  116MOL   C12037150   1.260   2.671   6.613 -0.8263  0.2297  0.0409
  116MOL   C12137151   1.142   2.666   6.686 -0.6522  0.1884 -0.4001
  116MOL   C12237152   0.847   2.576   6.701 -0.5099 -0.2771  0.2461
  116MOL   H12337153   0.821   2.791   6.676  1.7905  0.3890 -2.7440
  116MOL   H12437154   0.952   2.903   6.531 -0.8261 -0.4594 -1.2871
  116MOL   H12537155   1.161   2.915   6.389 -0.4358 -0.5054 -0.6454
  116MOL   H12637156   1.344   2.609   6.640 -1.2828 -0.8317 -0.9593
  116MOL   H12737157   1.143   2.600   6.771  1.4514 -0.3078 -0.7812
  116MOL   H12837158   0.891   2.534   6.610 -1.9408 -1.6555  0.1665
  116MOL   H12937159   0.886   2.511   6.780 -0.2977  0.3266  0.6404
  116MOL   C13037160   0.696   2.566   6.688 -0.2856 -0.1940 -0.2536
  116MOL   C13137161   0.644   2.632   6.558  0.4912  0.2574  0.1809
  116MOL   C13237162   0.516   2.693   6.564  0.0896  0.3567 -0.3311
  116MOL   C13337163   0.453   2.740   6.451  0.1455 -0.2334  0.1825
  116MOL   C13437164   0.513   2.722   6.329 -0.5484  0.1114  0.2692
  116MOL   F13537165   0.455   2.774   6.218  0.0878 -0.0795 -0.0144
  116MOL   C13637166   0.642   2.668   6.319 -0.3487 -0.3701  0.0218
  116MOL   C13737167   0.711   2.625   6.432  0.7355  0.3186 -0.3796
  116MOL   C13837168   0.651   2.416   6.676  0.2840 -0.5656 -0.1655
  116MOL   H13937169   0.640   2.612   6.770 -2.0071 -0.3700 -1.2926
  116MOL   H14037170   0.472   2.700   6.662 -1.7260  0.2306 -1.1151
  116MOL   H14137171   0.356   2.788   6.452  0.4573  0.3854  1.0071
  116MOL   H14237172   0.677   2.658   6.218  0.5635  3.3373 -0.1076
  116MOL   H14337173   0.811   2.589   6.410  0.8744  2.3900 -3.5963
  116MOL   H14437174   0.552   2.416   6.631 -0.7532 -0.9531  2.0606
  116MOL   H14537175   0.701   2.362   6.596 -0.2407  0.0175 -0.8900
  116MOL   C14637176   0.641   2.339   6.813  0.0599  1.0197 -0.5998
  116MOL   C14737177   0.519   2.379   6.893 -0.3171 -0.0784 -0.0068
  116MOL   C14837178   0.535   2.462   7.003 -1.1835 -0.6772  0.0917
  116MOL   C14937179   0.427   2.516   7.074  0.5359 -0.1777 -0.2908
  116MOL   C15037180   0.295   2.494   7.031 -0.0836  0.4313 -1.1831
  116MOL   F15137181   0.182   2.537   7.100 -0.2568  0.4118  0.3155
  116MOL   C15237182   0.276   2.409   6.921  0.0198 -0.4537  0.0293
  116MOL   C15337183   0.385   2.351   6.850 -0.1382 -0.0737  0.1990
  116MOL   C15437184   0.635   2.184   6.783 -0.1949  0.3597  0.4744
  116MOL   H15537185   0.729   2.359   6.875  0.2435 -3.0408  0.6525
  116MOL   H15637186   0.632   2.497   7.035 -2.1618  1.8357  0.4333
  116MOL   H15737187   0.444   2.579   7.160 -0.6217  1.5859 -1.3095
  116MOL   H15837188   0.182   2.384   6.876 -0.5387  0.2804  0.7598
  116MOL   H15937189   0.377   2.287   6.763 -0.7849 -0.8487  0.8148
  116MOL   H16037190   0.608   2.144   6.881 -0.7498  2.9716  1.4030
  116MOL   H16137191   0.553   2.168   6.713 -0.1449 -2.6615  1.0023
  116MOL   C16237192   0.773   2.125   6.756  0.0631 -0.5154  0.2296
  116MOL   C16337193   0.870   2.141   6.876  0.9552  0.6948  1.0301
  116MOL   C16437194   0.989   2.213   6.854 -0.3194  0.7350  0.3473
  116MOL   C16537195   1.063   2.263   6.963  0.2130  0.8478  0.1676
  116MOL   C16637196   1.030   2.214   7.089  0.4567 -0.0905  0.5970
  116MOL   F16737197   1.101   2.256   7.197 -0.3568 -0.7288  0.6254
  116MOL   C16837198   0.928   2.120   7.112 -0.7145  0.1814 -0.2694
  116MOL   C16937199   0.843   2.084   7.005  0.0871  0.2915 -0.1864
  116MOL   C17037200   0.767   1.974   6.720  0.1270 -0.6155  0.4677
  116MOL   H17137201   0.825   2.188   6.684  0.9228 -0.9258  0.4818
  116MOL   H17237202   1.013   2.263   6.760 -1.5957  2.2160  0.7779
  116MOL   H17337203   1.147   2.331   6.957  2.7480 -2.1452  0.0700
  116MOL   H17437204   0.912   2.095   7.216  3.2794  1.1062  0.6391
  116MOL   H17537205   0.752   2.026   7.014  0.9609 -1.3047 -1.3985
  116MOL   H17637206   0.863   1.923   6.728  0.9957  0.6186 -1.5249
  116MOL   H17737207   0.700   1.927   6.791  0.0853 -2.6337 -0.8662
  116MOL   C17837208   0.706   1.961   6.568 -0.2751 -0.0744  0.5369
  116MOL   C17937209   0.813   1.989   6.458  0.2105  0.7091 -0.3636
  116MOL   C18037210   0.935   1.917   6.451  0.3624 -0.8032 -0.0129
  116MOL   C18137211   1.032   1.943   6.356 -0.5785 -0.1372  0.1699
  116MOL   C18237212   1.013   2.041   6.262  0.7138 -0.5107  0.0051
  116MOL   F18337213   1.100   2.059   6.166  0.0637  0.1980 -0.2032
  116MOL   C18437214   0.895   2.120   6.266  0.4153  1.0277 -0.0953
  116MOL   C18537215   0.787   2.087   6.363 -0.5830 -0.2775 -0.0390
  116MOL   C18637216   0.655   1.813   6.545 -0.5048  0.0247  0.0837
  116MOL   H18737217   0.625   2.033   6.555 -0.7834 -0.4941  1.3423
  116MOL   H18837218   0.953   1.832   6.515  0.2031 -0.4949  0.4438
  116MOL   H18937219   1.125   1.889   6.350  0.0979  1.2289 -2.5124
  116MOL   H19037220   0.884   2.207   6.203 -1.8738  1.3461  0.6867
  116MOL   H19137221   0.703   2.155   6.372 -0.9528 -0.4026 -2.1915
  116MOL   H19237222   0.639   1.821   6.437  0.2266  1.1937  0.0484
  116MOL   H19337223   0.736   1.741   6.553 -1.0831 -0.7857 -1.0665
  116MOL   C19437224   0.533   1.757   6.624  0.4864  0.6007  0.6255
  116MOL   C19537225   0.419   1.860   6.641 -0.5290 -0.1099  0.0506
  116MOL   C19637226   0.356   1.929   6.538 -0.1346  0.1765  0.5553
  116MOL   C19737227   0.265   2.032   6.568  0.5277  0.4273 -0.0728
  116MOL   C19837228   0.236   2.070   6.695 -1.3629  0.2280 -0.4829
  116MOL   F19937229   0.155   2.168   6.723 -0.4630  0.3952  0.1597
  116MOL   C20037230   0.302   2.012   6.796 -0.1764  0.3754 -0.4069
  116MOL   C20137231   0.389   1.899   6.775  0.0595 -0.2387  0.1225
  116MOL   C20237232   0.477   1.640   6.545  0.5569  0.1236 -0.6965
  116MOL   H20337233   0.558   1.717   6.723 -2.6061 -0.9777  0.8358
  116MOL   H20437234   0.383   1.912   6.435 -0.0395 -1.0841  0.7842
  116MOL   H20537235   0.202   2.062   6.485 -0.1873 -0.9236 -0.0145
  116MOL   H20637236   0.290   2.054   6.895  0.5251  1.0484 -0.6055
  116MOL   H20737237   0.434   1.858   6.865  0.3751  1.4044  0.7394
  116MOL   H20837238   0.416   1.682   6.466  0.7850  3.2483  0.7046
  116MOL   H20937239   0.558   1.580   6.504  1.1378  0.6043 -0.2684
  116MOL   C21037240   0.373   1.555   6.617  0.8904 -0.4408 -0.0814
  116MOL   C21137241   0.435   1.476   6.731  0.9582 -0.3419  0.1564
  116MOL   C21237242   0.414   1.510   6.861 -0.5844 -0.7790  0.4980
  116MOL   C21337243   0.477   1.451   6.970  0.9539 -0.2287  0.3053
  116MOL   C21437244   0.564   1.341   6.948  0.4811  0.1552 -0.4101
  116MOL   F21537245   0.635   1.295   7.052 -0.3008  0.0909  0.3274
  116MOL   C21637246   0.577   1.288   6.814  0.1250  0.3118 -1.0551
  116MOL   C21737247   0.516   1.362   6.705 -0.6206  0.1201  0.1039
  116MOL   C21837248   0.227   1.599   6.620  0.9286  0.5550  0.0794
  116MOL   H21937249   0.355   1.480   6.541 -0.8267 -0.8866  0.7360
  116MOL   H22037250   0.353   1.595   6.883  1.1684  0.3933  0.9305
  116MOL   H22137251   0.462   1.498   7.066 -1.1920  1.1087 -0.6547
  116MOL   H22237252   0.634   1.198   6.797 -1.5701 -1.2745  1.3608
  116MOL   H22337253   0.535   1.350   6.600 -1.1269  1.2519 -0.1327
  116MOL   H22437254   0.228   1.685   6.687 -1.9715  0.4157  0.3348
  116MOL   H22537255   0.196   1.636   6.523 -0.7307  1.5873  0.9864
  116MOL   C22637256   0.132   1.492   6.675  0.4076 -0.5005 -0.2086
  116MOL   C22737257   0.027   1.556   6.770  0.1070 -0.0113 -0.2962
  116MOL   C22837258   8.184   1.663   6.727  0.5352  0.6647  0.0014
  116MOL   C22937259   8.089   1.721   6.818  0.1345  0.4232 -0.2494
  116MOL   C23037260   8.074   1.660   6.944 -0.4123  0.6200  1.0808
  116MOL   F23137261   7.976   1.705   7.027  0.2049 -0.1291 -0.3301
  116MOL   C23237262   8.157   1.551   6.989  1.0952 -0.7192 -0.0762
  116MOL   C23337263   0.019   1.507   6.903 -0.1611  0.0969 -1.5502
  116MOL   C23437264   0.052   1.415   6.565  0.0790 -0.4779  0.1626
  116MOL   H23537265   0.195   1.429   6.738  0.6258  0.0545  0.1286
  116MOL   H23637266   8.195   1.707   6.629  0.4767  0.2777 -0.1793
  116MOL   H23737267   8.021   1.803   6.801  0.5635  0.6500 -0.9295
  116MOL   H23837268   8.147   1.506   7.086  2.0430  0.8448  0.7796
  116MOL   H23937269   0.090   1.429   6.927  0.1756  0.5077 -1.2091
  116MOL   H24037270   8.185   1.402   6.603  0.0839 -2.1290 -0.3863
  116MOL   H24137271   0.064   1.472   6.473  1.6854  1.3766  1.4607
  116MOL   C24237272   0.119   1.285   6.527 -0.2097  0.8155  0.7105
  116MOL   C24337273   0.123   1.180   6.634 -0.6848 -0.3007 -0.0123
  116MOL   C24437274   0.012   1.149   6.718  0.2179  0.1791  0.6403
  116MOL   C24537275   0.016   1.047   6.811  0.4098  0.0451  0.2246
  116MOL   C24637276   0.133   0.973   6.822  0.2602  0.3777  0.4953
  116MOL   F24737277   0.128   0.874   6.913  0.1688  0.0664  0.0511
  116MOL   C24837278   0.245   1.000   6.744  0.8335 -0.0048  0.1447
  116MOL   C24937279   0.238   1.104   6.646 -0.4634  0.0729 -0.5738
  116MOL   C25037280   0.058   1.219   6.396 -0.3391  0.0571  0.3859
  116MOL   H25137281   0.222   1.304   6.499 -0.0691 -1.5679 -0.4854
  116MOL   H25237282   8.153   1.200   6.700  1.0740  1.8466  0.7520
  116MOL   H25337283   8.164   1.011   6.865  0.6472 -1.6339 -0.4947
  116MOL   H25437284   0.327   0.930   6.753  0.7538 -0.1254 -0.0722
  116MOL   H25537285   0.324   1.120   6.583  1.0885  0.1685  1.5084
  116MOL   H25637286   0.078   1.113   6.409  0.1987  0.3019  1.6465
  116MOL   H25737287   8.184   1.213   6.389 -0.2711 -0.9036  0.1858
  116MOL   C25837288   0.120   1.258   6.257 -0.2515 -0.3329 -0.2377
  116MOL   C25937289   0.272   1.263   6.267  0.0049  0.0102 -0.7933
  116MOL   C26037290   0.337   1.389   6.274  0.5414 -0.6010 -0.1927
  116MOL   C26137291   0.476   1.403   6.308 -0.1134  0.3305  0.3846
  116MOL   C26237292   0.550   1.291   6.319  0.3642  0.1813 -0.1602
  116MOL   F26337293   0.683   1.303   6.336 -0.2373  0.0716 -0.6684
  116MOL   C26437294   0.490   1.161   6.312  0.7960 -0.1382 -0.1688
  116MOL   C26537295   0.350   1.151   6.291 -0.2507 -0.5302 -0.0150
  116MOL   C26637296   0.068   1.179   6.132 -0.5329  0.5153 -0.1158
  116MOL   H26737297   0.082   1.359   6.249  0.2625  0.0674  2.0202
  116MOL   H26837298   0.282   1.480   6.257 -0.3833 -0.7726  1.7623
  116MOL   H26937299   0.519   1.502   6.305  1.7252 -0.4569 -0.0810
  116MOL   H27037300   0.544   1.068   6.322  0.7045 -0.2409 -0.6443
  116MOL   H27137301   0.316   1.050   6.271 -2.2555 -0.3099  2.0386
  116MOL   H27237302   0.088   1.072   6.134 -0.9404  0.3403 -3.0124
  116MOL   H27337303   8.194   1.186   6.124 -0.8727 -1.9877  1.8455
  116MOL   C27437304   0.119   1.232   5.995 -0.1063 -0.9227  0.2642
  116MOL   C27537305   0.073   1.140   5.874  0.3750 -0.0046 -0.0753
  116MOL   C27637306   8.175   1.091   5.856  0.0063 -0.3170 -0.6926
  116MOL   C27737307   8.135   1.019   5.742  0.1244  0.6148  0.0316
  116MOL   C27837308   8.234   0.994   5.646  0.0611 -0.2519 -0.5167
  116MOL   F27937309   8.200   0.919   5.534  0.5142 -0.0537  0.2399
  116MOL   C28037310   0.138   1.024   5.661 -0.6609 -0.2315 -0.5634
  116MOL   C28137311   0.172   1.102   5.778  0.2811 -0.3708  0.3910
  116MOL   C28237312   0.084   1.378   5.973 -0.0273 -0.0402 -0.4744
  116MOL   H28337313   0.228   1.228   5.995 -0.1114 -1.0705  0.0788
  116MOL   H28437314   8.095   1.118   5.923 -0.6465  2.2929 -2.4185
  116MOL   H28537315   8.037   0.976   5.728  0.2016 -0.2430  1.9979
  116MOL   H28637316   0.218   0.992   5.597  0.9985 -0.9086  1.7600
  116MOL   H28737317   0.269   1.139   5.808 -0.1264  3.4166 -2.4840
  116MOL   H28837318   8.226   1.410   6.021 -1.2385 -5.5126  1.1988
  116MOL   H28937319   0.154   1.432   6.037  0.8796 -0.5609 -1.0175
  116MOL   C29037320   0.083   1.435   5.825 -0.6342  0.3328 -0.3891
  116MOL   C29137321   8.183   1.421   5.749 -0.4883 -1.2005 -0.5509
  116MOL   C29237322   8.064   1.397   5.815 -0.3368 -0.4170  0.9283
  116MOL   C29337323   7.942   1.401   5.740  1.0044 -0.5897  0.4972
  116MOL   C29437324   7.942   1.404   5.602 -0.4508  0.0705  0.6779
  116MOL   F29537325   7.827   1.417   5.537  0.2021  0.4710  0.3508
  116MOL   C29637326   8.068   1.406   5.539 -0.7256  0.0441 -0.2001
  116MOL   C29737327   8.186   1.420   5.610  0.3144  0.3167 -0.6769
  116MOL   C29837328   0.142   1.573   5.803 -0.1711  0.7777  0.2878
  116MOL   H29937329   0.159   1.372   5.779 -1.7406 -1.6653  0.4166
  116MOL   H30037330   8.061   1.398   5.923 -1.0659  0.5758  0.9152
  116MOL   H30137331   7.847   1.398   5.791  1.4210 -0.3659  1.2964
  116MOL   H30237332   8.067   1.407   5.431 -1.6419 -0.0585 -0.1955
  116MOL   H30337333   0.044   1.432   5.555 -0.0510  0.8747 -1.1908
  116MOL   H30437334   0.243   1.560   5.841 -0.4556 -0.7964  0.5496
  116MOL   H30537335   0.155   1.579   5.695 -0.9222  0.7870  0.1926
  116MOL   C30637336   0.075   1.702   5.856 -0.3053  0.3593 -0.4249
  116MOL   C30737337   0.079   1.720   6.012 -0.0046 -0.1153 -0.0791
  116MOL   C30837338   0.196   1.751   6.074  0.4575  0.4234 -0.0222
  116MOL   C30937339   0.192   1.801   6.206  0.6593  0.0128  0.0747
  116MOL   C31037340   0.067   1.810   6.279  0.5341 -0.4842  0.3010
  116MOL   F31137341   0.060   1.864   6.404  0.2905 -0.0589  0.3325
  116MOL   C31237342   8.184   1.761   6.220 -0.2347  0.1932  0.3720
  116MOL   C31337343   8.190   1.724   6.084 -1.6478  0.1966  0.7552
  116MOL   C31437344   0.132   1.829   5.782  0.4591 -0.2628  0.2191
  116MOL   H31537345   8.204   1.690   5.830 -0.1615 -0.9551 -0.4602
  116MOL   H31637346   0.289   1.742   6.021  0.8862  3.5956  0.0977
  116MOL   H31737347   0.286   1.828   6.251  0.0408  0.6679  1.0097
  116MOL   H31837348   8.091   1.771   6.274 -1.0373 -2.5056 -0.4554
  116MOL   H31937349   8.103   1.715   6.020 -0.4546  3.4329 -1.4027
  116MOL   H32037350   0.238   1.820   5.805  0.2914  1.0589  1.5677
  116MOL   H32137351   0.121   1.839   5.674 -1.6367  1.7318  0.5828
  116MOL   H32237352   0.093   1.914   5.838  0.5816 -0.1823  0.1837
  117MOL     C137353   6.390   5.273   5.289 -0.1562  0.5746  0.5980
  117MOL     C237354   6.512   5.347   5.344  0.1075 -0.0166 -0.0672
  117MOL     C337355   6.640   5.297   5.326 -0.2183 -0.8671 -0.4828
  117MOL     C437356   6.751   5.365   5.378 -0.2154  1.1571  0.5003
  117MOL     C537357   6.739   5.485   5.455 -0.0354 -0.4873 -0.3628
  117MOL     F637358   6.849   5.545   5.504  0.2139 -0.0033 -0.0653
  117MOL     C737359   6.607   5.534   5.468  0.3511 -0.1045  0.0570
  117MOL     C837360   6.493   5.466   5.416  0.1482 -0.6634  0.1064
  117MOL     C937361   6.350   5.305   5.143  0.1555 -0.0851  0.0194
  117MOL    H1037362   6.303   5.298   5.349 -1.2864 -1.5544 -0.1067
  117MOL    H1137363   6.651   5.206   5.269  0.1025  0.1363 -2.0643
  117MOL    H1237364   6.848   5.318   5.387 -1.1238 -0.6764  1.0934
  117MOL    H1337365   6.604   5.625   5.525 -0.2953 -0.0414 -0.0781
  117MOL    H1437366   6.397   5.512   5.436 -0.3865 -1.8959  0.4599
  117MOL    H1537367   6.251   5.268   5.118 -0.1871  0.7619  0.1221
  117MOL    H1637368   6.338   5.414   5.146  3.0150  0.3483 -2.2516
  117MOL    H1737369   6.411   5.167   5.301 -1.3505  0.1514 -0.8599
  117MOL    C1837370   6.436   5.274   5.019 -0.3149 -0.6722 -0.3523
  117MOL    C1937371   6.443   5.129   4.988 -0.0638 -0.4056  0.4598
  117MOL    C2037372   6.332   5.054   4.951 -0.3661  0.5210 -1.1816
  117MOL    C2137373   6.360   4.915   4.922  0.3761 -0.0467 -0.3383
  117MOL    C2237374   6.484   4.852   4.932  0.5354  0.7012 -0.2830
  117MOL    F2337375   6.501   4.725   4.896  0.1939  0.5225  0.1048
  117MOL    C2437376   6.593   4.933   4.975  0.0892  0.4886  0.2357
  117MOL    C2537377   6.570   5.072   4.994 -0.2430 -0.2170 -0.4488
  117MOL    C2637378   6.397   5.347   4.889 -0.5327  0.0293  0.3014
  117MOL    H2737379   6.535   5.316   5.040  0.0344 -2.1570  1.1302
  117MOL    H2837380   6.231   5.091   4.967 -0.5854 -1.5184  2.6731
  117MOL    H2937381   6.279   4.851   4.891  0.0510 -0.0035  0.4195
  117MOL    H3037382   6.691   4.890   4.965 -0.0638  0.6484 -2.4952
  117MOL    H3137383   6.658   5.120   5.033  1.0123 -0.6344 -2.6675
  117MOL    H3237384   6.456   5.293   4.815 -0.0149  0.4904  0.3799
  117MOL    H3337385   6.294   5.329   4.857 -0.0285  0.1558 -1.4460
  117MOL    C3437386   6.438   5.495   4.876  0.1456 -0.5210 -0.0790
  117MOL    C3537387   6.578   5.535   4.920  0.0087  0.1215  0.2874
  117MOL    C3637388   6.593   5.641   5.016  0.3940 -0.5058 -0.1549
  117MOL    C3737389   6.728   5.676   5.055 -0.3120 -0.0353  0.0939
  117MOL    C3837390   6.835   5.605   5.005 -0.4772 -0.3791  0.0797
  117MOL    F3937391   6.958   5.629   5.051 -0.4876 -0.0390 -0.3915
  117MOL    C4037392   6.817   5.492   4.918 -0.3800 -0.3035  0.2059
  117MOL    C4137393   6.688   5.469   4.870 -1.1295  0.0811 -0.0624
  117MOL    C4237394   6.393   5.563   4.742  0.1854 -0.1857  0.3034
  117MOL    H4337395   6.371   5.539   4.951 -0.9875  0.2893 -1.5513
  117MOL    H4437396   6.506   5.690   5.058  1.8069  1.3678  0.6570
  117MOL    H4537397   6.745   5.759   5.122 -1.4657  0.4280 -0.1760
  117MOL    H4637398   6.906   5.444   4.879 -0.6214 -0.9540  0.4570
  117MOL    H4737399   6.684   5.400   4.788  1.5605 -1.4754  1.0410
  117MOL    H4837400   6.284   5.559   4.741  0.1295  0.3247  2.4569
  117MOL    H4937401   6.417   5.667   4.763  1.2945 -0.6880  1.5944
  117MOL    C5037402   6.462   5.518   4.608  0.0590 -1.1859  0.1439
  117MOL    C5137403   6.416   5.380   4.564  0.1021 -0.3916 -0.1214
  117MOL    C5237404   6.516   5.280   4.551  0.1239 -0.1866  0.0640
  117MOL    C5337405   6.474   5.153   4.508  0.0622 -0.2394 -0.1500
  117MOL    C5437406   6.341   5.125   4.475 -0.6904  0.3142 -0.4632
  117MOL    F5537407   6.304   5.001   4.439  0.0626 -0.3806 -0.2704
  117MOL    C5637408   6.247   5.227   4.494  0.2733  0.6576  0.8130
  117MOL    C5737409   6.284   5.355   4.533 -0.4784  0.4534 -0.3707
  117MOL    C5837410   6.453   5.623   4.492 -0.1725  0.2255  0.4657
  117MOL    H5937411   6.566   5.518   4.639 -0.1364 -0.0110  0.8443
  117MOL    H6037412   6.620   5.302   4.572 -0.0532  2.0234 -1.1759
  117MOL    H6137413   6.548   5.076   4.490 -0.6413 -1.0200  0.2652
  117MOL    H6237414   6.146   5.206   4.463  1.7141 -2.7664 -1.9457
  117MOL    H6337415   6.207   5.429   4.526  1.6098  2.5374 -2.0491
  117MOL    H6437416   6.496   5.574   4.405 -0.5060 -0.3160  0.6076
  117MOL    H6537417   6.348   5.630   4.466  0.4249  0.1149 -2.0831
  117MOL    C6637418   6.524   5.758   4.513  0.5860 -0.1001 -0.0478
  117MOL    C6737419   6.666   5.747   4.564  0.8965 -0.7013 -0.1811
  117MOL    C6837420   6.698   5.796   4.694 -0.7207  1.1350 -0.6833
  117MOL    C6937421   6.829   5.793   4.747 -0.0512 -0.4063 -0.0361
  117MOL    C7037422   6.931   5.745   4.661 -0.3167  0.5675  0.0033
  117MOL    F7137423   7.059   5.741   4.693 -0.1595 -0.0631 -0.0560
  117MOL    C7237424   6.898   5.694   4.532  0.4264 -0.1690  0.8044
  117MOL    C7337425   6.765   5.693   4.484 -0.1993  0.5719  0.0290
  117MOL    C7437426   6.509   5.842   4.393 -0.2742 -0.3715 -0.2836
  117MOL    H7537427   6.470   5.806   4.594  1.8004 -0.6917  1.1211
  117MOL    H7637428   6.609   5.819   4.749 -1.2509  1.3280 -1.6111
  117MOL    H7737429   6.851   5.823   4.848 -0.3454  1.5159 -0.5198
  117MOL    H7837430   6.977   5.663   4.465  1.8541  2.8938  0.9759
  117MOL    H7937431   6.744   5.669   4.381  2.1147  0.2238 -0.3802
  117MOL    H8037432   6.594   5.910   4.387 -1.8988  1.6880 -0.9989
  117MOL    H8137433   6.532   5.784   4.303  1.4796  0.0156 -0.0864
  117MOL    C8237434   6.391   5.935   4.373 -0.0768  0.1778 -0.3844
  117MOL    C8337435   6.443   6.059   4.297  0.6479 -0.9076 -0.6720
  117MOL    C8437436   6.424   6.192   4.346  0.2959  0.1691  0.6188
  117MOL    C8537437   6.466   6.297   4.263 -0.2192 -0.9573  0.0517
  117MOL    C8637438   6.533   6.274   4.143 -0.0786  0.0345  0.1859
  117MOL    F8737439   6.589   6.375   4.073  0.1006  0.4748  0.0420
  117MOL    C8837440   6.530   6.147   4.089  0.4825  0.3642 -0.6907
  117MOL    C8937441   6.488   6.037   4.166 -0.2980  0.5578 -0.7621
  117MOL    C9037442   6.257   5.872   4.314 -0.2313 -0.3753 -0.1055
  117MOL    H9137443   6.368   5.966   4.475 -0.2266 -0.8946 -0.0857
  117MOL    H9237444   6.384   6.203   4.446  1.7296 -1.0334  1.3442
  117MOL    H9337445   6.457   6.400   4.292  2.5452 -0.6658  0.0253
  117MOL    H9437446   6.577   6.142   3.992  0.9022  2.0067 -0.5875
  117MOL    H9537447   6.501   5.937   4.126  0.2695 -0.8127  2.6823
  117MOL    H9637448   6.249   5.908   4.211  1.1413  0.6224  0.1278
  117MOL    H9737449   6.269   5.764   4.305  0.3957 -0.4393  1.4802
  117MOL    C9837450   6.122   5.896   4.389  0.6399 -0.2260 -0.1063
  117MOL    C9937451   6.001   5.834   4.322  0.3677  0.2492 -1.1427
  117MOL   C10037452   5.975   5.696   4.319  0.1084  0.2152 -0.3554
  117MOL   C10137453   5.854   5.636   4.290  0.6670 -0.3784  0.3627
  117MOL   C10237454   5.744   5.722   4.268 -0.9961 -0.4013 -0.3820
  117MOL   F10337455   5.627   5.668   4.253  0.1576 -0.0213  0.7619
  117MOL   C10437456   5.768   5.860   4.261  0.1742 -0.0134 -0.3560
  117MOL   C10537457   5.899   5.917   4.273 -0.1305 -0.6635  0.5328
  117MOL   C10637458   6.129   5.879   4.542 -0.5997 -0.1739 -0.2948
  117MOL   H10737459   6.106   6.002   4.370  0.3500 -0.5965 -2.1074
  117MOL   H10837460   6.056   5.628   4.340  1.5601  1.6629 -1.1698
  117MOL   H10937461   5.848   5.529   4.284  1.5430 -0.5525  2.1366
  117MOL   H11037462   5.685   5.929   4.259 -1.2651 -1.6962  0.7543
  117MOL   H11137463   5.906   6.024   4.281  0.1445 -0.7629  1.6432
  117MOL   H11237464   6.181   5.785   4.557  0.8289  0.8025  1.1119
  117MOL   H11337465   6.182   5.970   4.572 -0.5248 -0.9594  2.0330
  117MOL   C11437466   5.989   5.883   4.614  0.0476  0.3597 -0.5265
  117MOL   C11537467   6.014   5.803   4.750 -0.7696 -0.2209  0.1934
  117MOL   C11637468   5.974   5.666   4.755 -1.2679 -0.2909 -0.2810
  117MOL   C11737469   6.013   5.584   4.861  0.2670  0.1432  0.1575
  117MOL   C11837470   6.093   5.637   4.962 -0.1983 -0.7547 -0.1432
  117MOL   F11937471   6.125   5.566   5.070 -0.2805  0.6322 -0.1552
  117MOL   C12037472   6.123   5.777   4.961  0.5304  0.1227 -0.1944
  117MOL   C12137473   6.086   5.856   4.853  0.5275 -0.0290 -0.0494
  117MOL   C12237474   5.932   6.028   4.628  0.8901  0.4978 -0.7333
  117MOL   H12337475   5.913   5.825   4.562  1.2452 -0.8715 -0.9516
  117MOL   H12437476   5.912   5.622   4.679 -1.7465 -4.3447  2.2481
  117MOL   H12537477   5.977   5.482   4.867  1.1607 -0.1614  0.5259
  117MOL   H12637478   6.176   5.825   5.041 -0.0367  1.2298 -0.4720
  117MOL   H12737479   6.116   5.959   4.863 -1.1205  0.6836 -2.2869
  117MOL   H12837480   5.991   6.083   4.701 -1.2650  1.0123  0.6528
  117MOL   H12937481   5.960   6.078   4.535 -1.3179  0.4677 -1.4359
  117MOL   C13037482   5.782   6.045   4.652 -0.3800  0.1211 -0.8805
  117MOL   C13137483   5.743   6.017   4.798 -0.5241 -0.4471  0.1992
  117MOL   C13237484   5.796   6.103   4.894  0.5019  0.2718 -0.1037
  117MOL   C13337485   5.755   6.088   5.031  0.1675 -0.2236  0.2781
  117MOL   C13437486   5.666   5.978   5.067 -0.6708 -0.2157 -0.2851
  117MOL   F13537487   5.629   5.947   5.194 -0.5350  0.8964 -0.2421
  117MOL   C13637488   5.624   5.890   4.965  0.0181 -0.1444 -0.2013
  117MOL   C13737489   5.654   5.912   4.829  0.2248  0.3275 -0.5640
  117MOL   C13837490   5.731   6.187   4.626 -0.1312 -0.0802  0.6782
  117MOL   H13937491   5.726   5.971   4.596  0.0389 -2.1385  1.6061
  117MOL   H14037492   5.878   6.169   4.870  0.9889 -0.7051 -1.1513
  117MOL   H14137493   5.792   6.151   5.110  1.6441 -0.5075 -0.1662
  117MOL   H14237494   5.554   5.810   4.988 -0.2971 -0.0481 -0.7960
  117MOL   H14337495   5.619   5.847   4.751  2.7507 -0.1537 -1.3355
  117MOL   H14437496   5.763   6.253   4.707 -1.1629 -0.6674  1.5972
  117MOL   H14537497   5.786   6.218   4.538  3.3316 -3.3087  1.5619
  117MOL   C14637498   5.580   6.222   4.592  0.2996 -0.3678  0.4219
  117MOL   C14737499   5.490   6.224   4.715  0.7312  0.2180  0.0769
  117MOL   C14837500   5.376   6.147   4.722  0.0918 -0.0063 -0.2814
  117MOL   C14937501   5.296   6.147   4.837  0.5595 -0.4917  0.0213
  117MOL   C15037502   5.331   6.230   4.946  0.0091 -0.7419  0.6344
  117MOL   F15137503   5.254   6.245   5.054 -0.2221  0.1030 -0.0736
  117MOL   C15237504   5.445   6.306   4.938 -0.6179  0.3422  0.6107
  117MOL   C15337505   5.527   6.305   4.825 -0.5258  0.3213  0.2113
  117MOL   C15437506   5.569   6.360   4.515 -0.5879  0.2734 -0.9812
  117MOL   H15537507   5.538   6.150   4.521 -1.6678  0.4484  0.7358
  117MOL   H15637508   5.354   6.092   4.632  0.0427  0.5555 -0.6209
  117MOL   H15737509   5.209   6.084   4.845 -2.5929  4.0717  4.6817
  117MOL   H15837510   5.476   6.354   5.029  0.4199 -0.3737  0.6383
  117MOL   H15937511   5.625   6.351   4.830 -1.3591  2.0177  1.4551
  117MOL   H16037512   5.482   6.419   4.545 -0.4970 -1.2111  2.4952
  117MOL   H16137513   5.653   6.421   4.550  0.8119 -1.5569 -1.0828
  117MOL   C16237514   5.593   6.350   4.370  0.1951 -0.5280  0.2420
  117MOL   C16337515   5.475   6.284   4.290  0.0662  0.3126  0.1652
  117MOL   C16437516   5.340   6.287   4.343  0.6519 -0.0542 -0.1846
  117MOL   C16537517   5.240   6.224   4.264 -0.2595  0.3826  0.2539
  117MOL   C16637518   5.274   6.163   4.143  0.3313  0.5688  0.4498
  117MOL   F16737519   5.180   6.099   4.073  0.0210  0.1742 -0.1868
  117MOL   C16837520   5.401   6.162   4.087 -0.1460 -0.0056 -0.8276
  117MOL   C16937521   5.504   6.221   4.166 -0.5325  0.0610 -0.2741
  117MOL   C17037522   5.630   6.486   4.308 -0.1034  0.0998  0.1205
  117MOL   H17137523   5.679   6.284   4.354  0.5219  0.2165 -1.1648
  117MOL   H17237524   5.307   6.332   4.435 -0.7602  0.2087 -0.8039
  117MOL   H17337525   5.142   6.223   4.310 -0.9154  0.9979 -1.1005
  117MOL   H17437526   5.415   6.119   3.989  0.8371  0.9561 -1.1199
  117MOL   H17537527   5.607   6.214   4.132 -0.0667  1.1757  0.8535
  117MOL   H17637528   5.650   6.472   4.202  2.6412  1.2094  0.4634
  117MOL   H17737529   5.547   6.557   4.314 -0.0315  0.1829  0.1180
  117MOL   C17837530   5.761   6.554   4.356 -0.0321 -0.6721  0.8263
  117MOL   C17937531   5.880   6.476   4.413  0.6481  0.0528 -0.1170
  117MOL   C18037532   5.908   6.498   4.552  0.2657  0.1211  0.3934
  117MOL   C18137533   6.008   6.420   4.618 -0.1428 -0.1511  0.4249
  117MOL   C18237534   6.091   6.338   4.537 -0.7631 -0.1418 -0.3179
  117MOL   F18337535   6.195   6.271   4.592 -0.3913 -0.3454  0.1510
  117MOL   C18437536   6.068   6.327   4.400 -0.7927  0.4532  0.2260
  117MOL   C18537537   5.961   6.388   4.333  0.0624 -0.1070 -0.7094
  117MOL   C18637538   5.806   6.654   4.240  0.8871  0.0841  0.2561
  117MOL   H18737539   5.736   6.609   4.447  3.2730 -1.4708  2.3250
  117MOL   H18837540   5.844   6.560   4.613 -1.4057 -0.5400 -0.6344
  117MOL   H18937541   6.029   6.418   4.724  0.1078 -1.5748  0.3605
  117MOL   H19037542   6.124   6.260   4.335 -3.2337 -3.8694  2.3942
  117MOL   H19137543   5.944   6.374   4.227  0.5189  0.6427 -0.8905
  117MOL   H19237544   5.913   6.648   4.218  1.3512  0.6778  2.2529
  117MOL   H19337545   5.761   6.624   4.145 -0.7223 -0.4034  1.1564
  117MOL   C19437546   5.761   6.802   4.264 -0.9687  0.4703 -0.0556
  117MOL   C19537547   5.829   6.851   4.394 -0.3076 -0.4113 -0.8274
  117MOL   C19637548   5.967   6.833   4.412 -0.3570  0.4668  0.6600
  117MOL   C19737549   6.028   6.881   4.529  0.2868 -0.3221 -0.6804
  117MOL   C19837550   5.947   6.939   4.637 -0.2093 -0.6330  0.5609
  117MOL   F19937551   6.003   6.986   4.749 -0.3018  0.0008 -0.1179
  117MOL   C20037552   5.810   6.953   4.622 -0.0569  0.0943  0.5420
  117MOL   C20137553   5.755   6.898   4.500  0.2996 -0.8414 -0.1946
  117MOL   C20237554   5.802   6.898   4.150 -0.0234  0.6155  0.1523
  117MOL   H20337555   5.653   6.790   4.274 -0.6516 -1.4284  1.4066
  117MOL   H20437556   6.034   6.796   4.336 -0.5805  1.4972 -0.0554
  117MOL   H20537557   6.136   6.888   4.528  0.3148 -0.0126  1.3817
  117MOL   H20637558   5.747   7.004   4.694  0.9188  0.8766  0.8501
  117MOL   H20737559   5.647   6.898   4.493  0.0733  3.3262  1.6123
  117MOL   H20837560   5.831   6.998   4.183 -0.9082  0.8227  0.3009
  117MOL   H20937561   5.902   6.868   4.115  0.8228  0.7104  2.4256
  117MOL   C21037562   5.708   6.908   4.030  0.2076 -0.7391  0.2027
  117MOL   C21137563   5.584   6.998   4.067  0.0767 -0.3419 -0.4293
  117MOL   C21237564   5.457   6.930   4.061 -0.5089  0.2440  0.7314
  117MOL   C21337565   5.342   7.004   4.090 -0.0607 -0.4324 -0.1237
  117MOL   C21437566   5.353   7.143   4.105 -0.0410 -0.4572  0.3683
  117MOL   F21537567   5.240   7.226   4.115 -0.0910 -0.2368 -0.8369
  117MOL   C21637568   5.477   7.204   4.116 -0.2922 -0.1556  0.0563
  117MOL   C21737569   5.595   7.137   4.088  0.2350  0.3739  0.1097
  117MOL   C21837570   5.777   6.964   3.906 -0.3266  0.3171  0.0594
  117MOL   H21937571   5.671   6.806   4.014 -0.6724 -0.7180  1.9544
  117MOL   H22037572   5.459   6.824   4.038 -1.8363  0.2927  0.3519
  117MOL   H22137573   5.244   6.959   4.081 -1.1168  1.8494 -0.3023
  117MOL   H22237574   5.486   7.309   4.139 -2.0955 -0.5019  2.5317
  117MOL   H22337575   5.690   7.189   4.095 -0.4278  1.5468  0.4290
  117MOL   H22437576   5.697   6.988   3.835  0.3921 -0.7263 -1.1356
  117MOL   H22537577   5.822   7.060   3.931  0.4827  0.5131 -2.0353
  117MOL   C22637578   5.888   6.874   3.842 -0.0612  0.2748 -0.5564
  117MOL   C22737579   5.854   6.727   3.822  0.1304 -0.2009  0.1199
  117MOL   C22837580   5.935   6.635   3.895 -0.0264 -0.2444  0.1413
  117MOL   C22937581   5.901   6.502   3.896 -0.5439 -0.1991 -0.2487
  117MOL   C23037582   5.788   6.458   3.832 -0.1848  0.3953  0.4657
  117MOL   F23137583   5.759   6.324   3.841 -0.0158 -0.0229  0.3902
  117MOL   C23237584   5.718   6.544   3.745  0.7517 -0.6328 -0.6474
  117MOL   C23337585   5.748   6.681   3.746  0.1826 -0.0784 -0.1743
  117MOL   C23437586   5.939   6.937   3.714 -0.1394  0.3546 -0.1958
  117MOL   H23537587   5.968   6.882   3.916  0.4157  1.2255 -1.1724
  117MOL   H23637588   6.031   6.660   3.938 -0.9819  1.2579  1.4536
  117MOL   H23737589   5.970   6.432   3.942 -0.3411  0.5154  0.5467
  117MOL   H23837590   5.630   6.518   3.688  0.5781  0.6350 -0.9949
  117MOL   H23937591   5.693   6.758   3.693  0.2627 -0.6572 -1.0886
  117MOL   H24037592   5.855   6.948   3.645 -0.9420 -1.7735  0.3984
  117MOL   H24137593   6.000   7.023   3.742 -0.0584 -0.1498  1.2029
  117MOL   C24237594   6.042   6.858   3.631 -0.0109 -0.0670 -0.6510
  117MOL   C24337595   6.053   6.925   3.494  0.8064 -0.4509  0.7927
  117MOL   C24437596   5.970   6.889   3.384 -0.8449 -0.0478  0.1516
  117MOL   C24537597   5.977   6.955   3.257  0.3761  0.4671 -1.0734
  117MOL   C24637598   6.077   7.051   3.237 -0.4131 -0.6250  0.1689
  117MOL   F24737599   6.094   7.108   3.112  0.5968  0.1567 -0.0354
  117MOL   C24837600   6.165   7.087   3.343  0.9501 -0.3478  0.5073
  117MOL   C24937601   6.160   7.016   3.470  0.7037 -0.2213 -0.2668
  117MOL   C25037602   6.174   6.832   3.701  0.2397  0.1849  0.4792
  117MOL   H25137603   6.003   6.760   3.604 -0.2015 -0.4593  1.0066
  117MOL   H25237604   5.893   6.816   3.406 -0.3004 -0.7274 -0.1835
  117MOL   H25337605   5.905   6.930   3.180  1.3445  1.7744 -2.4403
  117MOL   H25437606   6.248   7.150   3.313  1.7425 -1.0820  1.1343
  117MOL   H25537607   6.234   7.036   3.545 -0.0933  0.5994  0.3142
  117MOL   H25637608   6.208   6.924   3.748  0.5060  0.0947  0.4668
  117MOL   H25737609   6.150   6.784   3.796 -1.7168  1.4968  0.6557
  117MOL   C25837610   6.287   6.764   3.628 -0.2374  0.0614  0.0219
  117MOL   C25937611   6.408   6.763   3.717  0.0164  0.6757 -0.5410
  117MOL   C26037612   6.528   6.827   3.681  0.7953  0.1837 -0.1789
  117MOL   C26137613   6.640   6.819   3.764 -0.0374  0.1725 -0.0072
  117MOL   C26237614   6.636   6.750   3.886  0.4699  0.4700  0.7480
  117MOL   F26337615   6.752   6.727   3.957 -0.8398  0.2653  0.4730
  117MOL   C26437616   6.512   6.695   3.928 -0.2729  0.1378  0.1702
  117MOL   C26537617   6.404   6.705   3.844  0.8751  0.9895 -0.3074
  117MOL   C26637618   6.251   6.628   3.573 -0.0266  0.0136 -0.2750
  117MOL   H26737619   6.314   6.831   3.546  1.9891  0.1286  0.7749
  117MOL   H26837620   6.523   6.878   3.586 -4.3166 -1.2599 -0.8009
  117MOL   H26937621   6.731   6.859   3.721  0.7152 -0.3389  1.0855
  117MOL   H27037622   6.508   6.637   4.019  0.0509 -0.7198 -0.3495
  117MOL   H27137623   6.312   6.655   3.868  1.1462  1.0201  0.8765
  117MOL   H27237624   6.304   6.553   3.632  0.7238  0.6800 -0.1003
  117MOL   H27337625   6.144   6.609   3.588  0.2787 -1.8733 -0.2933
  117MOL   C27437626   6.278   6.595   3.425  0.3521  0.3787 -0.3513
  117MOL   C27537627   6.410   6.639   3.372 -0.4231 -1.2794  0.4614
  117MOL   C27637628   6.415   6.693   3.241 -0.0052 -0.0709 -0.7032
  117MOL   C27737629   6.540   6.742   3.199 -0.0045  0.0634  0.0830
  117MOL   C27837630   6.653   6.729   3.282 -0.2551 -0.7750 -0.7819
  117MOL   F27937631   6.767   6.792   3.253 -0.0648 -0.1139 -0.0016
  117MOL   C28037632   6.649   6.659   3.402 -0.6766 -0.6641 -0.0550
  117MOL   C28137633   6.529   6.604   3.439  0.1364 -0.2973 -0.0015
  117MOL   C28237634   6.269   6.437   3.395  0.2840  0.2505 -0.3338
  117MOL   H28337635   6.203   6.650   3.369 -1.4698 -1.1549  0.5056
  117MOL   H28437636   6.330   6.712   3.177  0.0070  1.8029 -0.1927
  117MOL   H28537637   6.543   6.782   3.099  0.2194 -0.7467 -0.2397
  117MOL   H28637638   6.734   6.656   3.469  1.1585 -0.6313 -2.3281
  117MOL   H28737639   6.531   6.566   3.540 -2.7914 -1.3410 -0.2792
  117MOL   H28837640   6.292   6.414   3.291  1.4178  0.8144 -0.2236
  117MOL   H28937641   6.356   6.394   3.445  0.4119  1.0895  0.1670
  117MOL   C29037642   6.149   6.366   3.447 -0.2595  0.0004  0.7909
  117MOL   C29137643   6.027   6.429   3.385 -0.0715 -0.0372  0.3360
  117MOL   C29237644   5.920   6.471   3.466 -0.3686  0.2424 -0.1284
  117MOL   C29337645   5.807   6.521   3.400 -0.0258 -0.2441  0.2768
  117MOL   C29437646   5.801   6.526   3.263 -0.0215 -0.5798  0.1853
  117MOL   F29537647   5.691   6.575   3.201  0.3727 -0.2002  0.2101
  117MOL   C29637648   5.908   6.471   3.185 -0.0109  0.2108 -0.1058
  117MOL   C29737649   6.022   6.429   3.243  0.2213 -0.6789  0.2870
  117MOL   C29837650   6.151   6.216   3.427 -0.8371 -0.4971  0.5877
  117MOL   H29937651   6.139   6.396   3.551  0.5742 -0.8872  1.1359
  117MOL   H30037652   5.931   6.460   3.572 -1.3063 -0.3963 -0.0918
  117MOL   H30137653   5.727   6.563   3.459 -1.1504 -1.4401 -0.3638
  117MOL   H30237654   5.901   6.466   3.077  0.8842 -0.1379 -0.1512
  117MOL   H30337655   6.102   6.399   3.175 -0.1219 -0.9678  0.0050
  117MOL   H30437656   6.052   6.173   3.447 -2.5354  3.1629  0.3452
  117MOL   H30537657   6.174   6.191   3.323  0.6994  0.3632  0.7073
  117MOL   C30637658   6.254   6.153   3.517 -0.2209  0.7312 -0.4367
  117MOL   C30737659   6.205   6.168   3.669  0.1710 -0.7262 -0.1334
  117MOL   C30837660   6.262   6.269   3.751  0.6706  0.3409  0.0967
  117MOL   C30937661   6.229   6.273   3.892  0.0938  0.3864 -0.0898
  117MOL   C31037662   6.152   6.173   3.951 -0.1234 -0.5446  0.5096
  117MOL   F31137663   6.136   6.170   4.081  0.0191 -0.0922  0.6059
  117MOL   C31237664   6.095   6.079   3.866 -1.2060 -0.3945  0.2028
  117MOL   C31337665   6.117   6.076   3.728 -0.4381 -0.3941 -0.2511
  117MOL   C31437666   6.289   6.005   3.471  0.2406  0.3297 -0.1472
  117MOL   H31537667   6.355   6.193   3.508  0.0419  0.3608  0.8807
  117MOL   H31637668   6.328   6.344   3.711 -0.0098  0.5517 -0.6452
  117MOL   H31737669   6.263   6.356   3.952  0.6074 -0.9499  1.5143
  117MOL   H31837670   6.018   6.012   3.902 -2.4022  1.4755  1.2310
  117MOL   H31937671   6.072   5.993   3.676  1.7329 -1.2612 -0.7832
  117MOL   H32037672   6.205   5.937   3.481  1.5082 -1.5967 -2.3617
  117MOL   H32137673   6.322   6.009   3.367  2.0297 -1.3650  0.3342
  117MOL   H32237674   6.369   5.974   3.538 -1.3241 -1.3498  0.9839
  118MOL     C137675   5.150   4.984   6.696  0.8397 -0.5185 -1.1231
  118MOL     C237676   5.028   5.017   6.785 -0.3153  0.3437  0.0525
  118MOL     C337677   4.931   5.109   6.754  0.4949 -0.5407 -0.1825
  118MOL     C437678   4.819   5.126   6.843  0.4067  0.6050  0.1396
  118MOL     C537679   4.800   5.045   6.956 -0.2216 -0.0192 -0.2661
  118MOL     F637680   4.698   5.082   7.042  0.4173 -0.0979 -0.6347
  118MOL     C737681   4.897   4.949   6.987  0.0807  0.2719  0.1416
  118MOL     C837682   5.010   4.937   6.904  0.6851  0.3701  0.2442
  118MOL     C937683   5.121   4.876   6.589  0.2497 -0.3715 -0.5471
  118MOL    H1037684   5.226   4.949   6.767 -0.8102 -1.9412 -0.0241
  118MOL    H1137685   4.934   5.167   6.663 -3.3026 -1.5011 -1.0105
  118MOL    H1237686   4.741   5.193   6.808  1.0539  0.9318 -0.6797
  118MOL    H1337687   4.890   4.888   7.076  0.5994 -0.0168 -0.0153
  118MOL    H1437688   5.073   4.851   6.927  1.1398 -0.7491 -4.5263
  118MOL    H1537689   5.078   4.792   6.644 -1.2574  1.0523  0.5191
  118MOL    H1637690   5.036   4.915   6.532 -1.0422 -1.8745  0.3261
  118MOL    H1737691   5.198   5.073   6.656  1.3226  0.6518  1.8973
  118MOL    C1837692   5.244   4.829   6.504  0.2217 -0.0064  1.0079
  118MOL    C1937693   5.322   4.952   6.449  0.7199 -0.2104 -0.1750
  118MOL    C2037694   5.276   5.015   6.328 -1.0900 -0.3885 -0.3553
  118MOL    C2137695   5.325   5.136   6.283 -0.2719  0.9618  0.1339
  118MOL    C2237696   5.434   5.190   6.351 -0.3053  0.0474 -0.0023
  118MOL    F2337697   5.490   5.307   6.304 -0.1754 -0.2320  0.0056
  118MOL    C2437698   5.486   5.125   6.468  0.0222  0.3229 -1.2506
  118MOL    C2537699   5.433   5.006   6.520 -0.1423 -0.6120 -0.2562
  118MOL    C2637700   5.327   4.718   6.568  0.1126  0.6428 -0.2091
  118MOL    H2737701   5.185   4.785   6.423 -0.2360 -3.2146  3.0161
  118MOL    H2837702   5.188   4.973   6.282 -3.0799 -0.7217  3.4930
  118MOL    H2937703   5.275   5.203   6.215 -0.6893 -0.0952 -0.6262
  118MOL    H3037704   5.568   5.174   6.519  0.7704  0.5538 -2.6431
  118MOL    H3137705   5.474   4.958   6.608  0.9856 -0.5420 -0.7297
  118MOL    H3237706   5.362   4.755   6.665  0.5259 -0.7510  0.1827
  118MOL    H3337707   5.262   4.638   6.603 -0.2820 -0.0775 -2.5017
  118MOL    C3437708   5.456   4.658   6.496  0.3349 -0.5058  0.2861
  118MOL    C3537709   5.538   4.569   6.595  0.8472 -0.2291  0.7419
  118MOL    C3637710   5.671   4.610   6.624  0.1047  0.8301 -0.4901
  118MOL    C3737711   5.736   4.551   6.732 -0.1690 -0.2844  0.5446
  118MOL    C3837712   5.675   4.448   6.808 -0.8116 -0.3949  0.0914
  118MOL    F3937713   5.744   4.387   6.907  0.1101 -0.4413 -0.6111
  118MOL    C4037714   5.549   4.403   6.768  0.6267  0.2891 -0.0388
  118MOL    C4137715   5.479   4.465   6.667 -0.9886  0.5192  0.8996
  118MOL    C4237716   5.430   4.575   6.370 -0.1551  0.1588  0.0204
  118MOL    H4337717   5.522   4.743   6.480  3.1491 -2.4319  1.2849
  118MOL    H4437718   5.724   4.694   6.580 -1.0364  1.3164 -0.9538
  118MOL    H4537719   5.833   4.584   6.767 -0.1220 -0.4907  0.6117
  118MOL    H4637720   5.517   4.315   6.822 -0.0957  0.1867 -0.6353
  118MOL    H4737721   5.380   4.433   6.640 -0.2694 -1.2182  0.2255
  118MOL    H4837722   5.489   4.484   6.378 -2.3515 -1.5135 -2.1532
  118MOL    H4937723   5.324   4.549   6.370  0.2854 -1.8390 -2.2652
  118MOL    C5037724   5.466   4.655   6.245  0.0239  0.4852 -0.3419
  118MOL    C5137725   5.615   4.683   6.242  0.3588  0.6542 -0.1053
  118MOL    C5237726   5.673   4.812   6.274  0.7156  0.2009 -0.6337
  118MOL    C5337727   5.813   4.840   6.281 -0.1420  1.0130 -0.5855
  118MOL    C5437728   5.899   4.731   6.266  0.3101  0.5625 -0.3063
  118MOL    F5537729   6.031   4.744   6.279  0.0835 -0.1341  0.6068
  118MOL    C5637730   5.850   4.601   6.232 -0.5334 -0.5088 -0.5466
  118MOL    C5737731   5.708   4.583   6.215 -0.2798  0.2844  0.4937
  118MOL    C5837732   5.415   4.587   6.112 -0.9567 -0.8589 -0.3393
  118MOL    H5937733   5.406   4.746   6.244  1.2893  1.3389 -1.2565
  118MOL    H6037734   5.599   4.889   6.287 -1.6342 -1.9096 -1.0985
  118MOL    H6137735   5.845   4.942   6.294  0.6333  0.8209 -0.9643
  118MOL    H6237736   5.916   4.518   6.212  0.5031  0.0083  0.6199
  118MOL    H6337737   5.672   4.485   6.189 -1.1606  0.9603 -0.9041
  118MOL    H6437738   5.447   4.483   6.118  0.0569 -0.5532 -0.3525
  118MOL    H6537739   5.306   4.596   6.113 -0.8603  0.6472  1.7273
  118MOL    C6637740   5.490   4.644   5.981 -0.3639  0.3482 -0.9308
  118MOL    C6737741   5.431   4.564   5.856 -0.1460  0.3922 -0.7248
  118MOL    C6837742   5.503   4.443   5.815 -0.8029  0.1208 -0.1457
  118MOL    C6937743   5.455   4.368   5.701  0.0890  0.1144 -0.0782
  118MOL    C7037744   5.337   4.407   5.636 -0.0710  0.0901 -0.5650
  118MOL    F7137745   5.294   4.334   5.531 -0.4112  0.0118 -0.2481
  118MOL    C7237746   5.266   4.517   5.685  0.0383 -0.0957 -0.1270
  118MOL    C7337747   5.310   4.596   5.789 -0.3358 -0.6961 -0.3267
  118MOL    C7437748   5.469   4.794   5.966 -0.4083  0.4535 -0.0074
  118MOL    H7537749   5.596   4.620   5.981 -0.2996  0.5919  0.8288
  118MOL    H7637750   5.593   4.398   5.854 -0.0221  1.3892 -0.4761
  118MOL    H7737751   5.517   4.284   5.673 -1.1228 -0.7356 -0.2602
  118MOL    H7837752   5.179   4.543   5.626  1.0953  0.7394 -1.3573
  118MOL    H7937753   5.263   4.691   5.808  0.6568 -0.5746  1.6227
  118MOL    H8037754   5.363   4.815   5.950 -0.7937  1.2164  3.1447
  118MOL    H8137755   5.483   4.842   6.063  1.5116  2.3481 -1.1632
  118MOL    C8237756   5.547   4.879   5.856  0.4287  0.1447  0.6117
  118MOL    C8337757   5.490   5.023   5.856  0.4032 -0.3920 -0.1784
  118MOL    C8437758   5.425   5.076   5.745  0.0743  0.5238  0.2026
  118MOL    C8537759   5.385   5.207   5.739 -0.5332  0.0383 -0.3741
  118MOL    C8637760   5.410   5.292   5.846  0.2576 -0.2589 -0.2671
  118MOL    F8737761   5.353   5.414   5.847  0.2428 -0.0372 -0.0184
  118MOL    C8837762   5.472   5.243   5.966 -0.4541 -0.1101  0.2110
  118MOL    C8937763   5.510   5.105   5.969  0.4373  0.3473  0.0469
  118MOL    C9037764   5.704   4.865   5.860 -0.1918  0.7310 -0.3324
  118MOL    H9137765   5.512   4.836   5.762  0.5399 -2.0231  1.5217
  118MOL    H9237766   5.406   5.014   5.659  0.7822 -0.9010  1.0542
  118MOL    H9337767   5.324   5.237   5.655 -0.8660 -2.4725 -1.0462
  118MOL    H9437768   5.493   5.295   6.057 -1.9826 -0.9879  1.0904
  118MOL    H9537769   5.554   5.062   6.058  2.2535  0.8330 -0.5927
  118MOL    H9637770   5.728   4.850   5.965  0.0415  1.1771 -0.3198
  118MOL    H9737771   5.737   4.779   5.802 -3.2585  0.8832 -2.4046
  118MOL    C9837772   5.795   4.974   5.813 -0.0274  0.4606 -0.1713
  118MOL    C9937773   5.930   4.961   5.872  0.1067  0.4732  0.0003
  118MOL   C10037774   5.959   5.026   5.992  0.0205  0.6464 -0.2764
  118MOL   C10137775   6.079   5.005   6.054  0.3400 -0.2294  0.0081
  118MOL   C10237776   6.172   4.919   6.002  0.0694 -0.3006 -0.2054
  118MOL   F10337777   6.296   4.904   6.062  0.3809 -0.1719  0.1453
  118MOL   C10437778   6.146   4.850   5.882  0.0338 -0.9010 -0.7302
  118MOL   C10537779   6.019   4.865   5.820  0.1492 -0.1450  0.1218
  118MOL   C10637780   5.796   4.983   5.657  0.4941 -0.1700 -0.3177
  118MOL   H10737781   5.755   5.071   5.843  0.8386  0.7912 -0.0795
  118MOL   H10837782   5.901   5.109   6.031  1.9663  2.2469 -0.7164
  118MOL   H10937783   6.090   5.057   6.148 -2.4286 -2.2986  1.5590
  118MOL   H11037784   6.217   4.775   5.850 -0.3801 -0.5825 -2.4720
  118MOL   H11137785   5.987   4.800   5.740 -1.0841 -2.1771  2.2160
  118MOL   H11237786   5.845   4.894   5.617  0.4581 -0.6028  0.5762
  118MOL   H11337787   5.692   4.973   5.626 -0.1810  0.9486  1.5234
  118MOL   C11437788   5.864   5.109   5.606 -0.3923 -0.4532  0.5084
  118MOL   C11537789   5.916   5.088   5.466  0.1858 -0.3801 -0.4781
  118MOL   C11637790   6.054   5.082   5.452  0.0382  0.0658  0.1967
  118MOL   C11737791   6.110   5.058   5.321 -0.2487  0.1319 -0.4126
  118MOL   C11837792   6.025   5.020   5.217  0.2781 -0.4375  0.7228
  118MOL   F11937793   6.073   4.987   5.096  0.2644  0.7742  0.6671
  118MOL   C12037794   5.887   5.032   5.232  0.1225  0.2630  0.0699
  118MOL   C12137795   5.833   5.061   5.355 -0.3142  0.0248 -0.4748
  118MOL   C12237796   5.772   5.229   5.613  0.0335  0.7963  0.2217
  118MOL   H12337797   5.947   5.132   5.672 -0.0986 -1.1170  0.3754
  118MOL   H12437798   6.119   5.099   5.537 -0.6177  0.3816  0.6398
  118MOL   H12537799   6.215   5.061   5.299  0.0326  0.1384  0.8408
  118MOL   H12637800   5.822   5.013   5.148 -0.3328 -1.8056  0.8359
  118MOL   H12737801   5.726   5.056   5.369 -0.1566  0.6243  1.0610
  118MOL   H12837802   5.709   5.230   5.524  3.1022 -0.7720 -2.0511
  118MOL   H12937803   5.699   5.223   5.693 -1.9865 -0.1170 -1.6230
  118MOL   C13037804   5.854   5.361   5.620  0.5769 -0.2075 -0.2831
  118MOL   C13137805   5.758   5.471   5.573 -0.2848 -0.5619  0.1674
  118MOL   C13237806   5.662   5.536   5.656  0.2341 -0.5689  0.4451
  118MOL   C13337807   5.570   5.622   5.603  0.0822 -0.3082  0.8703
  118MOL   C13437808   5.571   5.657   5.467  0.0530  0.0503  0.5480
  118MOL   F13537809   5.481   5.745   5.417 -0.6159  0.1997 -0.2016
  118MOL   C13637810   5.667   5.605   5.383 -0.1554  0.0754  0.2845
  118MOL   C13737811   5.759   5.511   5.436 -0.3738 -0.2860  0.1992
  118MOL   C13837812   5.932   5.391   5.749  0.5130  0.2943 -0.9227
  118MOL   H13937813   5.934   5.363   5.546 -1.0614 -0.2994 -2.0982
  118MOL   H14037814   5.644   5.521   5.762 -2.4938  1.1526  0.2967
  118MOL   H14137815   5.493   5.660   5.669 -0.8251 -0.7710  0.0833
  118MOL   H14237816   5.669   5.631   5.278 -2.3600 -1.4154 -0.1579
  118MOL   H14337817   5.832   5.469   5.369 -2.3541 -1.3415 -1.3310
  118MOL   H14437818   5.866   5.374   5.834 -0.8022 -1.4287 -2.2342
  118MOL   H14537819   6.019   5.326   5.751  0.2960  0.0732  1.8047
  118MOL   C14637820   5.991   5.533   5.757 -0.0009  0.3080 -0.1425
  118MOL   C14737821   6.069   5.558   5.888 -0.6868 -0.2866 -0.4822
  118MOL   C14837822   6.071   5.689   5.950 -0.5895 -0.3084 -0.4854
  118MOL   C14937823   6.153   5.724   6.062  0.3994 -0.0641  0.6460
  118MOL   C15037824   6.228   5.623   6.123 -0.1781  0.4864  0.2812
  118MOL   F15137825   6.288   5.653   6.238  0.2893 -0.5175  0.2587
  118MOL   C15237826   6.237   5.496   6.065 -0.3223  0.3782  0.1725
  118MOL   C15337827   6.165   5.466   5.948  0.6015 -0.7008 -0.1566
  118MOL   C15437828   6.077   5.578   5.629 -0.2306  0.1640  0.6626
  118MOL   H15537829   5.907   5.603   5.767  0.4789  0.9932 -0.8697
  118MOL   H15637830   6.013   5.763   5.897 -0.5917 -1.1812 -1.6936
  118MOL   H15737831   6.145   5.822   6.107 -0.8747  0.2477 -0.2214
  118MOL   H15837832   6.297   5.415   6.104  0.9183  0.7786 -0.8606
  118MOL   H15937833   6.186   5.368   5.908  0.1624 -0.4929 -0.9069
  118MOL   H16037834   6.173   5.528   5.641 -1.0471 -1.3895  0.7919
  118MOL   H16137835   6.042   5.544   5.531  0.0393  2.0802 -0.1158
  118MOL   C16237836   6.092   5.730   5.599 -0.8602  0.1278 -0.4007
  118MOL   C16337837   6.214   5.747   5.508  0.5341  0.1458 -0.1473
  118MOL   C16437838   6.324   5.814   5.558  0.0003 -0.2629  0.4360
  118MOL   C16537839   6.435   5.844   5.472 -0.0907  0.8080  0.0106
  118MOL   C16637840   6.433   5.801   5.334 -0.2075 -0.2616  0.0956
  118MOL   F16737841   6.528   5.852   5.247  0.6195 -0.2851 -0.6322
  118MOL   C16837842   6.328   5.719   5.284  0.2117  0.2505 -0.2044
  118MOL   C16937843   6.217   5.696   5.371 -0.8352  0.5331  0.7519
  118MOL   C17037844   5.964   5.800   5.552  0.6701  0.3173  0.1451
  118MOL   H17137845   6.112   5.775   5.696 -2.2617 -1.1525  0.5085
  118MOL   H17237846   6.320   5.834   5.664 -0.1442 -1.3492  0.6454
  118MOL   H17337847   6.523   5.888   5.516  0.4901 -0.6833  0.3749
  118MOL   H17437848   6.334   5.683   5.182 -3.0896 -0.5460 -0.1654
  118MOL   H17537849   6.139   5.632   5.332  0.1155 -0.4353  0.4125
  118MOL   H17637850   5.939   5.763   5.453  0.3299 -4.4140  1.8384
  118MOL   H17737851   5.883   5.750   5.605  2.1880 -2.7035 -0.2515
  118MOL   C17837852   5.952   5.952   5.558  1.0989 -0.2435 -0.3981
  118MOL   C17937853   6.039   6.024   5.464  0.6893 -0.1098 -0.5218
  118MOL   C18037854   6.009   6.017   5.328 -0.3222 -0.1597  0.1681
  118MOL   C18137855   6.091   6.092   5.237  0.4688  0.1343 -0.2416
  118MOL   C18237856   6.196   6.177   5.284 -0.2882 -0.1056  0.2795
  118MOL   F18337857   6.274   6.245   5.192 -0.4188  0.1323 -0.1585
  118MOL   C18437858   6.229   6.173   5.417  1.0096  0.3517  1.1342
  118MOL   C18537859   6.152   6.095   5.510 -0.7896  0.4044  0.1442
  118MOL   C18637860   5.802   5.992   5.554 -0.7697 -0.6907 -0.4355
  118MOL   H18737861   5.999   5.975   5.653  2.9867 -0.8623 -1.1501
  118MOL   H18837862   5.922   5.957   5.304  0.1075 -0.3033 -1.0529
  118MOL   H18937863   6.063   6.102   5.133  3.2642 -2.4587 -1.3433
  118MOL   H19037864   6.307   6.239   5.454  0.0199  2.9470 -1.2200
  118MOL   H19137865   6.167   6.106   5.616 -0.8640 -1.3406  0.3645
  118MOL   H19237866   5.742   5.923   5.493  0.0589 -1.2078 -0.6704
  118MOL   H19337867   5.766   5.962   5.652  1.1126 -0.8961  0.2036
  118MOL   C19437868   5.769   6.143   5.524  0.0472  0.5458 -0.3963
  118MOL   C19537869   5.615   6.165   5.524 -0.0662 -0.5362 -0.3170
  118MOL   C19637870   5.544   6.154   5.643 -0.4392  0.9395 -0.6716
  118MOL   C19737871   5.407   6.179   5.661 -0.9805 -0.3177  0.5429
  118MOL   C19837872   5.334   6.214   5.544 -0.8231  0.6522  0.2355
  118MOL   F19937873   5.202   6.235   5.549  0.0688 -0.0259  0.2770
  118MOL   C20037874   5.404   6.228   5.417 -0.7624  0.1822  0.5656
  118MOL   C20137875   5.543   6.203   5.411 -0.6065 -0.2265 -0.1727
  118MOL   C20237876   5.829   6.237   5.625 -0.1875 -0.6652 -0.3122
  118MOL   H20337877   5.813   6.161   5.427  2.8058  0.3347  0.7799
  118MOL   H20437878   5.590   6.146   5.740 -0.2424 -0.2732 -0.8678
  118MOL   H20537879   5.357   6.176   5.756  0.4789 -1.5711  1.2812
  118MOL   H20637880   5.344   6.260   5.334 -2.3214  2.7906  2.6481
  118MOL   H20737881   5.586   6.214   5.313 -0.5287  0.4871 -0.0661
  118MOL   H20837882   5.791   6.220   5.726 -0.8090 -2.3857 -0.8136
  118MOL   H20937883   5.933   6.206   5.642 -0.3203 -1.9769 -1.8008
  118MOL   C21037884   5.820   6.390   5.600  0.3346  0.4671 -0.4840
  118MOL   C21137885   5.902   6.473   5.701 -0.1435 -0.5541 -0.3150
  118MOL   C21237886   6.042   6.459   5.719 -0.4114  0.5093  0.5618
  118MOL   C21337887   6.106   6.528   5.827 -0.0673 -0.2686  0.3286
  118MOL   C21437888   6.033   6.622   5.900  0.2628  0.0358 -0.3326
  118MOL   F21537889   6.106   6.699   5.983 -0.0285 -0.4470  0.0632
  118MOL   C21637890   5.895   6.639   5.882  0.7472 -0.2117  0.0460
  118MOL   C21737891   5.831   6.562   5.786  0.8624  0.5866 -0.0594
  118MOL   C21837892   5.856   6.420   5.453 -0.6262  0.3224  1.1536
  118MOL   H21937893   5.715   6.418   5.609 -0.1946 -0.7049 -2.5690
  118MOL   H22037894   6.101   6.393   5.657 -0.3368  0.8835  0.2286
  118MOL   H22137895   6.213   6.515   5.839  0.2103  2.4916  1.0436
  118MOL   H22237896   5.851   6.702   5.957  0.4052 -1.2719  0.7469
  118MOL   H22337897   5.724   6.562   5.770  1.0987 -0.4215 -1.8354
  118MOL   H22437898   5.948   6.375   5.415  0.7790  2.7839  1.5257
  118MOL   H22537899   5.790   6.364   5.387  1.0760  0.4832 -0.7424
  118MOL   C22637900   5.848   6.569   5.401  0.4175  0.3448  0.3226
  118MOL   C22737901   5.982   6.648   5.420 -0.6855 -0.1666 -0.1609
  118MOL   C22837902   6.082   6.606   5.328 -0.2248 -0.1804 -0.1960
  118MOL   C22937903   6.210   6.663   5.339 -0.6969 -0.1269 -0.4053
  118MOL   C23037904   6.241   6.755   5.437  0.0544  0.9482  0.2823
  118MOL   F23137905   6.366   6.811   5.447  0.1738  0.2134 -0.5927
  118MOL   C23237906   6.144   6.797   5.527  0.4095  0.2198  0.4452
  118MOL   C23337907   6.014   6.739   5.517 -0.4666 -0.1331 -0.9392
  118MOL   C23437908   5.792   6.573   5.258  0.5452 -0.4584  0.5231
  118MOL   H23537909   5.770   6.618   5.459  0.7920 -0.2796  1.3570
  118MOL   H23637910   6.053   6.539   5.249  0.2352  0.0313 -0.5494
  118MOL   H23737911   6.280   6.636   5.262 -0.3575 -0.5876  0.0643
  118MOL   H23837912   6.175   6.858   5.610 -0.3620 -0.4947  1.2658
  118MOL   H23937913   5.950   6.773   5.597 -0.1075  0.7440 -1.0122
  118MOL   H24037914   5.858   6.641   5.203  1.2470 -1.1083  0.5589
  118MOL   H24137915   5.797   6.477   5.207  1.0687  0.7501 -1.7769
  118MOL   C24237916   5.657   6.647   5.246  0.1177  0.4748  0.0316
  118MOL   C24337917   5.627   6.696   5.107 -0.9379  0.2842  0.5459
  118MOL   C24437918   5.589   6.829   5.085  0.0622  0.4936 -0.0808
  118MOL   C24537919   5.555   6.869   4.957  0.0548  0.3080  0.2403
  118MOL   C24637920   5.563   6.777   4.851 -0.3293 -0.0662  0.3296
  118MOL   F24737921   5.522   6.820   4.732  0.7863  0.8823  0.5390
  118MOL   C24837922   5.609   6.644   4.864  0.3159 -0.3946 -0.4371
  118MOL   C24937923   5.641   6.603   5.000  0.4244 -0.4329  0.1753
  118MOL   C25037924   5.542   6.559   5.301 -0.3190  0.2506 -0.5800
  118MOL   H25137925   5.655   6.736   5.309 -0.9367 -0.2078  0.9748
  118MOL   H25237926   5.593   6.902   5.164  0.8696  1.1389 -0.7148
  118MOL   H25337927   5.521   6.966   4.927  0.7842  0.4659 -0.0928
  118MOL   H25437928   5.613   6.582   4.775  1.2961  0.4157 -0.9710
  118MOL   H25537929   5.682   6.504   5.017 -0.1227 -0.5391  0.9091
  118MOL   H25637930   5.490   6.497   5.227 -1.3399  0.7979 -0.3310
  118MOL   H25737931   5.592   6.486   5.364  0.0123  0.0505 -1.0667
  118MOL   C25837932   5.431   6.644   5.369 -0.1017 -0.4463 -0.2114
  118MOL   C25937933   5.316   6.689   5.277 -0.4411 -0.0155 -0.2407
  118MOL   C26037934   5.225   6.595   5.225  0.9022  0.4009 -0.3645
  118MOL   C26137935   5.128   6.632   5.131 -1.0564 -0.7318 -0.1442
  118MOL   C26237936   5.118   6.762   5.086 -0.2005 -0.3659 -0.5569
  118MOL   F26337937   5.015   6.797   4.997  0.3560 -0.1849  0.0601
  118MOL   C26437938   5.216   6.857   5.133  0.3035 -0.6391 -0.5688
  118MOL   C26537939   5.308   6.827   5.233  0.4124  0.6908 -0.5192
  118MOL   C26637940   5.372   6.582   5.501 -0.1503  0.1108 -0.2349
  118MOL   H26737941   5.467   6.739   5.407 -0.6395 -0.2430 -0.2009
  118MOL   H26837942   5.229   6.494   5.263 -0.2217  0.7792  0.7704
  118MOL   H26937943   5.068   6.554   5.086  0.2889 -0.9109 -1.6548
  118MOL   H27037944   5.211   6.962   5.110 -0.0909 -0.9407 -1.9304
  118MOL   H27137945   5.378   6.904   5.262  0.4955  0.0798  0.9526
  118MOL   H27237946   5.297   6.510   5.468 -0.7568 -0.8273  3.0214
  118MOL   H27337947   5.449   6.518   5.542 -0.3775 -0.6529 -0.9868
  118MOL   C27437948   5.301   6.682   5.604 -0.2255  0.3157 -0.0724
  118MOL   C27537949   5.204   6.594   5.689  0.4037 -1.0347  0.3809
  118MOL   C27637950   5.064   6.605   5.669  0.4115 -0.4891 -0.6837
  118MOL   C27737951   4.973   6.510   5.727 -0.0613 -0.3638  0.2166
  118MOL   C27837952   5.029   6.415   5.813  0.1604  0.4978 -0.3880
  118MOL   F27937953   4.948   6.329   5.885  0.5481  0.2200  0.2232
  118MOL   C28037954   5.166   6.411   5.837 -0.7003 -0.8498  1.1098
  118MOL   C28137955   5.258   6.490   5.763  0.3611  0.5576  1.1929
  118MOL   C28237956   5.398   6.769   5.697  0.3594 -0.1325 -0.6928
  118MOL   H28337957   5.237   6.755   5.555 -0.7989  2.1461  3.2545
  118MOL   H28437958   5.018   6.690   5.620  1.7727  0.7283  0.0969
  118MOL   H28537959   4.868   6.524   5.707 -0.0087  1.2825  1.0529
  118MOL   H28637960   5.201   6.341   5.912  3.6220  1.3482  1.3374
  118MOL   H28737961   5.364   6.469   5.768  0.5081  0.9020 -0.3754
  118MOL   H28837962   5.352   6.787   5.794  1.9057 -0.2034  0.0720
  118MOL   H28937963   5.486   6.714   5.730  0.4024  0.5748  0.4186
  118MOL   C29037964   5.440   6.916   5.641 -0.0110 -0.2139 -0.3653
  118MOL   C29137965   5.328   7.016   5.661  0.0478  0.4783  0.7268
  118MOL   C29237966   5.290   7.044   5.793  0.4220 -0.1114  0.1939
  118MOL   C29337967   5.179   7.126   5.823 -0.4363 -0.1482  0.6767
  118MOL   C29437968   5.099   7.172   5.717  0.1614  0.2335 -0.1423
  118MOL   F29537969   4.999   7.253   5.748 -0.4245  0.0328  0.0396
  118MOL   C29637970   5.143   7.152   5.588  0.1199 -0.0793 -0.1236
  118MOL   C29737971   5.247   7.061   5.557 -0.3344  0.8623 -0.1482
  118MOL   C29837972   5.574   6.952   5.699  0.6031 -0.3590 -0.5065
  118MOL   H29937973   5.458   6.910   5.533  1.1007 -2.4023 -0.1060
  118MOL   H30037974   5.352   6.998   5.868 -0.9812  0.5552  1.7938
  118MOL   H30137975   5.153   7.154   5.924  0.3569 -1.2704  1.2128
  118MOL   H30237976   5.089   7.194   5.504 -0.0539  0.3872  0.2177
  118MOL   H30337977   5.258   7.043   5.451  0.4920 -0.4753  0.1494
  118MOL   H30437978   5.575   6.957   5.808  0.0551  0.7297 -0.5540
  118MOL   H30537979   5.635   6.864   5.677  1.8276  0.1144  0.9278
  118MOL   C30637980   5.647   7.072   5.632 -0.0360  0.0699  0.4021
  118MOL   C30737981   5.768   7.102   5.722 -0.3122 -0.4084 -0.6160
  118MOL   C30837982   5.866   7.005   5.751 -0.0045  0.0812 -0.4248
  118MOL   C30937983   5.971   7.039   5.836 -0.5635  0.4974 -0.4042
  118MOL   C31037984   5.980   7.161   5.899  0.1575 -0.4104  0.1278
  118MOL   F31137985   6.083   7.199   5.981 -0.2249  0.1887 -0.6051
  118MOL   C31237986   5.886   7.264   5.869  0.4489 -0.9335  0.3165
  118MOL   C31337987   5.775   7.230   5.787  0.0082  0.4087  0.0250
  118MOL   C31437988   5.701   7.046   5.491  0.8901  0.1052 -0.2234
  118MOL   H31537989   5.598   7.169   5.625  0.6766  0.3247 -1.4786
  118MOL   H31637990   5.856   6.906   5.710  1.0070 -0.1160 -0.2184
  118MOL   H31737991   6.048   6.968   5.860  0.3186  1.8676  0.9109
  118MOL   H31837992   5.912   7.362   5.908  3.7056 -1.2832 -0.9044
  118MOL   H31937993   5.696   7.295   5.752 -1.8552 -2.5156 -1.4165
  118MOL   H32037994   5.756   7.135   5.459 -0.4435  0.7234 -0.9059
  118MOL   H32137995   5.766   6.960   5.488 -1.1625 -1.6425  2.6915
  118MOL   H32237996   5.630   7.028   5.410 -0.4216 -1.1337  1.1652
  119MOL     C137997   5.342   7.627   4.146 -0.1118  0.1189 -1.0997
  119MOL     C237998   5.362   7.637   4.297  0.3102  0.4223 -0.5993
  119MOL     C337999   5.373   7.510   4.360  0.4570  1.0555 -0.1860
  119MOL     C438000   5.405   7.508   4.499  0.2629 -0.1795  0.2218
  119MOL     C538001   5.434   7.625   4.568  0.3386 -0.6261 -0.6632
  119MOL     F638002   5.492   7.619   4.691  0.0217 -0.3359 -0.0101
  119MOL     C738003   5.406   7.751   4.507 -0.6607  0.6552 -1.0626
  119MOL     C838004   5.380   7.757   4.365  0.4066 -0.6894  0.1338
  119MOL     C938005   5.398   7.745   4.074  0.2610 -0.3068  0.0848
  119MOL    H1038006   5.236   7.609   4.135 -0.4163 -0.1153  1.9679
  119MOL    H1138007   5.353   7.419   4.306  2.5462  1.5973 -1.9443
  119MOL    H1238008   5.421   7.413   4.547  0.6187 -0.0137  0.4358
  119MOL    H1338009   5.431   7.843   4.558  0.8123 -0.3776  0.1122
  119MOL    H1438010   5.380   7.856   4.322 -1.0562 -1.4714 -1.6921
  119MOL    H1538011   5.319   7.820   4.079 -1.0864 -1.7655  1.1859
  119MOL    H1638012   5.480   7.794   4.125 -0.0483 -1.0787  1.3566
  119MOL    H1738013   5.396   7.537   4.117  0.4283  0.4860 -1.2450
  119MOL    C1838014   5.432   7.720   3.932  0.1077 -0.2874 -0.4491
  119MOL    C1938015   5.328   7.630   3.866  0.4733 -0.2442  0.2640
  119MOL    C2038016   5.199   7.684   3.836  0.0458  0.4359 -0.2988
  119MOL    C2138017   5.104   7.598   3.773 -0.7406  0.1630 -0.3389
  119MOL    C2238018   5.130   7.469   3.752 -0.7664 -0.4613  0.0508
  119MOL    F2338019   5.029   7.399   3.703 -0.0210  0.0037  0.2271
  119MOL    C2438020   5.257   7.415   3.777  0.4874  0.9460  0.0221
  119MOL    C2538021   5.359   7.493   3.840  0.2338 -0.3232 -0.3914
  119MOL    C2638022   5.462   7.851   3.847  0.2939  0.1928 -0.6653
  119MOL    H2738023   5.526   7.664   3.933  0.2441 -0.0588 -0.1170
  119MOL    H2838024   5.177   7.788   3.855  0.7584  0.4580  0.4435
  119MOL    H2938025   5.005   7.631   3.745 -1.4473 -0.0332  1.8013
  119MOL    H3038026   5.273   7.309   3.764 -0.3712  1.0713 -2.2353
  119MOL    H3138027   5.449   7.448   3.878  0.3073  0.1787  0.0231
  119MOL    H3238028   5.401   7.930   3.891  0.3368 -0.6308  0.9105
  119MOL    H3338029   5.561   7.873   3.885 -0.5659 -1.1123  2.5223
  119MOL    C3438030   5.469   7.849   3.690 -1.2626  0.8323 -0.7221
  119MOL    C3538031   5.500   7.985   3.634  0.1552  0.3882  0.0217
  119MOL    C3638032   5.632   8.040   3.658  0.2031  0.5222  0.4906
  119MOL    C3738033   5.674   8.162   3.613 -0.2085  0.5816 -0.1315
  119MOL    C3838034   5.578   0.004   3.543 -0.0405  0.0590  0.3020
  119MOL    F3938035   5.617   0.122   3.488 -0.1457 -0.2272 -0.3447
  119MOL    C4038036   5.443   8.193   3.525 -0.4778  0.0715  0.0300
  119MOL    C4138037   5.406   8.066   3.573  0.3215 -0.6808 -0.0374
  119MOL    C4238038   5.549   7.735   3.631  0.0632  0.0926  0.4177
  119MOL    H4338039   5.367   7.836   3.652 -0.4469 -2.0159 -2.0442
  119MOL    H4438040   5.707   7.971   3.696  0.6493  0.7669  0.0570
  119MOL    H4538041   5.779   8.189   3.622 -0.0891 -0.0382  0.3300
  119MOL    H4638042   5.366   0.023   3.484 -1.7410 -0.5880  1.2867
  119MOL    H4738043   5.306   8.031   3.555  0.4204 -0.3556 -1.2640
  119MOL    H4838044   5.631   7.706   3.696  1.4583  1.0273 -0.8753
  119MOL    H4938045   5.478   7.653   3.638 -0.1951  0.4247  1.7572
  119MOL    C5038046   5.599   7.762   3.485 -0.4348 -0.9168  0.2878
  119MOL    C5138047   5.749   7.778   3.473  0.8451  0.9746 -0.1868
  119MOL    C5238048   5.811   7.896   3.414  0.5276  0.2101  0.4525
  119MOL    C5338049   5.953   7.906   3.416  0.4086  0.4825 -0.3598
  119MOL    C5438050   6.031   7.792   3.454  0.5853 -0.1443  0.6344
  119MOL    F5538051   6.168   7.793   3.452 -0.2566 -0.3513 -0.1200
  119MOL    C5638052   5.969   7.678   3.498  0.2933 -0.3731  0.1749
  119MOL    C5738053   5.827   7.668   3.512 -0.0188  0.5595 -1.0890
  119MOL    C5838054   5.545   7.648   3.391  0.0359  0.2857  0.1382
  119MOL    H5938055   5.556   7.854   3.447  0.3301 -1.5337 -2.1728
  119MOL    H6038056   5.750   7.977   3.378  1.7012  2.4544  3.2749
  119MOL    H6138057   6.006   7.991   3.376 -0.4493  0.1937 -2.1416
  119MOL    H6238058   6.028   7.596   3.537  0.3806 -0.0031  0.8156
  119MOL    H6338059   5.786   7.580   3.558  3.1672 -1.2851 -1.6641
  119MOL    H6438060   5.578   7.554   3.435 -1.3513  0.2394  1.1207
  119MOL    H6538061   5.437   7.655   3.403 -0.2228  1.1374 -2.4993
  119MOL    C6638062   5.571   7.659   3.238 -1.1252 -0.4504 -0.2707
  119MOL    C6738063   5.618   7.527   3.190  0.6371  0.2185 -0.3573
  119MOL    C6838064   5.523   7.428   3.152  0.2342  0.0603  0.1418
  119MOL    C6938065   5.568   7.309   3.096 -0.6595 -0.2739  0.6112
  119MOL    C7038066   5.703   7.279   3.093 -0.0671  0.1396  0.3155
  119MOL    F7138067   5.746   7.162   3.052 -0.0439 -0.3811 -0.1806
  119MOL    C7238068   5.799   7.372   3.124 -0.8193 -0.0891 -0.7271
  119MOL    C7338069   5.756   7.497   3.177 -0.3386  0.4121 -0.3976
  119MOL    C7438070   5.461   7.723   3.149  0.2912  0.2610  0.3301
  119MOL    H7538071   5.652   7.729   3.220 -3.0986  1.7464 -0.9614
  119MOL    H7638072   5.420   7.432   3.184  0.7500 -2.6435  2.3145
  119MOL    H7738073   5.500   7.234   3.059  0.0569 -0.0234 -1.2875
  119MOL    H7838074   5.906   7.364   3.110 -0.8838  0.4545 -1.6280
  119MOL    H7938075   5.822   7.571   3.218  1.7223 -1.4603 -0.2064
  119MOL    H8038076   5.487   7.709   3.044  2.4488  1.8076  0.6218
  119MOL    H8138077   5.367   7.670   3.161  0.2669 -0.1303 -1.4425
  119MOL    C8238078   5.441   7.873   3.157  1.1356 -0.3281 -0.5701
  119MOL    C8338079   5.565   7.957   3.115  0.3274  0.0919 -0.0953
  119MOL    C8438080   5.588   8.085   3.172  0.6554  0.3412  0.0286
  119MOL    C8538081   5.690   8.169   3.121  0.0086  0.6385 -0.1040
  119MOL    C8638082   5.775   8.135   3.018 -0.5358  0.7683  1.0971
  119MOL    F8738083   5.862   8.221   2.957 -0.2830  0.7874  0.1260
  119MOL    C8838084   5.749   8.010   2.958  0.2202 -0.3816  0.2378
  119MOL    C8938085   5.643   7.930   3.002 -0.0636  0.2143  0.0477
  119MOL    C9038086   5.306   7.922   3.095 -0.1530  0.3638  0.6214
  119MOL    H9138087   5.431   7.908   3.260 -0.0193 -1.0170 -0.4420
  119MOL    H9238088   5.523   8.122   3.251  2.0036 -0.2962  1.4661
  119MOL    H9338089   5.706   0.027   3.174  1.8209  1.3850 -1.9012
  119MOL    H9438090   5.805   7.978   2.871 -0.0320 -0.9381  0.2771
  119MOL    H9538091   5.622   7.843   2.942 -0.5972 -2.2147  3.5611
  119MOL    H9638092   5.217   7.883   3.144  0.5815 -0.4517  1.3195
  119MOL    H9738093   5.307   8.029   3.113  1.2111 -0.2832  5.0844
  119MOL    C9838094   5.291   7.899   2.940  0.4062 -0.7411 -0.0580
  119MOL    C9938095   5.237   7.758   2.911 -0.0664 -0.4807  0.6913
  119MOL   C10038096   5.105   7.728   2.960 -0.0186 -0.1326  0.1419
  119MOL   C10138097   5.045   7.606   2.942 -0.2404  0.1809  0.6018
  119MOL   C10238098   5.121   7.508   2.875  0.3400 -0.5181 -0.3513
  119MOL   F10338099   5.073   7.379   2.862  0.1253 -0.5631 -0.6987
  119MOL   C10438100   5.247   7.539   2.813  0.7057 -0.0468  0.0772
  119MOL   C10538101   5.305   7.666   2.834 -0.3553 -0.6452  0.3387
  119MOL   C10638102   5.195   8.004   2.873 -0.6664  0.2479 -0.0082
  119MOL   H10738103   5.394   7.904   2.904  0.2888 -1.2643 -0.4697
  119MOL   H10838104   5.042   7.798   3.014  0.2979  0.5341 -0.3480
  119MOL   H10938105   4.947   7.580   2.979 -0.5889  0.0613 -0.4000
  119MOL   H11038106   5.299   7.459   2.761  0.9699  0.4522 -0.4306
  119MOL   H11138107   5.396   7.690   2.782 -0.2883 -0.0102  0.7310
  119MOL   H11238108   5.120   7.953   2.812 -1.8467  1.6492  0.2418
  119MOL   H11338109   5.130   8.055   2.944  0.1169  1.0708  0.1354
  119MOL   C11438110   5.273   8.106   2.789  0.6375  0.6966  0.5831
  119MOL   C11538111   5.308   8.049   2.647  0.2746 -0.0619 -0.6235
  119MOL   C11638112   5.432   8.080   2.585  0.3427 -0.0813 -0.8188
  119MOL   C11738113   5.459   8.036   2.455 -0.1518 -0.0692  0.8703
  119MOL   C11838114   5.351   7.987   2.376  0.1043 -0.3897 -0.0802
  119MOL   F11938115   5.366   7.962   2.239  0.6287 -0.2357  0.1708
  119MOL   C12038116   5.230   7.953   2.434  0.1367 -0.0778  0.7569
  119MOL   C12138117   5.207   7.978   2.570  0.2124  0.0294  0.5410
  119MOL   C12238118   5.181   0.001   2.767 -0.1533  0.5059  0.2044
  119MOL   H12338119   5.363   8.135   2.843  0.8695 -1.7416  1.5531
  119MOL   H12438120   5.507   8.140   2.636 -2.0895  1.1262  1.4822
  119MOL   H12538121   5.558   8.055   2.416 -0.4454 -1.4859 -0.6235
  119MOL   H12638122   5.148   7.911   2.377  1.7822 -0.6661 -1.2256
  119MOL   H12738123   5.115   7.945   2.616  0.7255 -0.7822  0.9964
  119MOL   H12838124   5.216   0.064   2.686 -0.8748 -1.2263 -1.4893
  119MOL   H12938125   5.084   8.219   2.719  0.0552  0.8239 -0.3141
  119MOL   C13038126   5.159   0.089   2.892 -1.2241 -0.2324 -0.2032
  119MOL   C13138127   5.287   0.146   2.948  0.1416 -0.4745 -0.3346
  119MOL   C13238128   5.319   0.126   3.081  0.8310 -0.0657 -0.8388
  119MOL   C13338129   5.450   0.159   3.127  0.1330 -0.3558 -0.6440
  119MOL   C13438130   5.531   0.239   3.048 -0.0637  0.4395  0.0835
  119MOL   F13538131   5.647   0.286   3.097  0.5722 -0.6567 -0.3560
  119MOL   C13638132   5.503   0.262   2.918 -0.0528  0.3382 -0.1633
  119MOL   C13738133   5.383   0.211   2.867  0.1585 -0.3123  0.1161
  119MOL   C13838134   5.062   0.206   2.860 -0.0233  0.0265  0.1125
  119MOL   H13938135   5.105   0.026   2.963  0.3751  0.6585  1.8198
  119MOL   H14038136   5.254   0.071   3.148  3.1880 -1.7233  0.1691
  119MOL   H14138137   5.481   0.135   3.228  1.4065  1.1395 -0.6613
  119MOL   H14238138   5.572   0.316   2.855 -1.1288 -0.5195 -2.1053
  119MOL   H14338139   5.356   0.223   2.763 -3.5916 -0.9880  0.9395
  119MOL   H14438140   5.043   0.260   2.953  1.3180  0.9169 -0.1191
  119MOL   H14538141   5.110   0.277   2.793 -0.9062 -1.2370 -1.8840
  119MOL   C14638142   4.916   0.159   2.814  0.0151  0.5405  0.0244
  119MOL   C14738143   4.869   0.028   2.875  0.3984  0.5084 -0.4880
  119MOL   C14838144   4.862   0.002   3.016  0.2691  0.4294  0.4532
  119MOL   C14938145   4.826   8.110   3.068  0.2662 -0.2434 -0.0288
  119MOL   C15038146   4.794   8.003   2.976 -0.2371 -0.4414 -0.5385
  119MOL   F15138147   4.756   7.882   3.025 -0.2071  0.0303  0.0463
  119MOL   C15238148   4.785   8.033   2.841  0.2025 -0.0900 -0.1136
  119MOL   C15338149   4.821   8.163   2.793  0.1239 -0.1814 -0.2642
  119MOL   C15438150   4.810   0.274   2.817 -0.7623 -0.5009  0.4637
  119MOL   H15538151   4.923   0.141   2.707 -1.0235 -2.6039  0.4354
  119MOL   H15638152   4.900   0.075   3.086 -0.2687  2.5360 -1.3779
  119MOL   H15738153   4.825   8.095   3.175  0.9741 -3.6330 -0.4518
  119MOL   H15838154   4.752   7.956   2.772 -1.4019  1.9532 -1.6932
  119MOL   H15938155   4.818   8.182   2.687 -2.1674  3.8944  0.4062
  119MOL   H16038156   4.803   0.300   2.923 -1.7408  0.6072  0.1282
  119MOL   H16138157   4.843   0.367   2.772 -0.7508 -1.1269 -0.8326
  119MOL   C16238158   4.663   0.235   2.769 -0.5759  0.5720 -0.4666
  119MOL   C16338159   4.569   0.191   2.882 -0.0556  0.0859 -0.0291
  119MOL   C16438160   4.532   0.289   2.977 -0.1152 -0.2843 -0.2475
  119MOL   C16538161   4.453   0.253   3.087 -0.0189 -0.9357 -0.4724
  119MOL   C16638162   4.407   0.123   3.106 -0.1066  0.3677  0.2756
  119MOL   F16738163   4.344   0.089   3.220  0.6278 -0.0106 -0.2483
  119MOL   C16838164   4.434   0.022   3.012 -0.2531  0.9827 -0.1666
  119MOL   C16938165   4.524   0.058   2.903  0.0339  0.2728  0.5652
  119MOL   C17038166   4.602   0.343   2.684  0.0612 -0.5931  0.1325
  119MOL   H17138167   4.669   0.152   2.698 -0.6569 -0.3633  0.6095
  119MOL   H17238168   4.568   0.391   2.979 -2.4880  0.5798  0.7431
  119MOL   H17338169   4.428   0.324   3.165  0.0146 -1.7092  0.2438
  119MOL   H17438170   4.388   8.160   3.028 -1.3247  1.4190 -0.5382
  119MOL   H17538171   4.555   8.212   2.839  0.2009 -2.0626  3.4838
  119MOL   H17638172   4.549   0.412   2.750  1.8022  2.1706 -1.2319
  119MOL   H17738173   4.681   0.391   2.625  0.3517  0.5291  1.3966
  119MOL   C17838174   4.503   0.288   2.576 -0.1520  0.3066  0.3851
  119MOL   C17938175   4.395   0.386   2.534 -0.8101  0.1325  0.8122
  119MOL   C18038176   4.437   0.502   2.467 -0.9634 -0.4923 -0.3850
  119MOL   C18138177   4.342   0.593   2.412  0.2892 -0.2513 -0.4820
  119MOL   C18238178   4.202   0.570   2.428 -0.0155  0.1999  0.3603
  119MOL   F18338179   4.115   0.664   2.367 -0.0758  0.7743 -0.3650
  119MOL   C18438180   4.156   0.469   2.506  0.0187  0.1344 -0.1095
  119MOL   C18538181   4.251   0.368   2.553  0.0365 -0.3451 -0.1878
  119MOL   C18638182   4.584   0.227   2.455 -0.1197 -0.0471  0.2960
  119MOL   H18738183   4.449   0.206   2.622 -0.5154  0.4030  0.1297
  119MOL   H18838184   4.541   0.524   2.454 -1.0728  1.8064  2.2256
  119MOL   H18938185   4.369   0.679   2.352  1.4600 -1.2825 -1.4421
  119MOL   H19038186   4.048   0.467   2.515 -0.1367  2.1951 -1.2453
  119MOL   H19138187   4.212   0.280   2.602 -0.5164  1.6577  3.0481
  119MOL   H19238188   4.590   0.296   2.371  2.4540 -0.5467  0.0282
  119MOL   H19338189   4.688   0.227   2.487  0.5262  2.3731 -1.6056
  119MOL   C19438190   4.529   0.095   2.398 -0.5190  0.0104  0.4918
  119MOL   C19538191   4.590   0.059   2.260 -0.6772 -0.4430  0.0782
  119MOL   C19638192   4.501   0.016   2.156  0.6493  0.1976 -0.1438
  119MOL   C19738193   4.558   8.220   2.034  0.4684  0.1238 -0.1222
  119MOL   C19838194   4.699   8.217   2.014  0.3967  0.2979 -0.1123
  119MOL   F19938195   4.749   8.196   1.890 -0.2017 -0.0472 -0.1831
  119MOL   C20038196   4.783   0.008   2.122  0.2022  0.4070  1.0116
  119MOL   C20138197   4.729   0.051   2.246 -1.0308  0.5532  0.3923
  119MOL   C20238198   4.542   8.206   2.500  0.9688  0.0023  0.4387
  119MOL   H20338199   4.421   0.098   2.382 -0.2704  1.3646 -1.1177
  119MOL   H20438200   4.394   0.028   2.167  0.6194  0.6177 -0.8693
  119MOL   H20538201   4.494   8.208   1.949 -0.2692  0.8315  0.3237
  119MOL   H20638202   4.890   8.234   2.117  0.2065 -0.8722  2.6698
  119MOL   H20738203   4.796   0.077   2.327  4.1729 -0.2103 -3.3681
  119MOL   H20838204   4.649   8.195   2.515  0.4830 -1.6128  3.1936
  119MOL   H20938205   4.498   0.000   2.596 -0.6812  2.2317 -0.9304
  119MOL   C21038206   4.470   8.076   2.459 -0.2434 -0.2781  0.4682
  119MOL   C21138207   4.520   7.963   2.540 -0.1510 -0.5730  0.5700
  119MOL   C21238208   4.477   7.940   2.671  0.4168 -0.0806  0.1703
  119MOL   C21338209   4.516   7.827   2.744 -0.6715  0.3258 -0.3746
  119MOL   C21438210   4.598   7.736   2.679 -0.2230  0.1154  1.0610
  119MOL   F21538211   4.632   7.619   2.744  0.0085 -0.0335  0.1788
  119MOL   C21638212   4.662   7.757   2.551 -0.8075  0.4814 -0.3732
  119MOL   C21738213   4.620   7.872   2.483 -0.2080  0.2821  0.6374
  119MOL   C21838214   4.313   8.087   2.460 -0.4611 -0.7805  0.5469
  119MOL   H21938215   4.505   8.068   2.356 -0.4253  1.0256  0.3054
  119MOL   H22038216   4.408   8.009   2.717 -0.7596  1.7191 -4.0812
  119MOL   H22138217   4.484   7.794   2.841 -0.9826 -1.8222 -1.1952
  119MOL   H22238218   4.732   7.683   2.517 -1.0803  0.5682 -1.1300
  119MOL   H22338219   4.658   7.894   2.384  0.8777  0.1002  1.0112
  119MOL   H22438220   4.282   8.089   2.565  0.1432 -0.1780  0.7160
  119MOL   H22538221   4.270   8.172   2.408 -0.2609 -1.5435 -0.8807
  119MOL   C22638222   4.242   7.965   2.385  0.2839  0.7001 -0.3124
  119MOL   C22738223   4.107   7.944   2.438  0.6883  0.1031 -0.1098
  119MOL   C22838224   4.078   7.821   2.503  0.0013  0.4459 -0.2299
  119MOL   C22938225   3.954   7.794   2.554  0.0431  0.1880 -0.1233
  119MOL   C23038226   3.848   7.891   2.533 -0.3842  0.2988 -0.1196
  119MOL   F23138227   3.720   7.858   2.574 -0.2599 -0.2580 -0.0373
  119MOL   C23238228   3.876   8.018   2.474  0.2928  0.6221  0.7670
  119MOL   C23338229   4.004   8.043   2.425 -0.0123 -0.8870  0.1391
  119MOL   C23438230   4.252   7.964   2.234 -0.0785  0.3630  0.3804
  119MOL   H23538231   4.294   7.875   2.418 -1.3515 -0.1466  0.0073
  119MOL   H23638232   4.139   7.732   2.514 -1.4312 -0.3029  2.1706
  119MOL   H23738233   3.933   7.698   2.599  1.7032  0.5989  1.5889
  119MOL   H23838234   3.801   8.094   2.455  1.6982  1.7248 -0.4560
  119MOL   H23938235   4.023   8.134   2.369 -1.2087 -0.5262  0.3095
  119MOL   H24038236   4.213   8.060   2.202 -0.6411  0.0957  0.2634
  119MOL   H24138237   4.357   7.974   2.209 -0.2614  0.5878 -0.2927
  119MOL   C24238238   4.180   7.846   2.154  0.0183 -0.4100 -0.4775
  119MOL   C24338239   4.186   7.874   2.000  0.5607 -0.1517  0.1254
  119MOL   C24438240   4.304   7.850   1.925 -0.7488  0.3465  0.0162
  119MOL   C24538241   4.313   7.871   1.787  0.3965 -0.1784  0.3578
  119MOL   C24638242   4.191   7.902   1.714 -0.3301  0.9479  0.7162
  119MOL   F24738243   4.198   7.894   1.579  0.6042 -0.4671  0.0026
  119MOL   C24838244   4.071   7.934   1.788  0.1544  0.7744  0.7406
  119MOL   C24938245   4.070   7.918   1.927 -0.0707  0.4902  0.2595
  119MOL   C25038246   4.236   7.707   2.191  0.2044  0.3989  0.0720
  119MOL   H25138247   4.076   7.851   2.186  0.4806 -0.0787  1.0712
  119MOL   H25238248   4.393   7.836   1.984 -0.6577  1.6389  0.2057
  119MOL   H25338249   4.406   7.849   1.737 -0.5316 -2.1667 -0.5922
  119MOL   H25438250   3.977   7.949   1.737  0.7270  0.3903 -0.4531
  119MOL   H25538251   3.975   7.910   1.979 -1.2165  0.9005 -1.7301
  119MOL   H25638252   4.341   7.712   2.160 -0.3660  0.9599 -1.8330
  119MOL   H25738253   4.250   7.691   2.298  1.6490  0.1151 -0.1509
  119MOL   C25838254   4.201   7.577   2.120  0.5148 -0.2748 -0.2258
  119MOL   C25938255   4.308   7.468   2.136  0.2721 -0.0493 -0.4283
  119MOL   C26038256   4.340   7.421   2.269 -0.3453  1.2898  0.5149
  119MOL   C26138257   4.431   7.313   2.290  0.3291  0.0424  0.4632
  119MOL   C26238258   4.500   7.265   2.171 -0.1455  0.6950 -0.4560
  119MOL   F26338259   4.596   7.167   2.181 -0.4491  0.1937 -0.0541
  119MOL   C26438260   4.478   7.332   2.045  0.4134  0.2041 -0.2232
  119MOL   C26538261   4.378   7.435   2.023 -0.0931  0.2856 -0.0605
  119MOL   C26638262   4.062   7.529   2.167 -0.1899 -0.5297  0.4032
  119MOL   H26738263   4.199   7.596   2.013 -1.3403  4.5008  0.5195
  119MOL   H26838264   4.292   7.461   2.358 -2.1375 -0.8246  0.5467
  119MOL   H26938265   4.454   7.276   2.389  0.4939  0.8575  0.7330
  119MOL   H27038266   4.532   7.305   1.955 -0.0867 -2.0363  0.1310
  119MOL   H27138267   4.364   7.481   1.926 -0.5545 -0.1339 -0.2003
  119MOL   H27238268   4.069   7.427   2.206 -1.3791 -0.7463  0.0548
  119MOL   H27338269   4.031   7.583   2.256  2.0363 -2.7551  2.6353
  119MOL   C27438270   3.947   7.540   2.062  0.1599  0.3396  0.0166
  119MOL   C27538271   3.969   7.471   1.926 -1.1905  0.1537 -0.7752
  119MOL   C27638272   3.972   7.329   1.921 -0.2004 -0.4802  0.6230
  119MOL   C27738273   3.994   7.269   1.794 -0.0703  0.7843 -0.1404
  119MOL   C27838274   4.010   7.343   1.678  0.3438 -0.1816  0.0074
  119MOL   F27938275   4.021   7.279   1.562  0.5621  0.2035  0.2390
  119MOL   C28038276   4.010   7.489   1.691  0.0735  0.6348  0.7790
  119MOL   C28138277   3.987   7.550   1.813  0.5645  0.4693 -0.1884
  119MOL   C28238278   3.805   7.509   2.125  0.1225 -0.8303  0.1518
  119MOL   H28338279   3.948   7.647   2.038  0.3867 -0.1277 -2.2454
  119MOL   H28438280   3.969   7.267   2.009  2.9050  1.0082  1.8713
  119MOL   H28538281   4.014   7.163   1.792 -1.2439  0.5322  1.0057
  119MOL   H28638282   4.037   7.546   1.603 -1.3032 -0.4858 -0.4134
  119MOL   H28738283   3.976   7.658   1.816 -1.3036  0.3448 -1.8563
  119MOL   H28838284   3.749   7.474   2.039 -0.5852 -3.2558  1.5543
  119MOL   H28938285   3.811   7.423   2.192  0.3126 -0.8207  0.1490
  119MOL   C29038286   3.721   7.622   2.193 -0.6031 -0.5437  0.0456
  119MOL   C29138287   3.731   7.757   2.118 -0.2619  0.5605  0.2498
  119MOL   C29238288   3.740   7.878   2.191  0.6253 -0.2005  0.1460
  119MOL   C29338289   3.724   8.000   2.128  0.5406  0.1380 -0.1403
  119MOL   C29438290   3.693   8.009   1.992  0.5533 -0.3937 -0.0245
  119MOL   F29538291   3.654   8.124   1.931 -0.0757  0.0450 -0.8715
  119MOL   C29638292   3.683   7.893   1.919 -0.1394  0.2245 -0.0387
  119MOL   C29738293   3.703   7.765   1.984  0.2375 -1.1894  0.1168
  119MOL   C29838294   3.576   7.572   2.203  0.6191  0.3469 -0.3399
  119MOL   H29938295   3.756   7.631   2.297  0.4525 -2.4477 -0.1266
  119MOL   H30038296   3.754   7.880   2.298 -1.9388 -0.3293  0.5102
  119MOL   H30138297   3.720   8.093   2.183  1.4871 -0.6294  1.2471
  119MOL   H30238298   3.657   7.892   1.814  1.1296  1.9610 -0.3865
  119MOL   H30338299   3.689   7.679   1.919  0.5219 -0.4316 -0.9516
  119MOL   H30438300   3.516   7.652   2.247 -1.1957 -0.4177 -1.3520
  119MOL   H30538301   3.525   7.569   2.106 -1.2692 -0.3562  0.6457
  119MOL   C30638302   3.538   7.448   2.275 -0.1168  0.4118 -0.3387
  119MOL   C30738303   3.600   7.424   2.413 -0.1357 -0.2842  0.3697
  119MOL   C30838304   3.609   7.292   2.459 -0.4259 -0.5979  0.5827
  119MOL   C30938305   3.645   7.273   2.593 -1.3283  0.3231 -0.2898
  119MOL   C31038306   3.685   7.369   2.684 -0.1841  0.4749 -0.2338
  119MOL   F31138307   3.718   7.330   2.811  0.1900 -0.3642 -0.0721
  119MOL   C31238308   3.679   7.500   2.632 -0.5115 -0.7232 -0.0613
  119MOL   C31338309   3.634   7.528   2.505 -1.0587 -0.9373 -0.3793
  119MOL   C31438310   3.387   7.435   2.278  0.1431 -0.2980 -0.3674
  119MOL   H31538311   3.574   7.365   2.215 -0.7508 -0.5383  0.5671
  119MOL   H31638312   3.590   7.206   2.397 -1.2994 -0.8049  1.1356
  119MOL   H31738313   3.651   7.173   2.633 -1.8794 -0.3707 -1.9037
  119MOL   H31838314   3.707   7.581   2.697 -0.9429  1.4882 -2.5186
  119MOL   H31938315   3.630   7.631   2.472  2.2406 -0.8290 -0.6538
  119MOL   H32038316   3.343   7.506   2.348  1.2411  0.8137 -0.7869
  119MOL   H32138317   3.340   7.461   2.183  2.1272  1.5583 -0.8632
  119MOL   H32238318   3.349   7.335   2.301 -0.1365 -0.3263 -0.9253
  120MOL     C138319   4.173   1.421   1.324 -0.3555 -0.0852  0.6913
  120MOL     C238320   4.038   1.353   1.371 -0.3470  0.4207 -0.9696
  120MOL     C338321   3.928   1.429   1.415 -0.6158 -0.2852 -0.0834
  120MOL     C438322   3.809   1.371   1.470  0.4167 -0.2477 -0.2607
  120MOL     C538323   3.803   1.230   1.475  0.2861 -0.1578  0.5193
  120MOL     F638324   3.689   1.170   1.521 -0.2118 -0.0830  0.2360
  120MOL     C738325   3.906   1.151   1.428 -0.3160  0.3024 -0.3632
  120MOL     C838326   4.022   1.209   1.368  0.1171  0.0405  0.5327
  120MOL     C938327   4.193   1.445   1.172  0.0502 -0.1949  0.6027
  120MOL    H1038328   4.254   1.352   1.346 -0.3347  0.2428  1.6772
  120MOL    H1138329   3.926   1.537   1.409 -2.4903 -0.1543  2.3429
  120MOL    H1238330   3.732   1.436   1.509 -2.5065 -2.5983 -1.8773
  120MOL    H1338331   3.898   1.044   1.427 -1.3187  0.3765 -1.1233
  120MOL    H1438332   4.105   1.147   1.337  0.8561  0.8553  0.8572
  120MOL    H1538333   4.296   1.480   1.165 -0.7505  1.7041 -2.9043
  120MOL    H1638334   4.192   1.356   1.108 -4.2310  0.8017 -0.9157
  120MOL    H1738335   4.192   1.514   1.378 -1.7345 -0.2731  1.5165
  120MOL    C1838336   4.088   1.551   1.116 -0.3054 -0.0584  0.0679
  120MOL    C1938337   4.088   1.684   1.194 -0.1882 -0.4265 -0.0211
  120MOL    C2038338   4.209   1.748   1.239  0.5515 -0.1277 -0.1512
  120MOL    C2138339   4.209   1.877   1.303 -0.0785  0.0465 -0.2441
  120MOL    C2238340   4.084   1.942   1.323 -0.2756  0.4591  0.0026
  120MOL    F2338341   4.078   2.059   1.391 -0.2638  0.7223 -0.0083
  120MOL    C2438342   3.965   1.885   1.283 -0.3898  0.1510  0.0251
  120MOL    C2538343   3.965   1.762   1.214 -0.6757  0.3318 -0.1693
  120MOL    C2638344   4.098   1.593   0.965 -0.3188 -0.2471 -0.2582
  120MOL    H2738345   3.986   1.514   1.124 -0.0347 -0.9799 -0.6528
  120MOL    H2838346   4.300   1.691   1.245 -0.6949 -2.0305  1.4537
  120MOL    H2938347   4.295   1.917   1.355  1.1103 -0.3819 -1.8360
  120MOL    H3038348   3.873   1.940   1.299  0.1867  0.8352  1.0413
  120MOL    H3138349   3.869   1.722   1.182 -0.8723 -1.3256  2.3759
  120MOL    H3238350   4.043   1.685   0.945  1.0399  0.2299 -2.0061
  120MOL    H3338351   4.199   1.619   0.934 -0.4961 -0.1628 -0.7749
  120MOL    C3438352   4.050   1.483   0.869 -0.5803  0.6295  0.5631
  120MOL    C3538353   3.901   1.477   0.849  0.0622  0.3065 -0.3251
  120MOL    C3638354   3.836   1.570   0.764 -0.0228  0.1114  0.4315
  120MOL    C3738355   3.696   1.558   0.743  0.1530  0.2206  0.0540
  120MOL    C3838356   3.623   1.444   0.788 -0.2954 -0.0280 -0.4567
  120MOL    F3938357   3.492   1.441   0.757  0.1380  0.3206  0.1328
  120MOL    C4038358   3.686   1.349   0.870 -0.2617 -0.3109 -0.3863
  120MOL    C4138359   3.825   1.368   0.899 -0.4766  0.7098  0.6555
  120MOL    C4238360   4.118   1.497   0.736 -0.0158 -0.7535  0.0532
  120MOL    H4338361   4.074   1.382   0.904 -1.7386 -0.4000 -1.5730
  120MOL    H4438362   3.891   1.652   0.720 -1.8839 -0.1566 -2.5736
  120MOL    H4538363   3.645   1.631   0.682  0.0280 -0.4347 -0.6296
  120MOL    H4638364   3.630   1.260   0.898 -0.7735 -0.1114 -0.7677
  120MOL    H4738365   3.868   1.291   0.960 -0.1561  0.2225 -0.1690
  120MOL    H4838366   4.096   1.590   0.685 -3.6871 -0.1547  2.5280
  120MOL    H4938367   4.226   1.492   0.751  0.0146  1.9649  1.0349
  120MOL    C5038368   4.094   1.371   0.644  0.5894 -0.2211  0.1697
  120MOL    C5138369   4.025   1.420   0.520 -0.3085  0.7647 -0.2973
  120MOL    C5238370   3.884   1.379   0.506 -0.6935 -0.2089 -0.5608
  120MOL    C5338371   3.805   1.420   0.406  0.1858 -0.1663  0.3995
  120MOL    C5438372   3.860   1.510   0.310  0.5282 -0.2689 -1.1550
  120MOL    F5538373   3.787   1.550   0.209  0.7613 -0.0335 -0.3542
  120MOL    C5638374   4.001   1.546   0.315  0.0509 -0.0420  0.1488
  120MOL    C5738375   4.084   1.498   0.419 -0.0994  0.4484  0.5075
  120MOL    C5838376   4.231   1.295   0.614 -0.0410  0.3946 -0.1653
  120MOL    H5938377   4.031   1.298   0.694  2.2194 -2.0177 -0.2891
  120MOL    H6038378   3.835   1.339   0.593 -0.8285 -1.7605 -1.3313
  120MOL    H6138379   3.700   1.394   0.403 -0.0028  0.4644  1.4695
  120MOL    H6238380   4.041   1.611   0.238 -1.6358 -1.2236 -1.7716
  120MOL    H6338381   4.189   1.525   0.414 -0.8979  3.6558  0.3612
  120MOL    H6438382   4.295   1.354   0.550  3.4306  0.7050  3.4082
  120MOL    H6538383   4.286   1.289   0.708 -0.5908  1.6032  0.2438
  120MOL    C6638384   4.209   1.155   0.556  0.5788 -0.2194  0.1097
  120MOL    C6738385   4.219   1.158   0.405  0.1068  0.8376  0.1787
  120MOL    C6838386   4.334   1.149   0.327 -0.1166 -1.0215 -0.0705
  120MOL    C6938387   4.332   1.117   0.194  0.0871  0.4638  0.2243
  120MOL    C7038388   4.205   1.105   0.131  0.0521  0.1906 -0.5025
  120MOL    F7138389   4.200   1.090   8.233 -0.2666  0.5595  0.8211
  120MOL    C7238390   4.088   1.123   0.205 -0.0126  0.6950 -0.0142
  120MOL    C7338391   4.097   1.146   0.340 -0.0688  0.6455 -0.4207
  120MOL    C7438392   4.310   1.057   0.627 -0.0600  0.2406  0.1286
  120MOL    H7538393   4.108   1.123   0.581  0.5097 -1.6079 -1.7709
  120MOL    H7638394   4.427   1.153   0.383  0.6101 -3.0675 -1.0774
  120MOL    H7738395   4.426   1.104   0.142 -0.4761  1.6603 -1.1172
  120MOL    H7838396   3.991   1.113   0.159  0.0249  1.0031 -0.1553
  120MOL    H7938397   4.007   1.145   0.400 -0.1169 -1.0682 -0.4801
  120MOL    H8038398   4.411   1.076   0.589 -0.1752  2.7431  0.9803
  120MOL    H8138399   4.324   1.088   0.730 -1.7897  0.7749  0.2031
  120MOL    C8238400   4.280   0.911   0.617 -0.5980  0.4888  1.1436
  120MOL    C8338401   4.342   0.854   0.485 -0.2471  0.8078  0.4661
  120MOL    C8438402   4.485   0.861   0.462 -0.1562  0.0874 -0.3634
  120MOL    C8538403   4.536   0.794   0.344  0.2317 -0.7234 -0.1078
  120MOL    C8638404   4.449   0.742   0.247  0.2550 -0.3163 -0.4651
  120MOL    F8738405   4.500   0.687   0.131 -0.6132 -0.2284 -0.1122
  120MOL    C8838406   4.313   0.734   0.271 -0.3744 -0.3504 -0.5787
  120MOL    C8938407   4.259   0.790   0.388  0.2126 -0.7988  0.7613
  120MOL    C9038408   4.316   0.829   0.744  0.0894 -0.8180 -0.2920
  120MOL    H9138409   4.172   0.910   0.601 -0.8248  3.6763  2.2270
  120MOL    H9238410   4.552   0.915   0.528 -0.1476 -0.3679  0.0030
  120MOL    H9338411   4.642   0.793   0.327  0.0958  0.2774 -1.0688
  120MOL    H9438412   4.259   0.674   0.200 -0.7220 -0.4496 -0.2330
  120MOL    H9538413   4.153   0.786   0.407 -0.1928  2.2219 -0.6543
  120MOL    H9638414   4.425   0.828   0.746  0.1524  0.3220 -1.8325
  120MOL    H9738415   4.287   0.890   0.830  1.2120  1.5932 -1.5752
  120MOL    C9838416   4.275   0.678   0.751  0.1573  0.8143  0.5303
  120MOL    C9938417   4.351   0.592   0.860  0.4167  0.3312  0.0115
  120MOL   C10038418   4.397   0.467   0.812  0.1880 -0.8979 -0.2326
  120MOL   C10138419   4.451   0.378   0.902  0.4581 -0.6369 -0.5153
  120MOL   C10238420   4.459   0.413   1.043 -0.1751 -0.5554 -0.0860
  120MOL   F10338421   4.498   0.323   1.134 -0.0388 -0.8015 -0.2405
  120MOL   C10438422   4.413   0.540   1.088 -1.0978  0.0509 -0.1634
  120MOL   C10538423   4.362   0.625   0.992 -0.1107 -0.8589  0.1114
  120MOL   C10638424   4.119   0.653   0.736 -0.3421  0.3333  0.0812
  120MOL   H10738425   4.317   0.650   0.655  0.3205  0.5140  0.6902
  120MOL   H10838426   4.388   0.444   0.707  0.9557 -1.5364 -0.1630
  120MOL   H10938427   4.484   0.281   0.868  2.2044 -0.7762  1.4632
  120MOL   H11038428   4.406   0.570   1.191  0.2677  1.4122 -0.4660
  120MOL   H11138429   4.331   0.714   1.045 -0.9467 -1.4870  0.6873
  120MOL   H11238430   4.086   0.659   0.839 -0.3669 -0.5577  0.1309
  120MOL   H11338431   4.068   0.732   0.679 -2.1574 -1.4305 -0.8239
  120MOL   C11438432   4.081   0.512   0.676  0.1277  0.6284 -0.4688
  120MOL   C11538433   3.927   0.482   0.677  0.5514 -0.3083  0.0073
  120MOL   C11638434   3.842   0.576   0.624  0.0364  0.1175  0.3539
  120MOL   C11738435   3.705   0.566   0.618 -0.2833  0.1383  0.4226
  120MOL   C11838436   3.644   0.444   0.664 -0.7414 -0.5779 -0.1288
  120MOL   F11938437   3.512   0.428   0.666  0.0274 -0.2852  0.2024
  120MOL   C12038438   3.728   0.343   0.715  0.1883  0.2340 -0.8920
  120MOL   C12138439   3.868   0.359   0.712  0.1219 -0.1432  0.2030
  120MOL   C12238440   4.148   0.479   0.535  0.3097  0.4584  0.3722
  120MOL   H12338441   4.127   0.445   0.749  1.3212 -0.0744 -1.8373
  120MOL   H12438442   3.893   0.668   0.597 -0.3207 -0.9716 -4.5655
  120MOL   H12538443   3.640   0.644   0.582 -0.7424 -1.5278 -2.5188
  120MOL   H12638444   3.691   0.252   0.760  0.4101  0.2163 -0.7427
  120MOL   H12738445   3.934   0.282   0.749  0.9267  1.1837  1.5906
  120MOL   H12838446   4.110   0.547   0.458 -1.3368 -0.3033  0.5060
  120MOL   H12938447   4.257   0.480   0.544  0.4721 -0.4294 -1.4015
  120MOL   C13038448   4.125   0.339   0.465  0.1921  0.0568 -0.1652
  120MOL   C13138449   4.193   0.335   0.326 -0.1893 -0.1087  0.2993
  120MOL   C13238450   4.332   0.338   0.304  0.1517  0.1135 -0.2006
  120MOL   C13338451   4.376   0.355   0.172 -0.2579  0.9443 -0.1752
  120MOL   C13438452   4.292   0.337   0.065 -0.0635  0.1653 -0.1293
  120MOL   F13538453   4.340   0.327   8.171  0.3444 -0.5840 -0.5180
  120MOL   C13638454   4.157   0.313   0.085 -0.6926  0.3647  0.1743
  120MOL   C13738455   4.110   0.318   0.217 -0.0832 -0.0944  0.2126
  120MOL   C13838456   4.179   0.224   0.550  0.4891  0.2173  0.5859
  120MOL   H13938457   4.018   0.323   0.456  0.2566 -0.2777 -0.3688
  120MOL   H14038458   4.400   0.339   0.388  0.5274 -0.7495 -0.4802
  120MOL   H14138459   4.482   0.378   0.165 -0.4792  2.2785  0.7340
  120MOL   H14238460   4.094   0.309   8.233  1.5614  2.6863 -1.6601
  120MOL   H14338461   4.002   0.316   0.223 -0.0797 -1.1384 -0.0488
  120MOL   H14438462   4.285   0.237   0.533  0.5999 -0.8271  0.4708
  120MOL   H14538463   4.162   0.242   0.656  1.8463 -0.2555  0.8898
  120MOL   C14638464   4.122   0.076   0.521  0.2708 -0.0433  0.0908
  120MOL   C14738465   4.163   0.024   0.388  0.2314  0.1169 -0.0343
  120MOL   C14838466   4.298   8.229   0.359  0.1737  0.1942  0.3351
  120MOL   C14938467   4.331   8.172   0.232 -1.2232 -0.0737  0.2101
  120MOL   C15038468   4.230   8.149   0.134  0.7179 -0.7796 -0.4377
  120MOL   F15138469   4.255   8.096   0.011  0.1729 -0.5542 -0.4832
  120MOL   C15238470   4.096   8.181   0.165 -0.3990 -0.8587 -0.1901
  120MOL   C15338471   4.059   8.234   0.291  0.8380 -0.6849 -0.1224
  120MOL   C15438472   4.129   8.205   0.627  0.4580  0.6346  0.3869
  120MOL   H15538473   4.013   0.085   0.516  0.1816 -2.2551 -3.5125
  120MOL   H15638474   4.377   0.017   0.429  1.0171  0.1392 -0.5967
  120MOL   H15738475   4.435   8.149   0.215 -0.4099  0.7242  3.7402
  120MOL   H15838476   4.023   8.165   0.086 -1.9682 -2.3462  1.5011
  120MOL   H15938477   3.955   0.018   0.314  0.5979 -0.4074 -1.3885
  120MOL   H16038478   4.155   8.107   0.587  0.6925  0.3648  1.2024
  120MOL   H16138479   4.208   0.007   0.693  2.0055 -1.3626 -0.3304
  120MOL   C16238480   3.998   8.171   0.709 -0.6399 -0.2104  0.3070
  120MOL   C16338481   3.891   8.112   0.621 -0.7287 -0.2537  0.0043
  120MOL   C16438482   3.902   7.980   0.578  0.5848  0.4568  0.2549
  120MOL   C16538483   3.809   7.922   0.492  1.4502 -0.0620  0.1876
  120MOL   C16638484   3.702   7.999   0.448  0.2186 -0.3759 -0.1587
  120MOL   F16738485   3.618   7.947   0.360  0.0225 -0.0399  0.1777
  120MOL   C16838486   3.683   8.131   0.485  0.1845 -0.0443  0.1977
  120MOL   C16938487   3.781   8.187   0.569 -0.0703 -0.2598  0.3552
  120MOL   C17038488   4.019   8.085   0.836  0.1538 -0.0879  0.0664
  120MOL   H17138489   3.958   0.029   0.752  2.7153  0.5299  1.9768
  120MOL   H17238490   3.982   7.919   0.618 -1.1947 -1.7189  0.6276
  120MOL   H17338491   3.820   7.822   0.453  0.4602 -0.1537  0.1166
  120MOL   H17438492   3.605   8.187   0.435  0.0366 -0.6376 -0.2434
  120MOL   H17538493   3.774   0.058   0.591  1.7833 -0.4778  2.1506
  120MOL   H17638494   3.926   8.044   0.878  0.4426 -2.7478 -1.7391
  120MOL   H17738495   4.077   8.000   0.798 -3.2645 -2.5832  0.1388
  120MOL   C17838496   4.098   8.140   0.961  0.4169 -0.6492 -0.6549
  120MOL   C17938497   4.058   0.048   0.989 -0.0743  0.1479 -0.0595
  120MOL   C18038498   3.928   0.083   1.027 -0.2435  0.4227  0.1389
  120MOL   C18138499   3.884   0.217   1.053 -0.0625 -0.0174 -0.5033
  120MOL   C18238500   3.975   0.326   1.034  0.0122  0.3489 -0.9621
  120MOL   F18338501   3.947   0.459   1.065 -0.2248 -0.0079  0.5635
  120MOL   C18438502   4.104   0.290   0.984 -0.0586  0.0777 -0.2563
  120MOL   C18538503   4.141   0.157   0.966  0.6690 -0.8585  0.1482
  120MOL   C18638504   4.077   8.042   1.077  0.6632 -0.3196  0.0597
  120MOL   H18738505   4.206   8.134   0.946  0.6958 -1.9604  1.5474
  120MOL   H18838506   3.857   0.003   1.037 -1.1603  1.4472  1.9272
  120MOL   H18938507   3.783   0.242   1.083 -0.1097 -0.0971 -0.5954
  120MOL   H19038508   4.177   0.369   0.971 -0.2338  0.8732  3.0198
  120MOL   H19138509   4.238   0.133   0.924  0.8693 -1.4057  0.9253
  120MOL   H19238510   3.970   8.021   1.079  0.0365  2.6912 -0.2401
  120MOL   H19338511   4.120   7.945   1.051 -0.5058 -1.1673  1.2028
  120MOL   C19438512   4.098   8.087   1.219  0.6649  0.1196  0.4913
  120MOL   C19538513   4.023   7.993   1.309  0.0835 -0.1392  0.3685
  120MOL   C19638514   4.049   7.859   1.308 -0.7168 -0.1681 -0.0773
  120MOL   C19738515   3.977   7.772   1.389  0.2927  0.6274  0.6828
  120MOL   C19838516   3.872   7.823   1.470  0.3364 -0.6005  0.1858
  120MOL   F19938517   3.792   7.745   1.546 -0.3330 -0.2295 -0.1482
  120MOL   C20038518   3.843   7.962   1.472 -0.5780 -0.1588  0.0140
  120MOL   C20138519   3.921   8.046   1.387 -1.3808 -0.2252  0.1387
  120MOL   C20238520   4.241   8.114   1.247 -0.3470 -0.3664 -0.6594
  120MOL   H20338521   4.046   8.182   1.227 -0.7329 -0.8273  2.9517
  120MOL   H20438522   4.137   7.821   1.259  0.4711  0.3149  1.6215
  120MOL   H20538523   3.993   7.666   1.394 -1.4459  0.3279  0.2719
  120MOL   H20638524   3.760   8.000   1.529 -0.4866  1.6070 -0.9733
  120MOL   H20738525   3.891   8.149   1.378 -2.4409 -0.6688 -1.5639
  120MOL   H20838526   4.292   8.019   1.263  0.5524  0.4202  1.3135
  120MOL   H20938527   4.278   8.174   1.165 -3.3642 -0.2180 -1.9773
  120MOL   C21038528   4.281   8.210   1.371 -0.2679 -0.6962 -0.3028
  120MOL   C21138529   4.429   8.211   1.405 -0.6735 -0.2600 -0.4707
  120MOL   C21238530   4.468   8.175   1.536 -0.2306  0.4016 -0.4572
  120MOL   C21338531   4.605   8.166   1.561  0.3973 -0.2389 -0.8451
  120MOL   C21438532   4.698   8.178   1.458  0.0397 -0.4384  0.1104
  120MOL   F21538533   4.828   8.165   1.488  0.0132  0.5757  0.3004
  120MOL   C21638534   4.659   8.221   1.335 -0.5652 -0.2085  0.8336
  120MOL   C21738535   4.522   0.010   1.308 -0.5078 -0.2174 -1.2740
  120MOL   C21838536   4.229   0.123   1.357  0.0988 -0.1741  0.5083
  120MOL   H21938537   4.228   8.157   1.450 -2.4271  0.8987 -0.6516
  120MOL   H22038538   4.396   8.149   1.613  0.3987 -2.5700 -0.7979
  120MOL   H22138539   4.648   8.149   1.659  0.1576  1.4474 -0.4405
  120MOL   H22238540   4.730   0.008   1.257 -0.5917  2.0924  1.4048
  120MOL   H22338541   4.497   0.040   1.207  0.2915  0.6396 -1.2229
  120MOL   H22438542   4.297   0.193   1.406  0.2626  0.1719 -0.2091
  120MOL   H22538543   4.216   0.157   1.255 -0.9940 -1.1644  0.3069
  120MOL   C22638544   4.094   0.146   1.439  0.4752  0.1743 -0.4468
  120MOL   C22738545   4.115   0.125   1.589  0.1677 -0.3741 -0.6625
  120MOL   C22838546   4.035   0.036   1.664  0.3490  0.3152 -0.1669
  120MOL   C22938547   4.062   0.023   1.796 -0.3223 -0.4484  0.3248
  120MOL   C23038548   4.166   0.092   1.864  0.1781  0.1817 -0.2807
  120MOL   F23138549   4.191   0.064   1.992  0.1005  0.0234 -0.3056
  120MOL   C23238550   4.248   0.175   1.795 -0.6862  0.5599  0.9753
  120MOL   C23338551   4.223   0.195   1.653 -1.4685 -0.0364 -0.1744
  120MOL   C23438552   4.020   0.279   1.399 -0.0641 -0.4653  0.2080
  120MOL   H23538553   4.017   0.074   1.412 -1.5778  1.8144  0.9245
  120MOL   H23638554   3.959   8.216   1.612  1.9845 -1.9724 -0.2468
  120MOL   H23738555   3.995   8.190   1.848 -1.6846 -0.0947 -0.9132
  120MOL   H23838556   4.320   0.241   1.843 -0.8917  0.8948  0.8267
  120MOL   H23938557   4.284   0.270   1.606  0.1798 -0.9013  0.5527
  120MOL   H24038558   4.090   0.356   1.433 -0.7451  0.0214  0.5264
  120MOL   H24138559   4.004   0.296   1.293  2.3481  2.0533  0.1732
  120MOL   C24238560   3.882   0.293   1.473  0.6455 -0.3163 -0.1557
  120MOL   C24338561   3.842   0.440   1.495  0.2689  0.0308 -0.2167
  120MOL   C24438562   3.782   0.522   1.394  0.5113 -0.9360  0.2826
  120MOL   C24538563   3.756   0.656   1.418 -0.1671  0.4941  0.3007
  120MOL   C24638564   3.784   0.706   1.552 -0.7773  0.0740 -0.2263
  120MOL   F24738565   3.745   0.826   1.594 -0.7045 -0.2405 -0.9460
  120MOL   C24838566   3.851   0.626   1.648  0.0449  0.2745 -0.5700
  120MOL   C24938567   3.877   0.495   1.620 -0.1357 -0.2930 -0.2127
  120MOL   C25038568   3.764   0.198   1.431 -0.5065 -0.0982  0.3179
  120MOL   H25138569   3.908   0.257   1.573  3.5943  0.4284 -0.6119
  120MOL   H25238570   3.749   0.486   1.298  0.6276  0.3027 -0.2210
  120MOL   H25338571   3.720   0.731   1.350 -2.5854 -0.6777  0.2351
  120MOL   H25438572   3.881   0.668   1.742 -0.9115  0.8473 -0.5211
  120MOL   H25538573   3.922   0.433   1.696  1.8855 -0.4513 -1.5075
  120MOL   H25638574   3.701   0.261   1.369  0.2701  0.6116  0.2333
  120MOL   H25738575   3.785   0.130   1.349  0.8175  2.5108 -1.5817
  120MOL   C25838576   3.697   0.116   1.535 -0.0760 -0.0928 -0.2247
  120MOL   C25938577   3.670   0.189   1.661  0.1192 -0.0521 -0.0382
  120MOL   C26038578   3.601   0.312   1.665 -0.9614 -0.3253  0.0107
  120MOL   C26138579   3.595   0.389   1.785 -0.1239 -0.2567  0.0792
  120MOL   C26238580   3.638   0.326   1.905  0.2631  0.2649 -0.4076
  120MOL   F26338581   3.629   0.389   2.027  0.0993  0.2574  0.0579
  120MOL   C26438582   3.705   0.203   1.906 -0.1293 -0.8933  0.2668
  120MOL   C26538583   3.720   0.139   1.782  0.9828 -0.4204 -0.1456
  120MOL   C26638584   3.573   0.022   1.486  0.6110 -0.3103  0.3073
  120MOL   H26738585   3.766   0.039   1.568  0.0473  0.0491 -0.1536
  120MOL   H26838586   3.554   0.357   1.579  0.8252 -1.3555 -1.5695
  120MOL   H26938587   3.542   0.483   1.784  0.5040  0.1112  0.8913
  120MOL   H27038588   3.756   0.156   1.989 -2.5676 -1.0243  1.7237
  120MOL   H27138589   3.770   0.043   1.786  0.4325 -0.6696  1.0015
  120MOL   H27238590   3.612   8.208   1.396  2.8431  1.6683  0.1281
  120MOL   H27338591   3.545   8.190   1.567 -3.6716 -1.7317 -2.1860
  120MOL   C27438592   3.442   0.084   1.441 -0.2425  0.1565 -0.1598
  120MOL   C27538593   3.458   0.172   1.319  0.3082  0.2783  0.0266
  120MOL   C27638594   3.488   0.125   1.189  0.0121 -0.5366 -0.2750
  120MOL   C27738595   3.506   0.212   1.079  0.8377  0.5910 -0.5831
  120MOL   C27838596   3.485   0.351   1.094  0.7474  0.2637  0.1914
  120MOL   F27938597   3.486   0.434   0.985  0.1184  0.0475  0.2845
  120MOL   C28038598   3.456   0.399   1.224 -0.0963 -0.8951  0.1441
  120MOL   C28138599   3.446   0.313   1.336  0.1249  0.0693 -0.2888
  120MOL   C28238600   3.329   8.218   1.412  0.3596  0.1470  0.0137
  120MOL   H28338601   3.406   0.148   1.522  0.0017 -0.7561  0.6689
  120MOL   H28438602   3.494   0.020   1.163  0.4078 -0.0785 -2.1393
  120MOL   H28538603   3.534   0.172   0.983  0.9341 -1.1678  0.1457
  120MOL   H28638604   3.453   0.505   1.242  0.0687 -0.8486 -0.1004
  120MOL   H28738605   3.417   0.345   1.435 -0.3802  1.9125 -1.0166
  120MOL   H28838606   3.257   0.041   1.354  0.9260 -0.1634 -1.0150
  120MOL   H28938607   3.357   8.159   1.325 -1.1588 -1.7752  0.7958
  120MOL   C29038608   3.268   8.135   1.526 -0.3277  0.0079  0.0753
  120MOL   C29138609   3.282   8.206   1.665  0.4752  0.4202 -0.1228
  120MOL   C29238610   3.340   8.138   1.777  0.1669 -0.6506  0.8875
  120MOL   C29338611   3.356   8.219   1.894 -0.0153  0.1297 -0.3400
  120MOL   C29438612   3.310   0.117   1.906  0.7954  0.4335 -0.0059
  120MOL   F29538613   3.325   0.188   2.018  0.3235 -0.4070 -0.0326
  120MOL   C29638614   3.234   0.172   1.800  0.3183 -0.2319  1.2408
  120MOL   C29738615   3.219   0.101   1.678 -0.5678  0.4480  0.3113
  120MOL   C29838616   3.126   8.086   1.496  0.4745  0.6971 -0.2957
  120MOL   H29938617   3.343   8.055   1.524  0.4278  0.7143 -0.6101
  120MOL   H30038618   3.391   8.043   1.768  0.1941 -0.5751  0.2349
  120MOL   H30138619   3.409   8.178   1.979 -1.2205 -0.0345  0.3301
  120MOL   H30238620   3.195   0.272   1.814 -0.0764 -0.4886  2.0038
  120MOL   H30338621   3.158   0.136   1.596 -0.5176 -1.7374 -0.6891
  120MOL   H30438622   3.087   8.041   1.587  2.2170  0.6426  0.4289
  120MOL   H30538623   3.066   8.175   1.483 -1.3568 -0.6088 -1.0555
  120MOL   C30638624   3.114   8.001   1.370 -0.5375 -0.3259  0.4855
  120MOL   C30738625   3.161   7.855   1.398  0.3538 -0.3627 -0.6641
  120MOL   C30838626   3.090   7.775   1.484  0.0101  0.3927 -0.4098
  120MOL   C30938627   3.122   7.639   1.491  0.4315 -0.8925 -0.3529
  120MOL   C31038628   3.220   7.578   1.418  0.2834  0.1346 -0.1101
  120MOL   F31138629   3.238   7.443   1.421 -0.4050 -0.0292  0.3256
  120MOL   C31238630   3.293   7.660   1.327  0.1982 -0.1288 -0.0254
  120MOL   C31338631   3.261   7.801   1.315  0.4362 -0.4714  0.0419
  120MOL   C31438632   2.964   8.004   1.327 -0.5493 -0.7767 -0.5825
  120MOL   H31538633   3.172   8.043   1.288  0.3935 -0.2692  1.1587
  120MOL   H31638634   3.008   7.817   1.541 -0.8424 -1.8865  0.0949
  120MOL   H31738635   3.056   7.574   1.548  0.6766 -1.8132 -1.0989
  120MOL   H31838636   3.371   7.615   1.267  0.5219  0.2687  0.0946
  120MOL   H31938637   3.313   7.869   1.249  0.1104 -0.0965  0.1696
  120MOL   H32038638   2.898   7.956   1.398 -0.3014  0.1142  0.2633
  120MOL   H32138639   2.923   8.104   1.312 -3.2168 -1.8792 -0.9544
  120MOL   H32238640   2.944   7.953   1.232  0.8429 -3.8084  0.6982
  121MOL     C138641   7.218   7.662   7.454  0.0851 -0.4485 -0.3537
  121MOL     C238642   7.325   7.554   7.420  0.0901 -0.1671 -0.2532
  121MOL     C338643   7.353   7.546   7.283 -0.1387 -0.2327 -0.2344
  121MOL     C438644   7.442   7.445   7.238 -0.2988  0.2941  0.4853
  121MOL     C538645   7.483   7.345   7.328  0.7741 -0.8636 -0.4450
  121MOL     F638646   7.563   7.240   7.281  0.1199  0.6767  0.8635
  121MOL     C738647   7.458   7.365   7.468 -0.4094 -0.0373 -0.2542
  121MOL     C838648   7.381   7.469   7.513  0.2069 -0.6382  0.6130
  121MOL     C938649   7.266   7.808   7.424  0.0945 -0.1620 -0.0442
  121MOL    H1038650   7.189   7.648   7.558 -2.2892  0.5539 -0.8702
  121MOL    H1138651   7.314   7.617   7.211  0.2229  0.5732  0.3630
  121MOL    H1238652   7.462   7.441   7.132  1.2995  0.2791  0.7713
  121MOL    H1338653   7.502   7.290   7.533  1.7787 -0.4568 -2.1731
  121MOL    H1438654   7.362   7.475   7.619 -1.9556  0.8600  0.1773
  121MOL    H1538655   7.362   7.820   7.474 -0.8506 -0.1713  1.7951
  121MOL    H1638656   7.300   7.817   7.321 -0.9978 -1.2914 -0.5236
  121MOL    H1738657   7.126   7.655   7.397 -0.9777  3.2956  0.7555
  121MOL    C1838658   7.157   7.910   7.448 -0.3032  0.1516  0.0315
  121MOL    C1938659   7.120   7.923   7.601  0.1923 -0.2746  0.3797
  121MOL    C2038660   7.211   7.983   7.686  0.3368  0.1182  0.3842
  121MOL    C2138661   7.189   7.999   7.822  0.1748  0.0318  0.4238
  121MOL    C2238662   7.074   7.951   7.880  0.2970  0.1374 -0.2903
  121MOL    F2338663   7.048   7.959   8.013 -0.6112 -0.3094 -0.0597
  121MOL    C2438664   6.983   7.886   7.789 -0.6305 -0.2382 -0.3292
  121MOL    C2538665   7.000   7.872   7.653 -0.2822  0.1116  0.2060
  121MOL    C2638666   7.184   8.045   7.379  0.0335  0.4684 -0.5748
  121MOL    H2738667   7.069   7.877   7.393 -0.0143 -0.1326 -0.2589
  121MOL    H2838668   7.301   8.015   7.636  0.1935 -1.4938 -0.9059
  121MOL    H2938669   7.272   8.043   7.875 -0.5836  0.7932  1.0041
  121MOL    H3038670   6.886   7.844   7.811 -1.6016 -0.4104 -4.4234
  121MOL    H3138671   6.934   7.816   7.589  2.0891 -0.7653 -1.5764
  121MOL    H3238672   7.088   8.095   7.392 -1.0122 -1.1367 -1.8767
  121MOL    H3338673   7.266   8.096   7.429  0.3751 -1.1503  0.5837
  121MOL    C3438674   7.225   8.041   7.232  0.3574  0.0866 -0.0974
  121MOL    C3538675   7.137   7.952   7.151 -0.0982  0.0166  0.4920
  121MOL    C3638676   7.191   7.837   7.084  0.0391  0.2100 -0.5997
  121MOL    C3738677   7.109   7.747   7.013 -0.3473  0.0896 -0.2918
  121MOL    C3838678   6.973   7.770   7.001  0.0392 -0.0770  0.2939
  121MOL    F3938679   6.887   7.691   6.923 -0.2036  0.0436 -0.2482
  121MOL    C4038680   6.922   7.894   7.058  0.3510  0.0155  0.1021
  121MOL    C4138681   6.999   7.979   7.135  0.0568 -0.2900 -0.1208
  121MOL    C4238682   7.241   8.179   7.167  0.5288  0.2011  0.2187
  121MOL    H4338683   7.327   8.003   7.221  0.5639  0.7592 -0.4977
  121MOL    H4438684   7.292   7.808   7.107 -0.4018 -2.5075 -1.9229
  121MOL    H4538685   7.149   7.655   6.973  1.1824  1.2975 -1.6307
  121MOL    H4638686   6.819   7.920   7.042  0.6090  1.5594  0.8167
  121MOL    H4738687   6.960   8.068   7.183 -0.1147 -1.1206  1.2926
  121MOL    H4838688   7.147   8.233   7.178 -0.4569 -1.7967  1.8509
  121MOL    H4938689   7.313   0.004   7.223  0.6688  1.3485 -1.1496
  121MOL    C5038690   7.287   8.180   7.019  0.4872 -0.2856  0.1469
  121MOL    C5138691   7.176   8.210   6.923  0.1923 -0.0703  0.0192
  121MOL    C5238692   7.122   0.105   6.921 -0.6266  0.0929  0.2782
  121MOL    C5338693   7.010   0.132   6.841  0.0785 -0.1166  0.2668
  121MOL    C5438694   6.943   0.025   6.776  0.9416  0.1912  0.3191
  121MOL    F5538695   6.825   0.037   6.713 -0.1557 -0.2105  0.0640
  121MOL    C5638696   7.000   8.130   6.787  0.1470 -0.7251 -0.6896
  121MOL    C5738697   7.119   8.108   6.844  0.5501 -0.0283 -0.5954
  121MOL    C5838698   7.397   0.047   6.998 -0.1750 -0.3311  0.4084
  121MOL    H5938699   7.336   8.085   6.998 -0.9514 -0.8211 -0.8428
  121MOL    H6038700   7.163   0.186   6.979  0.4022 -0.2534  0.0444
  121MOL    H6138701   6.977   0.234   6.833 -1.8762 -0.6753  1.0027
  121MOL    H6238702   6.958   8.041   6.742 -1.2710 -0.0654 -0.7103
  121MOL    H6338703   7.170   8.015   6.860  1.1684  0.2737 -0.7754
  121MOL    H6438704   7.407   0.052   6.890 -1.5591 -3.1383  0.1114
  121MOL    H6538705   7.358   0.144   7.028  0.7875  0.8226 -1.9297
  121MOL    C6638706   7.535   0.017   7.064 -0.4179 -0.2616 -0.6615
  121MOL    C6738707   7.577   8.103   7.077  0.0746 -0.0090 -0.1021
  121MOL    C6838708   7.594   8.046   7.205  0.4348 -0.4013 -0.2687
  121MOL    C6938709   7.608   7.905   7.225  0.8003 -0.1425  0.0521
  121MOL    C7038710   7.624   7.828   7.105 -0.4971  0.0956  0.1023
  121MOL    F7138711   7.630   7.699   7.121 -0.2540  0.3507  0.4926
  121MOL    C7238712   7.601   7.881   6.977 -0.4437 -0.0785 -0.2097
  121MOL    C7338713   7.570   8.020   6.960  0.8137  0.1692 -0.6617
  121MOL    C7438714   7.640   0.113   6.989  0.0703  0.5481 -0.6701
  121MOL    H7538715   7.544   0.048   7.168 -1.1949  3.2487 -1.5879
  121MOL    H7638716   7.595   8.122   7.282  2.2428 -0.8055  0.1211
  121MOL    H7738717   7.591   7.865   7.324 -2.2701  0.6050 -0.1305
  121MOL    H7838718   7.598   7.815   6.891 -0.1788 -1.7854  1.0526
  121MOL    H7938719   7.538   8.059   6.864 -1.8136 -0.8594 -0.2464
  121MOL    H8038720   7.741   0.081   7.011 -0.3567 -0.0776  0.3863
  121MOL    H8138721   7.628   0.088   6.883  0.9095 -0.2948 -0.5639
  121MOL    C8238722   7.628   0.264   7.018 -0.5089  0.1916  0.5207
  121MOL    C8338723   7.647   0.295   7.170 -1.1302  0.1449  0.1233
  121MOL    C8438724   7.561   0.379   7.237  0.2414 -0.2928  0.4375
  121MOL    C8538725   7.576   0.418   7.368  0.1863 -0.2063 -0.0602
  121MOL    C8638726   7.674   0.358   7.450  0.2741 -0.8083  0.1801
  121MOL    F8738727   7.686   0.392   7.577 -0.0083  0.8247  0.0382
  121MOL    C8838728   7.754   0.260   7.393  0.2250 -0.5248  0.0552
  121MOL    C8938729   7.737   0.227   7.256  0.3450  0.3344 -0.2509
  121MOL    C9038730   7.695   0.373   6.918  0.2257  0.5503 -0.0977
  121MOL    H9138731   7.524   0.295   7.021 -1.0108 -1.4028  0.0259
  121MOL    H9238732   7.482   0.428   7.183  0.7819 -0.0606 -0.1560
  121MOL    H9338733   7.503   0.473   7.425  1.3086 -0.9914  2.2050
  121MOL    H9438734   7.831   0.206   7.447  0.0747 -1.1046 -0.3036
  121MOL    H9538735   7.804   0.150   7.219 -1.7124 -1.1086 -1.0147
  121MOL    H9638736   7.699   0.471   6.965 -0.6180  1.4310 -1.8223
  121MOL    H9738737   7.801   0.349   6.927  0.1477  0.7522  1.5277
  121MOL    C9838738   7.651   0.367   6.779  0.5112 -0.2481  0.1715
  121MOL    C9938739   7.502   0.383   6.758 -0.7140  0.4047  0.6525
  121MOL   C10038740   7.438   0.495   6.811 -0.2496 -0.3407 -0.1196
  121MOL   C10138741   7.298   0.515   6.799  0.3232 -0.4711 -0.3424
  121MOL   C10238742   7.218   0.416   6.739 -0.4471 -0.2806  0.3812
  121MOL   F10338743   7.086   0.415   6.720 -0.3225 -0.4131 -0.2261
  121MOL   C10438744   7.289   0.312   6.670 -0.1478 -0.3844 -0.0748
  121MOL   C10538745   7.427   0.294   6.682  0.2799  0.0289  0.5982
  121MOL   C10638746   7.725   0.470   6.689  0.1067  0.1439 -0.3186
  121MOL   H10738747   7.665   0.265   6.743 -1.8740 -0.4776 -0.1970
  121MOL   H10838748   7.499   0.567   6.865 -0.2413 -0.2821 -0.2066
  121MOL   H10938749   7.254   0.610   6.827  1.5755 -0.4746  1.7663
  121MOL   H11038750   7.223   0.247   6.614  0.4460  0.0483 -1.2916
  121MOL   H11138751   7.468   0.203   6.640  0.3374 -0.1272  0.9872
  121MOL   H11238752   7.695   0.449   6.586 -1.2208 -0.7088  0.2316
  121MOL   H11338753   7.698   0.574   6.709  1.2385  1.3150 -4.3639
  121MOL   C11438754   7.880   0.457   6.689 -0.4161 -0.0624 -0.2803
  121MOL   C11538755   7.933   0.315   6.648  0.4398 -0.1419 -0.9069
  121MOL   C11638756   7.983   0.224   6.747 -0.0518 -0.5204 -0.2265
  121MOL   C11738757   8.030   0.095   6.715 -0.6961  0.3369  0.1021
  121MOL   C11838758   8.047   0.054   6.580  0.0266  0.5103 -0.4689
  121MOL   F11938759   8.119   8.183   6.553  0.1462 -0.5589  0.0824
  121MOL   C12038760   7.989   0.139   6.485 -0.2867 -0.6152  0.1882
  121MOL   C12138761   7.934   0.262   6.521  0.5432 -0.3824 -0.0508
  121MOL   C12238762   7.942   0.571   6.608  0.0914 -0.0470 -0.1090
  121MOL   H12338763   7.911   0.479   6.791 -0.7039  0.5634 -0.3234
  121MOL   H12438764   7.977   0.253   6.851  0.5325  2.0873 -0.8788
  121MOL   H12538765   8.072   0.030   6.791 -0.1783 -1.1166 -1.4095
  121MOL   H12638766   8.000   0.114   6.380 -1.5918  0.3088 -0.1817
  121MOL   H12738767   7.881   0.321   6.448 -2.2112 -1.1425  1.2484
  121MOL   H12838768   7.875   0.588   6.525 -0.7609  1.1961  0.8214
  121MOL   H12938769   7.931   0.663   6.665  0.6024 -0.1677  0.1913
  121MOL   C13038770   8.086   0.557   6.551 -0.2269 -0.2700 -0.7559
  121MOL   C13138771   8.105   0.652   6.436 -0.8030  0.4320  0.0426
  121MOL   C13238772   8.111   0.797   6.454  0.0946  0.9882 -0.0490
  121MOL   C13338773   8.131   0.883   6.342  0.4048  0.0946  0.6390
  121MOL   C13438774   8.142   0.824   6.214 -0.2076 -0.0015  0.1746
  121MOL   F13538775   8.166   0.907   6.103  0.0334  0.8884  0.0068
  121MOL   C13638776   8.127   0.681   6.194 -0.2407 -0.1060  0.3782
  121MOL   C13738777   8.121   0.599   6.304  0.4389  0.0137  0.1918
  121MOL   C13838778   8.181   0.567   6.676 -0.3807 -0.0513 -0.4243
  121MOL   H13938779   8.085   0.457   6.507 -1.7268 -0.2337 -0.8284
  121MOL   H14038780   8.097   0.841   6.551  3.2814 -2.1190  1.9567
  121MOL   H14138781   8.142   0.990   6.346 -2.1607  0.4955 -1.7977
  121MOL   H14238782   8.138   0.651   6.090 -3.8589  2.1172 -0.7078
  121MOL   H14338783   8.120   0.491   6.301  0.4300  0.0243 -0.1977
  121MOL   H14438784   8.199   0.668   6.713 -0.4772 -0.6035  1.1589
  121MOL   H14538785   8.135   0.521   6.763 -2.5372 -1.6972 -2.3510
  121MOL   C14638786   0.068   0.473   6.649 -0.1731  0.0514 -0.1379
  121MOL   C14738787   0.174   0.540   6.565  0.3151 -0.1449  0.6747
  121MOL   C14838788   0.230   0.476   6.451 -0.4912 -0.1586  0.4233
  121MOL   C14938789   0.335   0.535   6.375  0.5789 -0.9132  0.6396
  121MOL   C15038790   0.392   0.661   6.416  0.2441 -0.0876  0.1427
  121MOL   F15138791   0.500   0.708   6.348  0.1894 -0.9657  0.7234
  121MOL   C15238792   0.323   0.731   6.519 -0.5944 -0.7282 -1.3298
  121MOL   C15338793   0.226   0.669   6.599  0.8560 -0.4133  0.6496
  121MOL   C15438794   0.122   0.438   6.787 -0.2185 -0.0440  0.4203
  121MOL   H15538795   0.032   0.381   6.603  1.6652 -0.3088 -0.9093
  121MOL   H15638796   0.209   0.372   6.430 -1.0279  0.3369 -1.6024
  121MOL   H15738797   0.379   0.484   6.290  0.4236 -0.9167  0.5605
  121MOL   H15838798   0.367   0.826   6.548 -2.0575 -0.2814 -0.5484
  121MOL   H15938799   0.182   0.726   6.679 -0.7582  1.4793 -1.5414
  121MOL   H16038800   0.125   0.531   6.843 -0.0240  0.5051 -0.4993
  121MOL   H16138801   0.044   0.373   6.828 -0.1215  0.2839  1.1406
  121MOL   C16238802   0.256   0.358   6.797 -0.8214 -0.1620 -0.4876
  121MOL   C16338803   0.282   0.314   6.944 -0.0952  0.1192  0.0330
  121MOL   C16438804   0.184   0.233   7.005  0.0941 -0.4023  0.5834
  121MOL   C16538805   0.207   0.195   7.143  0.0525  0.3464  0.0967
  121MOL   C16638806   0.323   0.237   7.212 -0.0939 -0.1479 -0.9321
  121MOL   F16738807   0.355   0.198   7.337 -0.2975  0.1572  0.0273
  121MOL   C16838808   0.411   0.320   7.147 -0.0601 -0.2788 -0.0228
  121MOL   C16938809   0.391   0.356   7.013 -0.4212 -0.3292 -0.0945
  121MOL   C17038810   0.246   0.230   6.710 -0.1278 -0.2275  0.4118
  121MOL   H17138811   0.332   0.425   6.760 -0.0128 -0.7608  0.0796
  121MOL   H17238812   0.092   0.199   6.960  0.9814  2.1011 -3.3518
  121MOL   H17338813   0.135   0.130   7.191  0.5991 -0.2101  0.1650
  121MOL   H17438814   0.489   0.366   7.206 -0.4283 -1.0469  1.0795
  121MOL   H17538815   0.463   0.416   6.960 -1.6831  1.3953  0.1213
  121MOL   H17638816   0.173   0.164   6.756 -0.4944 -0.3731 -0.3715
  121MOL   H17738817   0.205   0.262   6.614  0.9393  0.2782  0.1120
  121MOL   C17838818   0.381   0.161   6.689 -0.0136  0.2602  0.0675
  121MOL   C17938819   0.355   0.024   6.632 -0.2219  0.4823  0.1337
  121MOL   C18038820   0.409   8.144   6.693 -0.1041  0.4241  0.0440
  121MOL   C18138821   0.385   8.015   6.642 -0.0952 -0.1530 -0.2158
  121MOL   C18238822   0.288   7.999   6.541 -0.5347  0.7364 -0.0056
  121MOL   F18338823   0.245   7.874   6.510 -0.0717 -0.8729  0.4629
  121MOL   C18438824   0.239   8.109   6.477  0.6086  0.4646 -0.9020
  121MOL   C18538825   0.274   0.005   6.515  0.6675  0.2210  0.1197
  121MOL   C18638826   0.472   0.243   6.597 -0.3507 -0.2931  0.0720
  121MOL   H18738827   0.443   0.153   6.779  2.2894  1.1730 -1.3916
  121MOL   H18838828   0.479   8.161   6.775  0.8785  0.0738 -0.7126
  121MOL   H18938829   0.427   7.928   6.692  0.2258 -0.4759 -1.0241
  121MOL   H19038830   0.172   8.099   6.392  0.8074  0.0698 -1.0151
  121MOL   H19138831   0.223   0.086   6.465  0.7568  1.0162  1.3085
  121MOL   H19238832   0.405   0.255   6.512  1.0264 -0.3903 -1.0387
  121MOL   H19338833   0.495   0.340   6.642 -0.6243 -1.5374  3.0186
  121MOL   C19438834   0.598   0.178   6.548 -0.2850  0.2132  0.3286
  121MOL   C19538835   0.649   0.250   6.420  0.4616  0.0925 -0.2541
  121MOL   C19638836   0.676   0.178   6.301 -0.2898  0.3334 -0.1010
  121MOL   C19738837   0.742   0.236   6.190  0.1397  0.1998  0.8173
  121MOL   C19838838   0.777   0.371   6.199  0.1981  0.0196  0.1924
  121MOL   F19938839   0.832   0.430   6.094  0.1869  0.1438 -0.3285
  121MOL   C20038840   0.745   0.445   6.315  0.5702 -0.2460 -0.1801
  121MOL   C20138841   0.682   0.385   6.426  0.2573  0.6352  0.7393
  121MOL   C20238842   0.700   0.167   6.658 -0.1181  0.6438  0.0505
  121MOL   H20338843   0.560   0.083   6.509 -1.3077  1.2672 -1.2806
  121MOL   H20438844   0.651   0.073   6.298  0.6069  0.1562 -2.3039
  121MOL   H20538845   0.748   0.180   6.098  1.4535 -0.2549  1.1666
  121MOL   H20638846   0.782   0.546   6.323  0.0426  0.1619 -2.5616
  121MOL   H20738847   0.657   0.438   6.517 -1.9764 -1.8414  1.6428
  121MOL   H20838848   0.750   0.263   6.673  0.5705 -0.0183  2.0893
  121MOL   H20938849   0.651   0.145   6.752 -1.1924  1.4345 -0.3097
  121MOL   C21038850   0.814   0.072   6.635  0.1169 -0.6696  0.3035
  121MOL   C21138851   0.920   0.096   6.751  0.2343 -0.3198  0.3250
  121MOL   C21238852   0.873   0.082   6.884  0.3329 -0.2113 -0.1235
  121MOL   C21338853   0.965   0.087   6.986  0.2820  0.2459  0.2515
  121MOL   C21438854   1.103   0.098   6.962 -0.3511 -0.0379  0.7584
  121MOL   F21538855   1.198   0.109   7.059 -0.1399  0.1343 -0.2898
  121MOL   C21638856   1.146   0.126   6.828 -0.3401  0.0501 -0.0325
  121MOL   C21738857   1.056   0.122   6.722 -0.5833 -0.3994  0.0579
  121MOL   C21838858   0.771   8.157   6.616  0.3914 -0.4172 -0.1365
  121MOL   H21938859   0.863   0.115   6.548  2.0432 -0.1184  1.6213
  121MOL   H22038860   0.770   0.056   6.898 -0.2776  2.0881 -0.1746
  121MOL   H22138861   0.936   0.077   7.089  0.2108  1.1114  0.3189
  121MOL   H22238862   1.249   0.148   6.803 -0.2514  2.0880  1.9536
  121MOL   H22338863   1.089   0.140   6.621 -0.3337  0.3141  0.2666
  121MOL   H22438864   0.765   8.106   6.712  1.2316 -1.0893 -0.4307
  121MOL   H22538865   0.672   8.141   6.573 -0.8097  2.2939  1.5064
  121MOL   C22638866   0.863   8.078   6.519 -0.6375 -0.5888 -0.0328
  121MOL   C22738867   1.003   8.060   6.568 -0.4076  0.5476 -0.8040
  121MOL   C22838868   1.032   7.996   6.689 -0.1155  0.4055  0.0416
  121MOL   C22938869   1.159   7.999   6.746  0.5359  0.2017 -0.2125
  121MOL   C23038870   1.265   8.051   6.668 -0.3917  0.0356  0.2920
  121MOL   F23138871   1.394   8.053   6.713 -0.5021 -0.2450 -0.2973
  121MOL   C23238872   1.239   8.094   6.543 -0.0188 -0.5521 -0.2663
  121MOL   C23338873   1.110   8.103   6.488 -0.8638  0.3662 -0.0487
  121MOL   C23438874   0.787   7.948   6.467  0.0545 -0.3474  0.0063
  121MOL   H23538875   0.863   8.138   6.428  2.1432  0.9854  0.9507
  121MOL   H23638876   0.948   7.973   6.753  0.3469  0.7056  0.7639
  121MOL   H23738877   1.170   7.952   6.843 -2.8413  0.1845  0.2339
  121MOL   H23838878   1.326   8.123   6.486  0.1799 -0.5127  0.0544
  121MOL   H23938879   1.097   8.159   6.397 -1.3740 -0.7214 -0.6567
  121MOL   H24038880   0.859   7.867   6.454  0.0179 -0.7984  2.3759
  121MOL   H24138881   0.729   7.914   6.553 -0.3167 -1.2513 -0.5995
  121MOL   C24238882   0.690   7.952   6.343 -0.1126  0.0170 -0.5158
  121MOL   C24338883   0.755   8.018   6.222 -0.2439 -0.2546 -0.4058
  121MOL   C24438884   0.894   7.988   6.199  0.4616 -0.1671 -0.3091
  121MOL   C24538885   0.964   8.044   6.089 -0.5315 -0.1605 -0.0689
  121MOL   C24638886   0.893   8.128   5.998 -0.4919  0.2008  0.2179
  121MOL   F24738887   0.968   8.201   5.915  0.0107  0.0042  0.1185
  121MOL   C24838888   0.753   8.146   6.013  0.3425 -0.7176 -0.2295
  121MOL   C24938889   0.681   8.088   6.124  0.1081 -0.5977 -0.1974
  121MOL   C25038890   0.647   7.808   6.313  0.2743  0.2238  0.6273
  121MOL   H25138891   0.607   8.014   6.377  1.3949  1.6040  0.3718
  121MOL   H25238892   0.945   7.922   6.268 -1.4309 -0.7769  0.5281
  121MOL   H25338893   1.071   8.031   6.080 -0.3240  1.6240 -0.4131
  121MOL   H25438894   0.688   8.205   5.950 -1.4067 -2.3316  0.0087
  121MOL   H25538895   0.578   8.115   6.137 -0.2428 -0.4081 -3.0550
  121MOL   H25638896   0.733   7.747   6.286  0.0122  0.3373 -0.4997
  121MOL   H25738897   0.598   7.765   6.400 -3.4664  0.4579 -1.2738
  121MOL   C25838898   0.554   7.798   6.187 -0.9241  0.7619  0.1576
  121MOL   C25938899   0.510   7.651   6.176 -0.0151  0.3602  0.9549
  121MOL   C26038900   0.536   7.590   6.050 -0.3568  1.2284 -0.3618
  121MOL   C26138901   0.486   7.460   6.025 -0.2771 -0.2586 -0.0200
  121MOL   C26238902   0.417   7.397   6.128  0.0511 -0.3998 -0.3673
  121MOL   F26338903   0.385   7.262   6.117 -0.0969 -0.1736  0.0373
  121MOL   C26438904   0.395   7.453   6.254  0.1703  0.5554  0.2824
  121MOL   C26538905   0.441   7.584   6.281  0.8593 -0.2291  0.3770
  121MOL   C26638906   0.419   7.881   6.188  0.5369 -0.4328  0.1114
  121MOL   H26738907   0.618   7.828   6.104  0.6744  0.2987  1.2099
  121MOL   H26838908   0.587   7.632   5.965 -0.2785  1.6536 -0.1036
  121MOL   H26938909   0.495   7.414   5.927  0.0216  0.0023 -0.1165
  121MOL   H27038910   0.333   7.403   6.327  0.3458  1.2072  0.8853
  121MOL   H27138911   0.408   7.634   6.371  0.2072  1.6665 -0.8803
  121MOL   H27238912   0.373   7.853   6.282  2.3834 -3.7603  0.1046
  121MOL   H27338913   0.439   7.986   6.205 -1.7238  0.0770 -0.2226
  121MOL   C27438914   0.324   7.861   6.068 -0.1602  0.1851  0.8260
  121MOL   C27538915   0.191   7.933   6.097 -0.8593  0.8838  0.2397
  121MOL   C27638916   0.177   8.071   6.140 -0.0632  0.3398  0.3116
  121MOL   C27738917   0.047   8.124   6.139 -0.2278 -0.1940 -0.9755
  121MOL   C27838918   8.169   8.055   6.104 -0.1931 -0.0000  0.1094
  121MOL   F27938919   8.050   8.115   6.111  0.1710 -0.4116 -0.1963
  121MOL   C28038920   8.183   7.919   6.065 -0.0935  0.4830  0.8663
  121MOL   C28138921   0.073   7.864   6.059 -0.0460  0.1723 -0.4943
  121MOL   C28238922   0.392   7.918   5.938  0.9232 -0.6614 -0.0937
  121MOL   H28338923   0.295   7.758   6.045  1.0113  0.0355 -0.0874
  121MOL   H28438924   0.259   8.137   6.160 -0.2557  0.4041  0.8921
  121MOL   H28538925   0.034   8.227   6.169  0.8962 -0.0990 -0.7869
  121MOL   H28638926   8.104   7.855   6.028  0.5123  0.0392  0.3433
  121MOL   H28738927   0.072   7.763   6.021 -0.0513 -0.0585  0.1158
  121MOL   H28838928   0.421   8.017   5.973 -0.5406 -0.3787  0.3216
  121MOL   H28938929   0.491   7.884   5.905  1.0215  0.8832 -1.4638
  121MOL   C29038930   0.300   7.935   5.813 -0.1417  0.4098 -0.2589
  121MOL   C29138931   0.364   8.041   5.721 -0.0489  0.1741  0.9178
  121MOL   C29238932   0.331   8.180   5.747 -0.2488 -0.0188  0.4402
  121MOL   C29338933   0.380   0.042   5.665  0.4861  0.4284 -0.1822
  121MOL   C29438934   0.463   0.005   5.550  0.5582 -0.2615  1.0569
  121MOL   F29538935   0.500   0.102   5.458 -0.3466 -0.0808 -0.0860
  121MOL   C29638936   0.504   8.103   5.526 -0.1641 -0.4190  0.6661
  121MOL   C29738937   0.449   8.007   5.615  0.0990  0.0287  0.4442
  121MOL   C29838938   0.255   7.799   5.754  0.3922 -0.2549  0.7174
  121MOL   H29938939   0.215   7.988   5.856  0.7772  1.6337  0.0939
  121MOL   H30038940   0.262   8.199   5.828  0.1603  0.9483  0.5677
  121MOL   H30138941   0.360   0.148   5.670 -0.9994  0.1379  0.2158
  121MOL   H30238942   0.560   8.073   5.438  3.2423 -2.7017  3.4774
  121MOL   H30338943   0.471   7.907   5.583 -2.6143  0.2100 -2.2345
  121MOL   H30438944   0.337   7.734   5.725 -0.0770 -0.1792 -0.8357
  121MOL   H30538945   0.203   7.749   5.836  0.2902  2.1063  2.1114
  121MOL   C30638946   0.150   7.826   5.631 -0.0029 -0.5347 -0.2360
  121MOL   C30738947   0.118   7.697   5.547 -0.0359  0.2932 -0.1676
  121MOL   C30838948   0.134   7.690   5.407 -0.0729 -0.4110  0.0170
  121MOL   C30938949   0.102   7.573   5.334  0.2762 -0.1942 -0.0096
  121MOL   C31038950   0.063   7.460   5.406  0.2661  0.4722  0.1105
  121MOL   F31138951   0.047   7.347   5.342  0.0586  0.6427 -0.4029
  121MOL   C31238952   0.041   7.471   5.545  0.3510  0.0740  1.2306
  121MOL   C31338953   0.071   7.588   5.612 -0.5085 -0.0188 -0.3022
  121MOL   C31438954   0.015   7.893   5.684 -0.1189  0.0775  0.1162
  121MOL   H31538955   0.190   7.903   5.564 -2.3606  2.0005  1.1535
  121MOL   H31638956   0.164   7.780   5.354 -2.5147 -0.7567 -2.0124
  121MOL   H31738957   0.121   7.561   5.228  1.2651 -0.7852  0.2345
  121MOL   H31838958   0.003   7.385   5.597 -0.6579  0.7204  1.5626
  121MOL   H31938959   0.062   7.582   5.720 -0.4664  0.7771 -0.2505
  121MOL   H32038960   8.179   7.914   5.605  2.2029  2.8763 -1.3096
  121MOL   H32138961   8.193   7.825   5.747 -0.2509  0.1592  0.0851
  121MOL   H32238962   0.045   7.987   5.732  1.7532 -1.1170  1.3542
  122MOL     C138963   7.159   3.722   5.451 -0.4012  0.2392 -0.5275
  122MOL     C238964   7.229   3.795   5.559 -0.1138 -0.3864 -1.4564
  122MOL     C338965   7.371   3.795   5.564  0.4327 -0.6774  0.0508
  122MOL     C438966   7.438   3.870   5.663 -0.1259 -0.2632 -0.2055
  122MOL     C538967   7.366   3.963   5.739  0.6925 -0.0490 -1.4973
  122MOL     F638968   7.431   4.053   5.815 -0.1595 -0.6183 -0.2636
  122MOL     C738969   7.227   3.957   5.738 -0.2129 -0.4730 -0.0096
  122MOL     C838970   7.156   3.874   5.649 -0.4516 -0.8911  0.3402
  122MOL     C938971   7.144   3.571   5.482  0.3866 -0.5553 -0.2543
  122MOL    H1038972   7.209   3.738   5.356  1.3277 -0.6607  0.2068
  122MOL    H1138973   7.427   3.728   5.501  0.2724 -1.2794  0.5463
  122MOL    H1238974   7.545   3.879   5.672 -0.2286  0.3056  0.4710
  122MOL    H1338975   7.171   4.024   5.802  1.7216 -0.0100  1.2317
  122MOL    H1438976   7.049   3.869   5.646 -0.4779  0.0047 -0.2974
  122MOL    H1538977   7.238   3.531   5.520  1.3452 -0.3396 -2.3138
  122MOL    H1638978   7.057   3.553   5.546  0.7338 -0.7468  0.1593
  122MOL    H1738979   7.056   3.752   5.433 -1.5107 -1.9858  1.7895
  122MOL    C1838980   7.125   3.483   5.354  0.8530 -0.1844 -0.2808
  122MOL    C1938981   7.246   3.509   5.262  1.1269  0.1323 -0.1494
  122MOL    C2038982   7.377   3.485   5.301  0.3122  0.6882  0.6111
  122MOL    C2138983   7.481   3.536   5.220 -0.0677  0.3311 -0.0066
  122MOL    C2238984   7.450   3.592   5.094 -0.2072 -0.1184 -0.5511
  122MOL    F2338985   7.554   3.635   5.021  0.1103  0.1086 -0.0502
  122MOL    C2438986   7.318   3.606   5.052  0.0048  0.5945  0.3399
  122MOL    C2538987   7.214   3.564   5.133 -0.2130 -0.2643  0.2625
  122MOL    C2638988   7.117   3.331   5.393  0.2516  0.4240  0.6307
  122MOL    H2738989   7.038   3.508   5.294  0.3465 -0.0480  0.5027
  122MOL    H2838990   7.401   3.442   5.397  1.6122  1.1283  0.4907
  122MOL    H2938991   7.581   3.527   5.259 -0.4733 -1.4230  0.6951
  122MOL    H3038992   7.289   3.650   4.957  0.9694  1.1027  0.2808
  122MOL    H3138993   7.110   3.583   5.111 -0.4772  0.1747  1.7961
  122MOL    H3238994   7.141   3.263   5.311  0.0024 -0.1243  1.0089
  122MOL    H3338995   7.197   3.297   5.459 -0.4064 -0.6908  0.8736
  122MOL    C3438996   6.986   3.283   5.462  0.0942  0.0233  0.0672
  122MOL    C3538997   6.850   3.338   5.411  0.0970  0.3677 -0.1533
  122MOL    C3638998   6.804   3.289   5.288  0.0783  0.0481 -1.1407
  122MOL    C3738999   6.687   3.343   5.229 -0.2727 -0.6979  0.2460
  122MOL    C3839000   6.614   3.439   5.299  0.5870 -0.3636  0.3262
  122MOL    F3939001   6.499   3.478   5.245  0.9744  0.0073  0.0392
  122MOL    C4039002   6.656   3.482   5.428 -0.4124 -0.2512  0.5083
  122MOL    C4139003   6.778   3.435   5.480 -0.6703 -0.0181 -0.1205
  122MOL    C4239004   6.970   3.130   5.481  0.2820 -0.5984 -0.5832
  122MOL    H4339005   7.011   3.326   5.558  5.7976 -0.7333 -0.9055
  122MOL    H4439006   6.873   3.229   5.232 -0.7657 -1.9396 -0.1134
  122MOL    H4539007   6.650   3.317   5.131  4.0120 -4.5302 -0.5928
  122MOL    H4639008   6.589   3.546   5.484 -0.8909 -0.7328  0.4930
  122MOL    H4739009   6.811   3.464   5.579  3.5633 -0.3874 -1.3131
  122MOL    H4839010   6.880   3.111   5.539  1.8418 -3.2061  1.0596
  122MOL    H4939011   6.951   3.070   5.392 -0.0391 -0.0270 -0.9021
  122MOL    C5039012   7.081   3.050   5.556 -0.6330  0.2343  0.0878
  122MOL    C5139013   7.134   3.116   5.686 -0.6138  0.4406 -0.0192
  122MOL    C5239014   7.043   3.150   5.786  0.4300 -0.7263  0.5405
  122MOL    C5339015   7.078   3.203   5.914  0.2233  0.3222  0.7331
  122MOL    C5439016   7.215   3.240   5.932 -0.0003  0.1650  0.3627
  122MOL    F5539017   7.260   3.286   6.049  0.6912  0.0542 -0.5888
  122MOL    C5639018   7.307   3.218   5.823 -0.1167 -0.0293  0.3143
  122MOL    C5739019   7.270   3.147   5.707 -0.8479  1.1589 -0.3986
  122MOL    C5839020   7.026   2.903   5.571 -0.4947  0.5291  0.2030
  122MOL    H5939021   7.169   3.054   5.493  0.8937  1.8888  2.2563
  122MOL    H6039022   6.939   3.130   5.769  0.5353 -0.2203 -0.7466
  122MOL    H6139023   7.009   3.199   5.997  0.7553 -0.5678  1.1340
  122MOL    H6239024   7.409   3.248   5.844 -0.6603  0.0303  2.9541
  122MOL    H6339025   7.340   3.122   5.628 -0.5480  0.7918 -0.0213
  122MOL    H6439026   6.969   2.903   5.664  0.2321  0.0975  0.6585
  122MOL    H6539027   6.938   2.886   5.509  0.7662 -1.3661 -1.1546
  122MOL    C6639028   7.121   2.785   5.562  0.1842 -0.1127 -0.3759
  122MOL    C6739029   7.147   2.746   5.421 -0.0458 -0.1764  0.6749
  122MOL    C6839030   7.251   2.817   5.352  0.4182 -0.0746  0.2819
  122MOL    C6939031   7.285   2.781   5.215 -0.7500 -0.0499 -0.4086
  122MOL    C7039032   7.213   2.682   5.152  0.0152  0.4359 -0.3536
  122MOL    F7139033   7.238   2.657   5.024 -0.3262  0.1972 -0.4020
  122MOL    C7239034   7.100   2.627   5.217  0.3783  0.3393  0.1500
  122MOL    C7339035   7.062   2.656   5.349  0.6284 -0.7661 -0.7327
  122MOL    C7439036   7.245   2.808   5.655  0.2340  0.3859 -0.0876
  122MOL    H7539037   7.063   2.703   5.605 -0.1466  0.0688 -0.4715
  122MOL    H7639038   7.317   2.882   5.408  0.7748 -2.1626  2.3800
  122MOL    H7739039   7.370   2.826   5.166 -1.1429 -1.1452 -2.1305
  122MOL    H7839040   7.043   2.555   5.161  0.5743  0.7402 -0.5716
  122MOL    H7939041   6.971   2.618   5.393 -0.0739  1.7587  0.0484
  122MOL    H8039042   7.308   2.884   5.607  0.7171  0.0838  0.0668
  122MOL    H8139043   7.211   2.846   5.751 -3.2897 -0.3701 -0.9777
  122MOL    C8239044   7.331   2.672   5.676 -0.3059 -0.1451 -0.6152
  122MOL    C8339045   7.475   2.704   5.688 -0.1525 -0.1745  0.4227
  122MOL    C8439046   7.520   2.795   5.787  0.4379  0.3135 -0.8283
  122MOL    C8539047   7.656   2.815   5.817 -0.2562 -0.4813 -0.5654
  122MOL    C8639048   7.744   2.743   5.736  0.9144 -0.0236  0.0478
  122MOL    F8739049   7.876   2.750   5.765  0.0856 -0.4088  0.0026
  122MOL    C8839050   7.706   2.657   5.626 -0.4467 -0.5487  0.1521
  122MOL    C8939051   7.573   2.638   5.604  0.1688  0.1472 -0.1838
  122MOL    C9039052   7.287   2.578   5.791 -0.0391 -0.9343 -0.9860
  122MOL    H9139053   7.330   2.606   5.590  1.9290  1.4926 -1.9446
  122MOL    H9239054   7.450   2.847   5.851 -0.2506 -1.1075 -0.4258
  122MOL    H9339055   7.681   2.882   5.898 -2.1787  0.2604 -0.5452
  122MOL    H9439056   7.781   2.612   5.563  0.1013  2.7456 -1.6816
  122MOL    H9539057   7.536   2.563   5.536  1.4478 -2.7670  2.2092
  122MOL    H9639058   7.311   2.617   5.890  2.2311  0.4262 -2.0356
  122MOL    H9739059   7.178   2.576   5.796  0.0525 -2.5971  1.3192
  122MOL    C9839060   7.349   2.427   5.779  0.3855  0.2039  0.6518
  122MOL    C9939061   7.490   2.414   5.835 -0.4500 -0.6514 -0.2924
  122MOL   C10039062   7.533   2.475   5.960  0.0345 -0.2595 -0.2699
  122MOL   C10139063   7.659   2.436   6.012 -0.0246 -0.5396 -0.0851
  122MOL   C10239064   7.736   2.335   5.957  0.4584 -0.0228  0.1563
  122MOL   F10339065   7.841   2.285   6.030  0.4174 -0.1792 -0.1757
  122MOL   C10439066   7.698   2.280   5.838 -0.4123 -0.0645 -0.4345
  122MOL   C10539067   7.576   2.318   5.777 -0.4287  0.0945  0.0416
  122MOL   C10639068   7.254   2.324   5.843 -0.4339  0.1137  0.7411
  122MOL   H10739069   7.359   2.401   5.673 -1.4870  2.0443 -0.0189
  122MOL   H10839070   7.482   2.549   6.020 -0.1246 -0.0012 -0.7229
  122MOL   H10939071   7.697   2.478   6.104 -0.0327  1.0113 -0.7780
  122MOL   H11039072   7.758   2.204   5.791 -0.2564  0.2099 -0.6759
  122MOL   H11139073   7.544   2.259   5.692  1.5559 -2.0425  0.7173
  122MOL   H11239074   7.314   2.232   5.839 -0.2570  0.0690  3.4242
  122MOL   H11339075   7.237   2.355   5.946  0.7953 -0.6003  1.1824
  122MOL   C11439076   7.118   2.294   5.769  0.7988 -0.0125 -0.6743
  122MOL   C11539077   7.140   2.273   5.618  0.7834  0.3035 -0.1207
  122MOL   C11639078   7.233   2.184   5.567 -0.3775 -0.1354  0.2055
  122MOL   C11739079   7.244   2.173   5.428  0.7677  0.5252  0.4825
  122MOL   C11839080   7.150   2.233   5.342  0.3610 -0.2250 -0.0769
  122MOL   F11939081   7.158   2.210   5.205 -0.0945  0.0163  0.0200
  122MOL   C12039082   7.049   2.319   5.390  0.1202  0.5886  0.1400
  122MOL   C12139083   7.056   2.343   5.531 -0.5022  0.4790 -0.5913
  122MOL   C12239084   7.055   2.178   5.843 -0.6192  0.2884 -0.5367
  122MOL   H12339085   7.057   2.384   5.780  1.7574  0.8337 -2.0537
  122MOL   H12439086   7.284   2.126   5.642 -0.8129  1.5603  1.8393
  122MOL   H12539087   7.317   2.106   5.384 -0.0169  0.2150 -0.3809
  122MOL   H12639088   6.974   2.369   5.330 -0.9098  0.2428  1.1231
  122MOL   H12739089   6.990   2.415   5.578  0.9732  0.4428  1.5480
  122MOL   H12839090   7.114   2.087   5.849 -1.5598 -0.2896  0.2206
  122MOL   H12939091   7.042   2.216   5.945  1.9246 -0.1717 -0.0003
  122MOL   C13039092   6.918   2.144   5.790 -0.3464  0.6901  0.1511
  122MOL   C13139093   6.928   1.996   5.755  0.3079  0.7062  0.0037
  122MOL   C13239094   6.965   1.954   5.625 -0.7458 -0.2693 -0.2430
  122MOL   C13339095   6.986   1.822   5.595  0.4759  0.0007 -0.5595
  122MOL   C13439096   6.959   1.722   5.690 -0.7310 -0.2252 -0.2037
  122MOL   F13539097   6.959   1.589   5.658  0.0103 -0.5263 -0.3011
  122MOL   C13639098   6.933   1.763   5.825 -0.7258 -0.0577 -0.3037
  122MOL   C13739099   6.915   1.898   5.859 -0.5591 -0.0911 -0.5351
  122MOL   C13839100   6.797   2.185   5.887 -0.0086  0.0100 -0.2105
  122MOL   H13939101   6.907   2.205   5.700 -1.9229  0.4260  0.1523
  122MOL   H14039102   6.966   2.029   5.547  0.0736 -1.9525 -1.8861
  122MOL   H14139103   7.011   1.789   5.496 -1.6101  1.0886 -1.4799
  122MOL   H14239104   6.928   1.683   5.897  0.9356  1.9362  2.1244
  122MOL   H14339105   6.894   1.934   5.959 -0.9845 -0.6023 -0.4399
  122MOL   H14439106   6.729   2.100   5.877  1.4054 -1.1077 -0.4566
  122MOL   H14539107   6.834   2.166   5.988 -1.6333  1.2415  0.6361
  122MOL   C14639108   6.736   2.319   5.866 -0.0137 -0.3775 -0.3444
  122MOL   C14739109   6.667   2.323   5.731  0.2853 -0.0452 -0.6341
  122MOL   C14839110   6.679   2.440   5.646  0.1253 -0.3095 -0.0736
  122MOL   C14939111   6.606   2.433   5.527 -0.0461 -0.0374 -0.1273
  122MOL   C15039112   6.528   2.331   5.487  0.2534 -0.1135  0.7461
  122MOL   F15139113   6.476   2.335   5.361 -0.1456  0.7623  0.1170
  122MOL   C15239114   6.516   2.220   5.570  0.1522  0.0163 -0.4161
  122MOL   C15339115   6.586   2.220   5.690 -0.4620  0.0798 -0.3446
  122MOL   C15439116   6.630   2.354   5.977 -0.5872  0.7547  0.1405
  122MOL   H15539117   6.809   2.399   5.860 -0.5917  0.3458  1.9604
  122MOL   H15639118   6.741   2.522   5.680 -0.1805 -0.9119  2.0281
  122MOL   H15739119   6.615   2.514   5.455  2.0468 -0.8456 -0.8381
  122MOL   H15839120   6.461   2.134   5.534 -3.0766  1.4726  0.8246
  122MOL   H15939121   6.580   2.125   5.741  1.3049 -1.0960 -2.2217
  122MOL   H16039122   6.575   2.446   5.961 -1.0471  0.3520 -0.6115
  122MOL   H16139123   6.548   2.283   5.978  0.7669 -0.8693 -0.3548
  122MOL   C16239124   6.708   2.389   6.111 -0.3337  0.7718  0.6798
  122MOL   C16339125   6.762   2.526   6.098  0.5350  0.4547  0.3203
  122MOL   C16439126   6.679   2.639   6.125 -0.4834  0.2999  0.2071
  122MOL   C16539127   6.737   2.770   6.107 -1.2380  0.0840  0.5371
  122MOL   C16639128   6.864   2.780   6.045 -0.3234  0.3106 -0.1512
  122MOL   F16739129   6.918   2.891   5.998  0.4086 -0.4046  0.0207
  122MOL   C16839130   6.938   2.668   6.011 -0.1718 -0.1648 -0.1025
  122MOL   C16939131   6.895   2.542   6.049  0.3393 -0.0214  0.0577
  122MOL   C17039132   6.621   2.375   6.235 -0.5365 -0.3849 -0.0589
  122MOL   H17139133   6.793   2.321   6.108 -1.6024 -1.0038  3.1039
  122MOL   H17239134   6.578   2.630   6.162 -0.5780 -0.9455 -0.3181
  122MOL   H17339135   6.682   2.858   6.139 -1.6949  0.7801 -2.0143
  122MOL   H17439136   7.033   2.680   5.960 -1.4722 -1.7099 -3.0475
  122MOL   H17539137   6.953   2.457   6.018 -2.8025 -1.4347 -2.1766
  122MOL   H17639138   6.665   2.412   6.328 -1.8834 -2.5130  1.4807
  122MOL   H17739139   6.534   2.439   6.222  0.8656  2.2434  2.7448
  122MOL   C17839140   6.576   2.228   6.269 -0.1529  0.0843  0.1552
  122MOL   C17939141   6.695   2.137   6.273 -0.3339  0.5096 -0.7783
  122MOL   C18039142   6.805   2.159   6.359 -0.4064  0.0629 -0.6493
  122MOL   C18139143   6.898   2.061   6.383 -0.5270 -0.5436  0.2147
  122MOL   C18239144   6.884   1.936   6.325  0.5884  0.0271  0.2399
  122MOL   F18339145   6.969   1.840   6.362  0.2864 -0.2380 -0.4261
  122MOL   C18439146   6.789   1.918   6.224 -0.8458 -0.4410 -0.1992
  122MOL   C18539147   6.703   2.027   6.188 -0.0412 -0.0350  0.8429
  122MOL   C18639148   6.497   2.222   6.402  0.7585  0.8447 -0.6676
  122MOL   H18739149   6.512   2.194   6.187 -2.3405 -1.5004  2.4453
  122MOL   H18839150   6.807   2.249   6.420  0.3254 -1.4280  1.6117
  122MOL   H18939151   6.973   2.071   6.460 -2.6041 -1.8230  2.5010
  122MOL   H19039152   6.781   1.824   6.171  1.2977 -0.7387 -0.0300
  122MOL   H19139153   6.628   2.019   6.110  1.0651  1.5244 -0.4140
  122MOL   H19239154   6.496   2.117   6.429  1.1811  0.5362 -1.8420
  122MOL   H19339155   6.561   2.266   6.478  1.5772 -1.2512 -0.1398
  122MOL   C19439156   6.352   2.277   6.392  0.7826 -0.0867  0.5801
  122MOL   C19539157   6.273   2.186   6.300  0.2832 -0.2102  0.1417
  122MOL   C19639158   6.215   2.243   6.183 -0.0070  0.2410  0.4920
  122MOL   C19739159   6.130   2.165   6.104 -0.3795 -0.0998  0.1519
  122MOL   C19839160   6.123   2.025   6.119  0.3413 -0.1832 -0.1373
  122MOL   F19939161   6.045   1.947   6.036  0.3927 -0.2559  0.2379
  122MOL   C20039162   6.186   1.968   6.230  0.2378 -0.1175 -0.2853
  122MOL   C20139163   6.257   2.050   6.321  0.0966 -0.1392  0.1159
  122MOL   C20239164   6.277   2.305   6.524  0.5288  0.3540  0.4080
  122MOL   H20339165   6.366   2.374   6.344  1.3782  0.5047  1.9106
  122MOL   H20439166   6.220   2.348   6.156 -0.3789 -0.0831 -0.8925
  122MOL   H20539167   6.082   2.217   6.022  1.1781 -0.2491 -0.8795
  122MOL   H20639168   6.171   1.862   6.245 -1.5710  0.4214  2.2471
  122MOL   H20739169   6.287   1.995   6.409 -0.0649 -1.9024 -0.9024
  122MOL   H20839170   6.180   2.349   6.501  0.3359 -1.0493 -1.6518
  122MOL   H20939171   6.247   2.210   6.567 -0.4437 -1.0114 -3.0709
  122MOL   C21039172   6.367   2.378   6.620  0.5900 -0.2193  0.0380
  122MOL   C21139173   6.419   2.514   6.574  0.3169  0.0292 -0.6723
  122MOL   C21239174   6.553   2.550   6.604  0.3102 -0.2291 -0.2774
  122MOL   C21339175   6.617   2.654   6.530  0.7008  0.3274 -0.3928
  122MOL   C21439176   6.539   2.729   6.441  0.3950 -0.2753  0.4276
  122MOL   F21539177   6.597   2.829   6.375  0.1615  0.0855 -0.1414
  122MOL   C21639178   6.403   2.697   6.416 -0.6021  0.0402  1.3223
  122MOL   C21739179   6.346   2.590   6.484  0.4309  0.1031 -0.3267
  122MOL   C21839180   6.295   2.398   6.756 -0.2804  0.0940  0.2298
  122MOL   H21939181   6.460   2.324   6.639  0.8627  0.1989 -0.0907
  122MOL   H22039182   6.608   2.492   6.676  0.9765  0.6709 -0.0537
  122MOL   H22139183   6.717   2.687   6.554  0.0211  1.7915  0.4821
  122MOL   H22239184   6.349   2.746   6.337 -1.2244 -1.8011  0.5801
  122MOL   H22339185   6.242   2.562   6.473  0.4994 -1.8741  3.3189
  122MOL   H22439186   6.362   2.465   6.811 -0.8947  2.0391 -1.3027
  122MOL   H22539187   6.211   2.464   6.735  1.6010  2.3462 -0.5778
  122MOL   C22639188   6.265   2.274   6.838 -0.5448 -0.9926  0.1647
  122MOL   C22739189   6.388   2.173   6.827 -0.0340 -0.1723 -0.2504
  122MOL   C22839190   6.514   2.214   6.870  0.2988  0.1983  0.1211
  122MOL   C22939191   6.625   2.126   6.863  0.1033 -0.0078  0.1097
  122MOL   C23039192   6.612   1.997   6.799  0.3454 -0.0970  0.1604
  122MOL   F23139193   6.721   1.919   6.794 -0.3802  0.4801 -0.2399
  122MOL   C23239194   6.489   1.966   6.741  0.3042  0.1599 -0.2923
  122MOL   C23339195   6.373   2.047   6.761 -0.2493  0.2002  0.1365
  122MOL   C23439196   6.228   2.306   6.990  0.1866  0.5653  0.4241
  122MOL   H23539197   6.177   2.227   6.793 -1.2461  0.9666 -0.6009
  122MOL   H23639198   6.527   2.305   6.927 -0.5121 -0.7443  1.8370
  122MOL   H23739199   6.721   2.152   6.904 -0.7687  0.8773  1.6338
  122MOL   H23839200   6.504   1.882   6.675 -0.3840 -0.6182  0.5324
  122MOL   H23939201   6.280   2.018   6.714  0.4524  1.1793 -1.9130
  122MOL   H24039202   6.205   2.217   7.048  2.6586  0.4370  1.2371
  122MOL   H24139203   6.310   2.353   7.045  1.0998 -0.2192 -0.2577
  122MOL   C24239204   6.102   2.404   6.999  0.5124  0.8384 -0.3723
  122MOL   C24339205   5.977   2.360   6.925  0.4106 -0.4089  1.2529
  122MOL   C24439206   5.924   2.233   6.949 -0.0052  0.0400 -0.8028
  122MOL   C24539207   5.801   2.193   6.886 -0.3261 -0.0248  0.0273
  122MOL   C24639208   5.741   2.273   6.785 -1.1087  0.3999 -0.2672
  122MOL   F24739209   5.641   2.229   6.706 -0.6593  0.2184  0.1813
  122MOL   C24839210   5.797   2.402   6.766 -0.0728  0.2416 -0.1603
  122MOL   C24939211   5.910   2.448   6.838  0.5165  0.0907  0.2770
  122MOL   C25039212   6.079   2.440   7.148 -0.5492  0.0411  0.6846
  122MOL   H25139213   6.137   2.499   6.960  0.4042  1.1598  0.3206
  122MOL   H25239214   5.967   2.178   7.031  1.4019  3.7199  1.0701
  122MOL   H25339215   5.761   2.099   6.921  2.0581 -1.6831 -1.5724
  122MOL   H25439216   5.754   2.463   6.688 -0.8169  1.3054  1.0670
  122MOL   H25539217   5.938   2.546   6.804 -1.0275  0.2201 -0.6773
  122MOL   H25639218   6.048   2.348   7.197 -0.7406  0.2629  0.9747
  122MOL   H25739219   6.169   2.451   7.209 -0.1259 -0.1724  0.1071
  122MOL   C25839220   5.976   2.565   7.154 -0.2133 -0.6685 -0.1226
  122MOL   C25939221   5.843   2.517   7.203 -0.6754 -0.0812 -0.1598
  122MOL   C26039222   5.839   2.436   7.316  0.7494  0.2928 -1.0038
  122MOL   C26139223   5.715   2.380   7.376  0.3407  0.0425 -0.3264
  122MOL   C26239224   5.597   2.405   7.304  0.6768 -0.8421 -0.4553
  122MOL   F26339225   5.476   2.356   7.345 -0.1948  0.2890 -0.3196
  122MOL   C26439226   5.601   2.492   7.194 -0.3743 -0.5267  0.2607
  122MOL   C26539227   5.722   2.557   7.144  0.5571 -0.0173 -0.1247
  122MOL   C26639228   6.028   2.695   7.228 -0.1182  0.1349  0.6097
  122MOL   H26739229   5.955   2.598   7.052  0.5219  3.3207  0.9156
  122MOL   H26839230   5.937   2.427   7.363  0.5808  1.0222 -0.5052
  122MOL   H26939231   5.728   2.317   7.463  2.2531  1.3662  0.3957
  122MOL   H27039232   5.504   2.524   7.158 -1.2694 -2.7320  0.6670
  122MOL   H27139233   5.718   2.624   7.060  0.3164  0.9195  0.6189
  122MOL   H27239234   5.937   2.750   7.248 -1.2476 -1.4634 -0.0569
  122MOL   H27339235   6.073   2.680   7.327  1.3189 -2.9930 -0.4457
  122MOL   C27439236   6.112   2.786   7.137 -0.3753 -0.2332  0.2027
  122MOL   C27539237   6.129   2.930   7.191 -0.0770 -0.2208 -0.0001
  122MOL   C27639238   6.185   2.957   7.315  0.5586  0.0416 -0.2752
  122MOL   C27739239   6.210   3.087   7.359 -0.3540 -0.2605  0.0672
  122MOL   C27839240   6.172   3.198   7.282  0.1615  0.7250 -0.1801
  122MOL   F27939241   6.209   3.321   7.318  0.1474  0.1163  0.1972
  122MOL   C28039242   6.107   3.174   7.155 -0.4348 -0.1269  0.0027
  122MOL   C28139243   6.089   3.045   7.114  0.6913  0.9487 -0.1691
  122MOL   C28239244   6.250   2.740   7.087  0.1985  0.4298 -0.1139
  122MOL   H28339245   6.046   2.810   7.054 -0.5030  0.3731  0.4835
  122MOL   H28439246   6.216   2.871   7.374 -1.8118 -0.4235  0.3441
  122MOL   H28539247   6.240   3.100   7.462 -0.5285 -0.7079  0.1758
  122MOL   H28639248   6.080   3.252   7.085 -0.5897 -0.7237 -0.6089
  122MOL   H28739249   6.046   3.030   7.015  3.2176 -3.6314 -0.7344
  122MOL   H28839250   6.312   2.740   7.177 -0.7594  0.8118  0.5500
  122MOL   H28939251   6.257   2.635   7.059 -0.5529  0.3731 -0.0790
  122MOL   C29039252   6.306   2.833   6.975 -0.1869 -0.4129  0.6778
  122MOL   C29139253   6.455   2.836   6.983 -0.2794  0.9836 -0.3058
  122MOL   C29239254   6.534   2.728   6.947  0.4250  1.0919 -0.0232
  122MOL   C29339255   6.670   2.731   6.971 -0.3965 -0.2798 -0.2386
  122MOL   C29439256   6.729   2.850   7.022  0.2432 -0.1720 -0.3385
  122MOL   F29539257   6.859   2.861   7.037 -0.2032 -0.3754 -0.4433
  122MOL   C29639258   6.654   2.972   7.041 -0.0039 -0.3521 -0.2624
  122MOL   C29739259   6.516   2.960   7.021  0.1715 -0.1595  0.4156
  122MOL   C29839260   6.259   2.784   6.832  0.0592  0.5556 -0.3092
  122MOL   H29939261   6.267   2.934   6.984 -1.0029 -0.5336 -1.2860
  122MOL   H30039262   6.487   2.635   6.916  1.9835  0.1787  0.2907
  122MOL   H30139263   6.734   2.647   6.952 -0.1262 -0.1932  0.2849
  122MOL   H30239264   6.699   3.062   7.081 -4.0900  1.0603  1.3844
  122MOL   H30339265   6.454   3.047   7.028 -0.1688 -0.3940  0.3174
  122MOL   H30439266   6.338   2.724   6.786  0.7288 -1.3509  3.1514
  122MOL   H30539267   6.179   2.712   6.850  0.7957  0.8146  4.7815
  122MOL   C30639268   6.196   2.891   6.749 -0.2109  0.2577 -0.1523
  122MOL   C30739269   6.286   3.005   6.717  0.0315 -0.0680 -0.0917
  122MOL   C30839270   6.231   3.131   6.720  0.3151  0.4576 -0.1354
  122MOL   C30939271   6.317   3.242   6.693  0.5458  0.1303 -0.4800
  122MOL   C31039272   6.448   3.218   6.650 -0.8083 -0.5406  0.3896
  122MOL   F31139273   6.538   3.323   6.636  0.1120 -0.2188 -0.1221
  122MOL   C31239274   6.502   3.088   6.629 -0.5920 -0.1423  0.2469
  122MOL   C31339275   6.413   2.982   6.665  0.7286 -0.3451  0.2036
  122MOL   C31439276   6.133   2.829   6.623  0.6137 -0.1785  0.0536
  122MOL   H31539277   6.112   2.931   6.806 -0.9500  2.2759 -2.5707
  122MOL   H31639278   6.132   3.154   6.757 -1.3177  1.1372 -4.5463
  122MOL   H31739279   6.277   3.340   6.716 -2.0857 -1.2345  0.9084
  122MOL   H31839280   6.596   3.061   6.582 -0.7382 -0.5844  0.2079
  122MOL   H31939281   6.452   2.887   6.633  2.4122 -0.4464  2.4225
  122MOL   H32039282   6.215   2.796   6.560 -0.0805 -0.1383 -0.8782
  122MOL   H32139283   6.058   2.753   6.645 -0.9855  1.1219 -0.7759
  122MOL   H32239284   6.095   2.915   6.568  0.7140  0.3481  0.8020
  123MOL     C139285   3.657   6.029   0.189 -0.2660 -0.1776 -0.2584
  123MOL     C239286   3.560   5.918   0.135 -0.1481  0.0647  1.0258
  123MOL     C339287   3.617   5.828   0.038 -1.0221  0.0007  0.7369
  123MOL     C439288   3.539   5.717   8.232  0.2517  0.5017  0.1627
  123MOL     C539289   3.405   5.713   0.030  0.3492  0.4487 -0.0211
  123MOL     F639290   3.326   5.612   8.214  0.1193 -0.2912  0.2622
  123MOL     C739291   3.349   5.809   0.116 -0.4665 -0.1235 -0.3502
  123MOL     C839292   3.425   5.908   0.169  0.2598  0.2865  0.4245
  123MOL     C939293   3.669   6.005   0.336  0.7680 -0.7028  0.0009
  123MOL    H1039294   3.604   6.122   0.168  0.3196  0.3845  0.7611
  123MOL    H1139295   3.721   5.833   0.009 -1.1372 -1.3097  0.0866
  123MOL    H1239296   3.577   5.641   8.166  0.3304  2.2781 -1.9026
  123MOL    H1339297   3.243   5.815   0.133 -1.0291  0.4802 -3.8235
  123MOL    H1439298   3.386   5.984   0.234 -0.1203  0.7010 -0.2780
  123MOL    H1539299   3.579   6.014   0.396  0.6183  2.3069 -0.5940
  123MOL    H1639300   3.687   5.897   0.345  0.9735 -0.5428  1.5911
  123MOL    H1739301   3.750   6.032   0.132 -0.4871 -1.5260 -0.7295
  123MOL    C1839302   3.800   6.062   0.394 -0.0338 -0.2416  0.5015
  123MOL    C1939303   3.795   6.213   0.413 -0.1107 -0.0132 -0.5094
  123MOL    C2039304   3.688   6.284   0.472 -0.4648  0.0990  0.1391
  123MOL    C2139305   3.691   6.421   0.487 -0.7940  0.0971  0.3493
  123MOL    C2239306   3.800   6.488   0.441  0.0562  0.1894  0.3727
  123MOL    F2339307   3.808   6.623   0.455  0.1663 -0.1367 -0.0271
  123MOL    C2439308   3.912   6.417   0.380 -0.4788 -0.5807 -0.3211
  123MOL    C2539309   3.907   6.281   0.358  0.0285  0.2528  0.0564
  123MOL    C2639310   3.832   5.988   0.525 -0.1673  0.9823  0.1203
  123MOL    H2739311   3.880   6.041   0.324 -0.3610 -1.4149  0.4671
  123MOL    H2839312   3.604   6.229   0.510  0.1435  0.2166  1.6856
  123MOL    H2939313   3.610   6.476   0.532 -0.0502  1.2192  0.3510
  123MOL    H3039314   3.999   6.469   0.343 -0.2460 -2.4679 -2.5731
  123MOL    H3139315   3.982   6.222   0.308  1.6362  1.2184  1.2989
  123MOL    H3239316   3.905   6.050   0.576 -2.6920  3.7468  0.4943
  123MOL    H3339317   3.738   5.991   0.580  0.0244  0.0138  0.5177
  123MOL    C3439318   3.886   5.843   0.521 -0.5511  0.3566 -0.2993
  123MOL    C3539319   4.012   5.826   0.425  0.4247  0.1263  0.1524
  123MOL    C3639320   4.028   5.721   0.327 -0.1300  0.8715  0.0072
  123MOL    C3739321   4.145   5.711   0.252 -0.2100  0.8176 -0.0426
  123MOL    C3839322   4.252   5.802   0.265  0.2465  0.4224  0.4382
  123MOL    F3939323   4.367   5.801   0.193 -0.4419  0.0981  0.5813
  123MOL    C4039324   4.227   5.914   0.351 -0.3729  0.2923  0.5003
  123MOL    C4139325   4.111   5.924   0.431 -0.4639  0.2123 -0.1770
  123MOL    C4239326   3.924   5.795   0.661  0.3574  0.4235  0.1050
  123MOL    H4339327   3.815   5.774   0.475  0.7949 -1.0555 -0.3085
  123MOL    H4439328   3.957   5.643   0.303  2.6456 -0.7375 -3.2799
  123MOL    H4539329   4.150   5.641   0.170 -1.3655  0.1017  0.4829
  123MOL    H4639330   4.305   5.988   0.354  0.5637 -0.6685  0.0359
  123MOL    H4739331   4.106   6.004   0.504  1.1578 -0.2988  0.5281
  123MOL    H4839332   4.008   5.853   0.699 -0.8444  2.2698 -0.0065
  123MOL    H4939333   3.846   5.813   0.736  1.2557  0.3710  1.0586
  123MOL    C5039334   3.958   5.644   0.663 -0.3669  0.0166 -0.8608
  123MOL    C5139335   4.011   5.606   0.802 -0.1514  0.0064  0.3936
  123MOL    C5239336   3.929   5.576   0.912  0.0020  0.2365  0.2364
  123MOL    C5339337   3.984   5.536   1.035  0.1769  0.3710 -0.1869
  123MOL    C5439338   4.127   5.543   1.041  0.4919  0.6012 -0.1633
  123MOL    F5539339   4.187   5.494   1.152 -0.3419  0.0230  0.2149
  123MOL    C5639340   4.208   5.587   0.934  0.1173  0.1399 -0.3899
  123MOL    C5739341   4.149   5.612   0.808 -0.1272  0.5633  0.2676
  123MOL    C5839342   3.830   5.557   0.630 -0.3954 -0.5652 -0.0147
  123MOL    H5939343   4.036   5.623   0.589  0.2057 -0.2289 -0.1945
  123MOL    H6039344   3.823   5.565   0.895  0.4115 -1.4820 -1.4370
  123MOL    H6139345   3.924   5.506   1.120  1.2046  2.2447  1.2522
  123MOL    H6239346   4.315   5.588   0.944  0.2246 -0.6338 -1.3369
  123MOL    H6339347   4.209   5.643   0.724  0.1539  0.1889  0.3288
  123MOL    H6439348   3.752   5.588   0.700 -0.6108  0.1220 -0.5566
  123MOL    H6539349   3.787   5.589   0.535  1.0103  2.9625  0.4699
  123MOL    C6639350   3.831   5.407   0.600  0.3266 -0.1077 -0.4448
  123MOL    C6739351   3.947   5.377   0.507  0.1980 -0.5887 -0.2739
  123MOL    C6839352   4.072   5.332   0.557  0.1859 -0.5155  0.7437
  123MOL    C6939353   4.183   5.325   0.466 -0.1815  0.5319 -0.3567
  123MOL    C7039354   4.167   5.352   0.330  0.1451  0.1326  0.3152
  123MOL    F7139355   4.283   5.361   0.255 -0.0900  0.2022  0.2075
  123MOL    C7239356   4.035   5.382   0.282 -0.8049 -0.6161  0.4546
  123MOL    C7339357   3.924   5.395   0.366 -0.6797  0.7016 -0.5882
  123MOL    C7439358   3.831   5.319   0.731  0.0960 -0.3713 -0.3851
  123MOL    H7539359   3.735   5.386   0.554  0.8594  0.7811 -1.9870
  123MOL    H7639360   4.088   5.309   0.661  2.5452  1.8528  0.9555
  123MOL    H7739361   4.280   5.308   0.510 -1.5457 -1.5341  1.9535
  123MOL    H7839362   4.007   5.386   0.178 -1.8588 -2.3397  0.6632
  123MOL    H7939363   3.829   5.429   0.329 -0.0041  3.0180 -0.3222
  123MOL    H8039364   3.919   5.334   0.793 -0.6540  0.3785  0.5109
  123MOL    H8139365   3.754   5.352   0.802  0.2797 -0.9090  0.0737
  123MOL    C8239366   3.808   5.162   0.710 -0.4091 -0.0064 -0.0935
  123MOL    C8339367   3.908   5.080   0.784  0.4122 -0.2995  0.3981
  123MOL    C8439368   3.958   5.119   0.909  0.6896 -0.2763  0.0770
  123MOL    C8539369   4.064   5.049   0.963  0.4595 -0.4436  0.2365
  123MOL    C8639370   4.132   4.946   0.895  0.1952 -0.1947  0.1322
  123MOL    F8739371   4.248   4.900   0.943 -0.3345 -0.2870 -0.6991
  123MOL    C8839372   4.069   4.894   0.780 -0.2974  0.3219  0.7644
  123MOL    C8939373   3.956   4.959   0.722  0.2543  0.2554  0.0757
  123MOL    C9039374   3.655   5.121   0.748 -0.5502  0.0877  0.6269
  123MOL    H9139375   3.832   5.136   0.607 -0.9030  3.9656 -1.2782
  123MOL    H9239376   3.922   5.205   0.964  0.6266 -0.9232  1.0760
  123MOL    H9339377   4.110   5.094   1.050  0.9428  1.9093 -1.1780
  123MOL    H9439378   4.121   4.813   0.731  0.3879  0.2070  1.6594
  123MOL    H9539379   3.923   4.928   0.624 -1.7238  1.4322  0.3401
  123MOL    H9639380   3.651   5.015   0.770  1.9516  0.0801  1.1828
  123MOL    H9739381   3.631   5.161   0.847 -1.6502  1.0491 -0.0132
  123MOL    C9839382   3.551   5.165   0.647  0.5553 -0.1715  0.2223
  123MOL    C9939383   3.586   5.125   0.500  0.2516  0.0385 -0.1290
  123MOL   C10039384   3.618   4.993   0.467 -0.0235  0.5926  0.1222
  123MOL   C10139385   3.641   4.960   0.329 -0.0541  0.4173 -0.4110
  123MOL   C10239386   3.646   5.057   0.230  0.0560 -0.4461  0.1569
  123MOL   F10339387   3.676   5.022   0.103  0.2137  0.1314 -0.4348
  123MOL   C10439388   3.621   5.190   0.264  0.8566  0.2046 -0.3207
  123MOL   C10539389   3.588   5.224   0.399 -0.4582  0.1311 -0.3864
  123MOL   C10639390   3.404   5.131   0.697 -0.7613 -0.2090 -0.0732
  123MOL   H10739391   3.564   5.273   0.652  0.5285 -0.2416  2.7274
  123MOL   H10839392   3.611   4.918   0.545 -3.3365  2.4626  1.7168
  123MOL   H10939393   3.654   4.853   0.322  1.8498  0.4791  1.5542
  123MOL   H11039394   3.631   5.256   0.179  0.3750  2.4829  1.3309
  123MOL   H11139395   3.569   5.329   0.414  2.7599  0.5314  1.2396
  123MOL   H11239396   3.339   5.175   0.621  2.0618  2.6695 -0.9125
  123MOL   H11339397   3.392   5.022   0.697  2.1986 -0.5990 -1.1574
  123MOL   C11439398   3.356   5.200   0.820 -0.3096  0.9380 -0.6571
  123MOL   C11539399   3.373   5.353   0.814 -0.0922 -0.5024 -0.5498
  123MOL   C11639400   3.483   5.415   0.881 -0.6946  0.7984 -0.0233
  123MOL   C11739401   3.490   5.554   0.897  0.6738 -0.1043 -0.2158
  123MOL   C11839402   3.393   5.638   0.839  0.0484  0.1966 -0.3269
  123MOL   F11939403   3.415   5.770   0.845  0.3124 -0.5003 -0.4477
  123MOL   C12039404   3.295   5.580   0.755 -0.4099  0.1465 -0.8874
  123MOL   C12139405   3.278   5.440   0.750  0.0906 -0.1212  0.5891
  123MOL   C12239406   3.209   5.169   0.855  0.6685 -0.4438  0.1139
  123MOL   H12339407   3.420   5.166   0.901 -1.0423 -1.2534 -0.9488
  123MOL   H12439408   3.559   5.356   0.930 -0.9274 -1.1535 -1.9380
  123MOL   H12539409   3.568   5.602   0.955  0.4762 -0.4069  0.3017
  123MOL   H12639410   3.228   5.645   0.701 -0.6541 -0.1683 -0.9704
  123MOL   H12739411   3.197   5.399   0.691  0.5961 -0.7589  0.3307
  123MOL   H12839412   3.138   5.199   0.778 -2.3617 -2.0301  2.1806
  123MOL   H12939413   3.201   5.060   0.856 -0.6294 -0.3554  0.0594
  123MOL   C13039414   3.162   5.221   0.988 -0.6865 -0.0050  0.1212
  123MOL   C13139415   3.015   5.207   1.009  0.5088  0.2501 -0.7530
  123MOL   C13239416   2.949   5.300   1.087  0.9391  0.1938  0.5042
  123MOL   C13339417   2.809   5.283   1.103  0.3782 -0.5034  0.1821
  123MOL   C13439418   2.738   5.175   1.041  0.1062 -0.1775  0.6802
  123MOL   F13539419   2.608   5.162   1.063 -0.1256 -0.5884  0.6541
  123MOL   C13639420   2.811   5.075   0.973  0.3557  0.4045  0.3692
  123MOL   C13739421   2.948   5.095   0.952  0.2879 -0.1159  0.4140
  123MOL   C13839422   3.237   5.191   1.108 -0.2574  0.3755  0.3260
  123MOL   H13939423   3.172   5.329   0.987 -1.7574  0.0979  0.7611
  123MOL   H14039424   2.998   5.381   1.140 -0.7646  0.1400  2.2432
  123MOL   H14139425   2.749   5.345   1.168 -0.4295  0.4315 -1.4454
  123MOL   H14239426   2.778   4.979   0.935 -0.2713  0.3518  1.0487
  123MOL   H14339427   3.003   5.021   0.896 -0.0341  0.1041 -0.1962
  123MOL   H14439428   3.336   5.237   1.098 -0.3709  0.6645  0.5598
  123MOL   H14539429   3.204   5.246   1.196  0.6462 -0.2768  1.0818
  123MOL   C14639430   3.250   5.044   1.153 -0.0229 -0.4973 -0.1394
  123MOL   C14739431   3.356   4.966   1.082  0.5643  0.1824 -0.4592
  123MOL   C14839432   3.311   4.866   0.996  0.7292  0.0705  0.3224
  123MOL   C14939433   3.404   4.791   0.922 -0.0909 -0.4369 -0.2325
  123MOL   C15039434   3.546   4.813   0.930  0.3317  0.2840 -0.0804
  123MOL   F15139435   3.627   4.730   0.854  0.3560  0.4414 -0.5973
  123MOL   C15239436   3.587   4.912   1.017 -0.1650 -0.0016 -0.3303
  123MOL   C15339437   3.498   4.983   1.102  0.3031  0.2077 -0.1734
  123MOL   C15439438   3.271   5.025   1.304 -0.5598  0.0767  0.2432
  123MOL   H15539439   3.156   4.992   1.133 -0.4784  0.7826 -1.4225
  123MOL   H15639440   3.205   4.848   0.988  0.7840  0.3168 -0.9484
  123MOL   H15739441   3.365   4.716   0.856  0.0847 -1.4411  0.7825
  123MOL   H15839442   3.693   4.932   1.023  0.0131 -0.9242 -0.3514
  123MOL   H15939443   3.536   5.055   1.173  1.0781 -1.9255  1.6361
  123MOL   H16039444   3.336   4.945   1.341 -0.9844 -1.8944 -3.0641
  123MOL   H16139445   3.326   5.113   1.340 -1.4733  0.8605 -0.2754
  123MOL   C16239446   3.136   5.013   1.375  0.1754 -0.0978  0.4038
  123MOL   C16339447   3.061   4.885   1.343  0.7186  0.2816 -0.0577
  123MOL   C16439448   2.924   4.896   1.313 -0.6929  0.2973 -0.0178
  123MOL   C16539449   2.858   4.784   1.261  0.0316  0.4128  0.1459
  123MOL   C16639450   2.911   4.660   1.251 -0.1111  0.1902  0.3532
  123MOL   F16739451   2.841   4.553   1.214 -0.0591  0.2755 -0.0466
  123MOL   C16839452   3.052   4.643   1.289  0.8166  0.4992 -0.2217
  123MOL   C16939453   3.127   4.759   1.322 -0.2434 -0.6186  1.1160
  123MOL   C17039454   3.149   5.015   1.532 -0.3042  0.3233  0.2940
  123MOL   H17139455   3.084   5.103   1.342  1.2126  0.6695  0.8413
  123MOL   H17239456   2.883   4.996   1.326  2.9142  1.7736  0.6888
  123MOL   H17339457   2.753   4.794   1.237  0.4958  1.5928 -1.4781
  123MOL   H17439458   3.100   4.547   1.278  0.3762  0.1906  0.5651
  123MOL   H17539459   3.234   4.758   1.329 -0.2652 -0.5038  1.4636
  123MOL   H17639460   3.065   4.954   1.566  0.0852 -1.0784 -1.2375
  123MOL   H17739461   3.237   4.957   1.558 -0.4368 -1.1659 -2.4693
  123MOL   C17839462   3.135   5.156   1.599  0.0159  0.7310  0.3849
  123MOL   C17939463   3.009   5.218   1.546  0.2196  0.4762  0.0893
  123MOL   C18039464   2.880   5.163   1.574 -0.2255 -0.3564  0.0153
  123MOL   C18139465   2.767   5.226   1.523  0.1774  0.4793  0.0512
  123MOL   C18239466   2.784   5.341   1.441 -0.2970  0.0793 -0.0077
  123MOL   F18339467   2.677   5.400   1.388 -0.0827 -0.0069 -0.2341
  123MOL   C18439468   2.908   5.395   1.413 -0.0613  0.1879  0.2324
  123MOL   C18539469   3.018   5.331   1.462 -0.6757 -0.5862  0.1324
  123MOL   C18639470   3.128   5.147   1.748 -0.4156  0.3070  0.4139
  123MOL   H18739471   3.224   5.212   1.572  0.3475 -0.0034 -0.0681
  123MOL   H18839472   2.869   5.070   1.627  0.3486 -3.2976 -4.6454
  123MOL   H18939473   2.670   5.183   1.544  0.7569 -0.2278  1.3357
  123MOL   H19039474   2.915   5.484   1.353  1.5502  0.8258  1.3426
  123MOL   H19139475   3.114   5.379   1.446  1.2041 -2.8671  3.7892
  123MOL   H19239476   3.073   5.232   1.789 -3.0082 -1.0575 -0.1554
  123MOL   H19339477   3.060   5.067   1.775 -1.5296  2.3311  3.8474
  123MOL   C19439478   3.268   5.124   1.820 -0.1658 -0.0301 -0.2765
  123MOL   C19539479   3.364   5.238   1.785 -0.4025  0.5372 -0.2921
  123MOL   C19639480   3.323   5.369   1.808  0.6251  0.2366 -0.1519
  123MOL   C19739481   3.418   5.476   1.791 -0.6117 -0.2663  0.0144
  123MOL   C19839482   3.544   5.453   1.737  0.0437 -0.1670 -0.1047
  123MOL   F19939483   3.641   5.549   1.720 -0.1973  0.2547  0.1558
  123MOL   C20039484   3.580   5.319   1.706  0.0374  0.0882 -0.2826
  123MOL   C20139485   3.495   5.214   1.742 -0.8985  0.9050 -0.2781
  123MOL   C20239486   3.246   5.105   1.972  0.2963 -0.2168 -0.0628
  123MOL   H20339487   3.316   5.037   1.776  0.5379 -0.2083  0.8258
  123MOL   H20439488   3.222   5.392   1.836  0.9493  2.4478 -0.6357
  123MOL   H20539489   3.382   5.575   1.812  1.5780  1.0057 -2.0823
  123MOL   H20639490   3.679   5.292   1.671  0.4241  0.5672  0.4376
  123MOL   H20739491   3.539   5.116   1.734  1.5376  1.8846  0.5957
  123MOL   H20839492   3.195   5.188   2.021  0.1632  0.9641 -2.1474
  123MOL   H20939493   3.188   5.018   2.001  0.9652 -0.5393  0.3104
  123MOL   C21039494   3.382   5.068   2.042  0.7769 -0.4552 -0.3273
  123MOL   C21139495   3.372   5.114   2.189  0.3323  0.0954 -0.5429
  123MOL   C21239496   3.307   5.048   2.294  0.2127  0.0767  0.1116
  123MOL   C21339497   3.318   5.101   2.427  0.0456 -0.5202 -0.1919
  123MOL   C21439498   3.414   5.199   2.457  0.2226  0.7481 -0.3431
  123MOL   F21539499   3.429   5.231   2.588 -0.2856  0.0492 -0.2241
  123MOL   C21639500   3.472   5.279   2.351 -0.3478 -0.0665  0.9451
  123MOL   C21739501   3.448   5.232   2.216 -0.2748 -0.0652  0.3630
  123MOL   C21839502   3.421   4.920   2.032 -0.8975  0.5459 -0.7958
  123MOL   H21939503   3.465   5.123   1.999  1.1138 -2.2419 -2.0553
  123MOL   H22039504   3.250   4.958   2.280 -1.9023  0.9684  2.7047
  123MOL   H22139505   3.276   5.047   2.511 -1.3222  1.1035  0.2096
  123MOL   H22239506   3.541   5.357   2.379  1.2474 -2.1323  2.9052
  123MOL   H22339507   3.496   5.288   2.137 -1.4383 -0.1390 -0.4075
  123MOL   H22439508   3.401   4.871   2.127  0.0439  0.5640 -0.5795
  123MOL   H22539509   3.360   4.865   1.961 -1.3193  0.9138 -0.7198
  123MOL   C22639510   3.567   4.889   1.977 -0.6944  0.3734 -0.3684
  123MOL   C22739511   3.678   4.950   2.062  0.1435 -0.7894  0.2984
  123MOL   C22839512   3.690   4.945   2.201  0.0123 -0.0076 -0.0659
  123MOL   C22939513   3.799   5.021   2.258  0.1883  0.5592  0.0781
  123MOL   C23039514   3.904   5.076   2.191 -0.3602 -0.1541 -0.1251
  123MOL   F23139515   4.001   5.133   2.258 -0.5861 -0.1534  0.7404
  123MOL   C23239516   3.904   5.074   2.053  0.1523  0.5564 -0.2285
  123MOL   C23339517   3.790   5.006   1.991  0.4380  1.1608  0.3043
  123MOL   C23439518   3.588   4.732   1.961 -0.4693  0.5662 -0.2984
  123MOL   H23539519   3.587   4.938   1.882 -0.1932  2.0084  0.5553
  123MOL   H23639520   3.613   4.905   2.265  1.3121  1.7618  2.6615
  123MOL   H23739521   3.790   5.023   2.366 -0.2450  0.8011  0.0418
  123MOL   H23839522   3.992   5.116   2.007  1.0458 -1.0086 -0.0024
  123MOL   H23939523   3.795   4.995   1.883 -0.2012 -0.8071  0.4575
  123MOL   H24039524   3.587   4.696   2.064 -1.2829  1.3817 -0.0188
  123MOL   H24139525   3.500   4.692   1.910  0.0219 -0.9745  0.0366
  123MOL   C24239526   3.711   4.682   1.884  0.1659 -0.1397  0.5563
  123MOL   C24339527   3.842   4.677   1.960 -0.2934  0.0617  0.1337
  123MOL   C24439528   3.850   4.616   2.086 -0.8110 -0.1142  0.2490
  123MOL   C24539529   3.974   4.601   2.150  0.1204 -0.1235  0.3637
  123MOL   C24639530   4.089   4.645   2.083 -0.0654 -0.6822 -0.1667
  123MOL   F24739531   4.212   4.634   2.143 -0.1294  0.3583 -0.1640
  123MOL   C24839532   4.084   4.696   1.954 -0.7032 -0.1149 -0.5906
  123MOL   C24939533   3.960   4.722   1.899 -0.3605  0.8192 -0.7191
  123MOL   C25039534   3.688   4.540   1.829 -0.1422 -0.3241 -0.1613
  123MOL   H25139535   3.717   4.747   1.796  0.3106  0.9931  1.3958
  123MOL   H25239536   3.762   4.570   2.128  0.6270 -3.2414 -0.0382
  123MOL   H25339537   3.978   4.545   2.242  2.8374  2.3655  1.8241
  123MOL   H25439538   4.164   4.747   1.903 -1.0548  2.2082  1.1123
  123MOL   H25539539   3.960   4.771   1.803 -1.8138 -0.0553 -1.1679
  123MOL   H25639540   3.692   4.479   1.919  0.9195 -0.3147 -0.1924
  123MOL   H25739541   3.587   4.523   1.793 -0.6693 -3.5723  2.6054
  123MOL   C25839542   3.782   4.485   1.724 -0.4774  0.0486 -0.5811
  123MOL   C25939543   3.756   4.338   1.710 -0.2595  1.0220  0.2794
  123MOL   C26039544   3.847   4.246   1.761  0.3251  0.2778 -0.5972
  123MOL   C26139545   3.832   4.105   1.736  0.2583  0.0798 -0.2327
  123MOL   C26239546   3.712   4.054   1.681  0.2770  0.4165  0.4754
  123MOL   F26339547   3.690   3.922   1.676 -0.3476  0.7028  0.0979
  123MOL   C26439548   3.621   4.146   1.638  0.5731 -0.1318  0.5302
  123MOL   C26539549   3.644   4.287   1.642  0.2521  0.6587 -0.1204
  123MOL   C26639550   3.790   4.556   1.592  0.4683  0.3736  0.1406
  123MOL   H26739551   3.878   4.501   1.772 -0.9284  0.5315  0.1670
  123MOL   H26839552   3.935   4.283   1.812  1.7429 -1.5824 -1.6097
  123MOL   H26939553   3.911   4.036   1.760  0.5424  0.8824  1.1983
  123MOL   H27039554   3.523   4.112   1.609  0.2591  1.0349  0.2107
  123MOL   H27139555   3.571   4.355   1.600 -0.7934 -0.7751 -0.6641
  123MOL   H27239556   3.688   4.583   1.567  0.8154  0.4002 -1.3238
  123MOL   H27339557   3.837   4.651   1.619  0.5590  0.3497  0.0704
  123MOL   C27439558   3.866   4.481   1.464 -0.4958 -0.8165 -0.2219
  123MOL   C27539559   3.879   4.567   1.337  0.4564 -0.6805  0.0102
  123MOL   C27639560   3.826   4.522   1.211 -0.2623  0.4827 -0.3903
  123MOL   C27739561   3.836   4.607   1.105 -0.2741  0.1803 -0.5007
  123MOL   C27839562   3.907   4.725   1.112  0.3505  0.1947  0.1341
  123MOL   F27939563   3.914   4.794   1.001  0.3001  0.0775  0.2387
  123MOL   C28039564   3.964   4.770   1.232  0.1364 -0.2710 -0.5571
  123MOL   C28139565   3.951   4.689   1.346 -0.5916 -0.0669  0.5453
  123MOL   C28239566   4.010   4.427   1.494 -0.3863  0.0964 -1.0121
  123MOL   H28339567   3.802   4.397   1.436 -2.6647 -0.3996  3.1992
  123MOL   H28439568   3.780   4.424   1.204  2.7088 -0.8656 -2.2449
  123MOL   H28539569   3.796   4.583   1.007  1.6067 -1.8570 -0.8227
  123MOL   H28639570   4.014   4.865   1.229  0.4455 -0.4366 -0.7745
  123MOL   H28739571   3.996   4.716   1.440 -0.8811  1.5040  0.2399
  123MOL   H28839572   4.070   4.516   1.515  1.8015 -1.4399 -0.4973
  123MOL   H28939573   4.001   4.374   1.589 -0.2381  2.0195  0.0945
  123MOL   C29039574   4.079   4.336   1.389 -0.1686 -0.1012  0.5183
  123MOL   C29139575   4.216   4.289   1.448 -0.5388  0.2408  0.1373
  123MOL   C29239576   4.223   4.220   1.570  0.3662  0.1100  0.5975
  123MOL   C29339577   4.349   4.174   1.617 -0.3839 -0.1402  0.1873
  123MOL   C29439578   4.464   4.193   1.538  0.1082 -0.1271 -0.2525
  123MOL   F29539579   4.585   4.150   1.578  0.0235 -0.0403  0.1973
  123MOL   C29639580   4.456   4.263   1.417 -0.6109 -0.1327 -0.1141
  123MOL   C29739581   4.337   4.316   1.381  0.1452  0.1827 -0.4522
  123MOL   C29839582   3.979   4.221   1.356  0.4056  0.7183  0.6812
  123MOL   H29939583   4.097   4.397   1.301  0.0575 -0.1528  0.5266
  123MOL   H30039584   4.134   4.208   1.631  1.5059  0.4871  2.3836
  123MOL   H30139585   4.375   4.120   1.707  1.3262 -0.0012 -0.1923
  123MOL   H30239586   4.551   4.268   1.366 -0.6111 -0.8095 -0.1862
  123MOL   H30339587   4.330   4.370   1.288  0.1664  1.5359  0.3285
  123MOL   H30439588   3.946   4.190   1.455 -0.6028  1.5970  0.6238
  123MOL   H30539589   3.895   4.267   1.303  0.1868 -1.0898 -0.5732
  123MOL   C30639590   4.021   4.090   1.283 -0.5109  0.5431 -0.3145
  123MOL   C30739591   3.910   3.981   1.287  0.3503 -0.5359 -1.2111
  123MOL   C30839592   3.953   3.846   1.259 -0.1905  0.6048  0.0327
  123MOL   C30939593   3.859   3.749   1.261 -0.6656  0.0234  0.5476
  123MOL   C31039594   3.721   3.778   1.266 -0.4864  0.2214 -0.3674
  123MOL   F31139595   3.627   3.681   1.268  0.4409  0.0427 -0.4317
  123MOL   C31239596   3.677   3.913   1.282 -0.4025 -0.0483 -0.2204
  123MOL   C31339597   3.772   4.017   1.296 -0.4213  0.3278 -0.6636
  123MOL   C31439598   4.079   4.134   1.147  0.5297 -0.3837  0.0300
  123MOL   H31539599   4.099   4.051   1.349  0.2450  1.9378 -0.3775
  123MOL   H31639600   4.058   3.824   1.242  0.1534  1.3210  1.1946
  123MOL   H31739601   3.896   3.647   1.261 -0.8366 -0.0600 -2.4620
  123MOL   H31839602   3.572   3.939   1.290 -0.8835 -1.5709 -1.2031
  123MOL   H31939603   3.738   4.119   1.298  0.4485  0.6345 -1.2871
  123MOL   H32039604   4.122   4.044   1.104 -2.2540 -1.3521 -0.8639
  123MOL   H32139605   3.994   4.163   1.085  0.6533  3.1087  1.4160
  123MOL   H32239606   4.148   4.218   1.149  0.2028 -0.0843 -0.8772
  124MOL     C139607   4.263   7.636   4.029  0.5352  0.0508 -0.5723
  124MOL     C239608   4.168   7.746   4.072  0.0957  0.2358 -0.0316
  124MOL     C339609   4.060   7.720   4.160  0.1663 -0.2777 -0.1132
  124MOL     C439610   3.975   7.820   4.210  0.2225  0.3126  0.2751
  124MOL     C539611   3.995   7.947   4.168  0.5990  0.0819  0.5431
  124MOL     F639612   3.924   8.053   4.223  0.5189 -0.3423 -0.6004
  124MOL     C739613   4.097   7.974   4.074 -0.5444  0.0926  0.5036
  124MOL     C839614   4.185   7.877   4.027 -0.5706 -0.4803  0.5785
  124MOL     C939615   4.392   7.642   4.103 -0.2845 -0.0860 -0.0137
  124MOL    H1039616   4.282   7.641   3.922 -0.4513 -0.4791 -0.7824
  124MOL    H1139617   4.038   7.624   4.206 -0.4100  0.5017  1.2553
  124MOL    H1239618   3.909   7.790   4.291 -0.1163  0.8387  0.1934
  124MOL    H1339619   4.113   8.077   4.046 -2.2895  0.3357  0.3048
  124MOL    H1439620   4.274   7.906   3.974  0.6844 -2.1575  1.6755
  124MOL    H1539621   4.460   7.567   4.061  1.1193 -1.0161  3.7573
  124MOL    H1639622   4.445   7.735   4.085 -0.5423 -0.5170 -3.4809
  124MOL    H1739623   4.208   7.543   4.039 -0.2349  0.6006  0.4145
  124MOL    C1839624   4.370   7.622   4.260 -0.0727 -0.5402 -0.5045
  124MOL    C1939625   4.286   7.502   4.304 -0.3689  0.4468  0.6037
  124MOL    C2039626   4.306   7.370   4.245  0.2550  0.4427 -0.5110
  124MOL    C2139627   4.229   7.260   4.288  0.3938  0.7090  0.1531
  124MOL    C2239628   4.117   7.275   4.373 -0.1974  0.6876 -0.1166
  124MOL    F2339629   4.044   7.167   4.409  0.3583  0.2186 -0.2986
  124MOL    C2439630   4.096   7.405   4.430 -0.0736 -0.4628 -0.1116
  124MOL    C2539631   4.178   7.517   4.395 -0.1122 -0.1373  0.0346
  124MOL    C2639632   4.503   7.618   4.333 -0.0444 -0.1332  0.2008
  124MOL    H2739633   4.316   7.707   4.301  1.4737  0.8472 -1.3296
  124MOL    H2839634   4.388   7.351   4.177  0.6296  0.4908 -0.0770
  124MOL    H2939635   4.247   7.164   4.242  2.9628  1.3010 -0.1619
  124MOL    H3039636   4.013   7.419   4.497 -0.7845 -1.2634 -0.8261
  124MOL    H3139637   4.168   7.611   4.447  0.2414 -0.2532  0.3101
  124MOL    H3239638   4.498   7.573   4.432  0.8938 -0.0903  0.2730
  124MOL    H3339639   4.559   7.534   4.292 -2.6155 -2.1759  0.6805
  124MOL    C3439640   4.590   7.751   4.338 -0.3151 -0.2407  0.6462
  124MOL    C3539641   4.527   7.868   4.404 -0.3357  0.3473 -0.4831
  124MOL    C3639642   4.527   7.993   4.329  0.5722 -0.1586 -0.4398
  124MOL    C3739643   4.475   8.110   4.392  0.3306  0.7662  0.5305
  124MOL    C3839644   4.441   8.109   4.532 -0.3092  0.2972 -0.2463
  124MOL    F3939645   4.394   8.220   4.593  0.1889 -0.4022  0.0722
  124MOL    C4039646   4.437   7.984   4.602  0.1196 -0.2762  0.1465
  124MOL    C4139647   4.483   7.869   4.535  0.7202 -0.4237  0.0945
  124MOL    C4239648   4.728   7.722   4.408 -0.2533 -0.2280 -0.3176
  124MOL    H4339649   4.611   7.785   4.236  5.2425 -1.5418  1.1917
  124MOL    H4439650   4.573   8.021   4.235  2.1258 -1.9399 -0.2399
  124MOL    H4539651   4.495   8.205   4.344  2.1953  0.0105 -0.2265
  124MOL    H4639652   4.398   7.985   4.703 -1.4906 -0.1883 -0.4548
  124MOL    H4739653   4.481   7.781   4.597 -0.3972 -0.2417  0.3242
  124MOL    H4839654   4.769   7.817   4.444  0.2995  0.1929 -2.0349
  124MOL    H4939655   4.705   7.667   4.499  0.1744 -2.1909 -1.3748
  124MOL    C5039656   4.827   7.645   4.319 -0.6479  0.1110 -0.2685
  124MOL    C5139657   4.865   7.733   4.202  0.0034 -0.5766  0.2271
  124MOL    C5239658   4.930   7.861   4.222 -0.5836  0.0570 -1.4148
  124MOL    C5339659   4.944   7.959   4.123  0.3520 -0.9867  0.3255
  124MOL    C5439660   4.902   7.919   3.995 -0.1006 -0.2317 -0.1178
  124MOL    F5539661   4.925   8.002   3.888 -0.2384 -0.0890 -0.5641
  124MOL    C5639662   4.849   7.792   3.966 -0.7341  0.1146  0.5313
  124MOL    C5739663   4.824   7.704   4.071  1.1443 -0.3458  0.0099
  124MOL    C5839664   4.951   7.595   4.393  0.3266  0.3971 -0.1730
  124MOL    H5939665   4.774   7.568   4.264 -3.0881  0.6596  1.2219
  124MOL    H6039666   4.968   7.884   4.320 -3.1009 -2.1262  0.1588
  124MOL    H6139667   4.984   8.056   4.147  0.4119 -0.1656 -2.8015
  124MOL    H6239668   4.816   7.771   3.866  0.2454 -0.9637  0.4240
  124MOL    H6339669   4.769   7.615   4.046 -0.1374  0.6254 -0.6578
  124MOL    H6439670   5.022   7.560   4.318  0.2294  1.1852 -0.6337
  124MOL    H6539671   4.999   7.683   4.435 -2.4370  1.8837 -0.0072
  124MOL    C6639672   4.920   7.482   4.488 -0.0157  0.4359 -0.2348
  124MOL    C6739673   4.833   7.375   4.419  0.8455 -0.1338  0.9490
  124MOL    C6839674   4.880   7.292   4.312  0.0820 -0.4086  0.1221
  124MOL    C6939675   4.788   7.206   4.244  0.0403 -0.4092 -0.0867
  124MOL    C7039676   4.659   7.194   4.297  0.6589  0.4667 -0.2656
  124MOL    F7139677   4.561   7.113   4.255 -0.0786  0.0680 -0.5230
  124MOL    C7239678   4.622   7.260   4.407 -1.2415 -0.9361  0.0269
  124MOL    C7339679   4.706   7.350   4.470 -0.2093  0.5024 -0.3925
  124MOL    C7439680   5.048   7.417   4.554  0.6837  0.0071 -0.4159
  124MOL    H7539681   4.860   7.526   4.569  1.6139 -1.9010  2.3157
  124MOL    H7639682   4.966   7.323   4.254  0.3308  1.8818  1.6497
  124MOL    H7739683   4.815   7.157   4.151 -1.2351  0.5955 -1.0097
  124MOL    H7839684   4.528   7.249   4.457 -0.2328 -1.3780  1.8688
  124MOL    H7939685   4.671   7.401   4.558  1.6063  3.4532 -1.3130
  124MOL    H8039686   5.116   7.388   4.474  0.6788 -1.5447  0.1279
  124MOL    H8139687   5.103   7.490   4.613  2.0278 -1.5447  0.3093
  124MOL    C8239688   5.040   7.286   4.622 -0.8863  0.2972 -0.0974
  124MOL    C8339689   5.174   7.227   4.657  0.0014  0.0706  1.3492
  124MOL    C8439690   5.222   7.216   4.784  0.2534 -0.4107  0.2837
  124MOL    C8539691   5.345   7.155   4.799  0.2334  0.8560  0.1835
  124MOL    C8639692   5.416   7.095   4.697  0.0383  0.4381 -0.6695
  124MOL    F8739693   5.544   7.064   4.709 -0.1603 -0.1403 -0.0112
  124MOL    C8839694   5.360   7.100   4.567  0.8139  0.6087 -0.4480
  124MOL    C8939695   5.236   7.160   4.551  0.5105  0.3019 -0.1989
  124MOL    C9039696   4.946   7.308   4.745  0.1008 -0.5064  0.1722
  124MOL    H9139697   4.995   7.215   4.553  0.7375 -0.2128 -0.6534
  124MOL    H9239698   5.172   7.255   4.872  3.4413 -0.0365  2.0208
  124MOL    H9339699   5.392   7.162   4.896 -0.6397 -0.7909  0.7461
  124MOL    H9439700   5.414   7.058   4.483  0.2430  3.7325 -2.4376
  124MOL    H9539701   5.197   7.156   4.450 -1.9585 -1.8011  0.8102
  124MOL    H9639702   5.009   7.358   4.818  0.6761  0.4260 -0.9597
  124MOL    H9739703   4.862   7.372   4.718  0.3014  0.2938  1.4182
  124MOL    C9839704   4.893   7.179   4.797  0.0508  0.4543 -0.0103
  124MOL    C9939705   4.875   7.181   4.950  0.7598 -0.6875  0.3215
  124MOL   C10039706   4.965   7.109   5.028 -0.4113 -0.3213 -0.8209
  124MOL   C10139707   4.975   7.128   5.166  0.3950 -0.0744 -0.0619
  124MOL   C10239708   4.890   7.220   5.229 -0.1731  0.5982  0.0704
  124MOL   F10339709   4.898   7.247   5.360 -0.0679  0.6430  0.2229
  124MOL   C10439710   4.787   7.273   5.152 -0.0388  0.0088 -0.9475
  124MOL   C10539711   4.778   7.263   5.011 -0.4199 -0.4154 -0.4573
  124MOL   C10639712   4.757   7.141   4.727 -0.4209 -0.1108  0.2275
  124MOL   H10739713   4.959   7.097   4.769  1.7280  1.4106  1.0539
  124MOL   H10839714   5.027   7.039   4.974  1.4558 -0.3982  1.3450
  124MOL   H10939715   5.048   7.071   5.223  0.4439  0.4806  0.4315
  124MOL   H11039716   4.720   7.330   5.215  0.1497 -0.1959 -0.5577
  124MOL   H11139717   4.706   7.324   4.959  0.2171 -0.4214 -1.3556
  124MOL   H11239718   4.688   7.225   4.730  0.6865  0.9428 -2.1922
  124MOL   H11339719   4.781   7.143   4.620 -1.1370 -0.1653  0.0615
  124MOL   C11439720   4.693   7.008   4.777  0.3337  0.2276  0.3452
  124MOL   C11539721   4.538   7.030   4.762 -0.1745 -0.3245 -0.3893
  124MOL   C11639722   4.458   7.069   4.875 -0.1796 -0.2332 -0.1089
  124MOL   C11739723   4.323   7.119   4.859  0.0503  0.1755  0.4981
  124MOL   C11839724   4.259   7.105   4.733  0.0317  0.2387  0.8775
  124MOL   F11939725   4.133   7.143   4.722  0.0337  0.1478  0.2788
  124MOL   C12039726   4.338   7.063   4.625  0.7028 -0.6801 -0.4385
  124MOL   C12139727   4.475   7.031   4.635  0.0933 -0.4733  0.4492
  124MOL   C12239728   4.756   6.879   4.707 -0.3985  0.0624  0.2334
  124MOL   H12339729   4.708   6.983   4.882 -2.0452  1.4683  1.0277
  124MOL   H12439730   4.512   7.069   4.969  1.0303 -2.3369 -0.7736
  124MOL   H12539731   4.274   7.165   4.944  0.3494  0.1583  0.6837
  124MOL   H12639732   4.282   7.064   4.533  1.1985  0.1493 -0.7297
  124MOL   H12739733   4.530   7.021   4.542 -0.7107 -1.2187  0.0423
  124MOL   H12839734   4.773   6.896   4.601 -1.3297  0.8041  0.2010
  124MOL   H12939735   4.855   6.865   4.751 -1.6085 -1.5374  2.5076
  124MOL   C13039736   4.682   6.741   4.733 -0.3846 -0.0863  0.3087
  124MOL   C13139737   4.763   6.628   4.676 -0.4422  0.5633 -0.5284
  124MOL   C13239738   4.888   6.595   4.739 -0.3737 -0.3528 -0.3567
  124MOL   C13339739   4.976   6.506   4.676  0.1745  0.3423  0.1971
  124MOL   C13439740   4.934   6.437   4.560  0.2081 -0.0116 -0.1626
  124MOL   F13539741   5.023   6.348   4.502 -0.2483  0.1476  0.1557
  124MOL   C13639742   4.816   6.468   4.495 -0.1999 -0.2986  0.5188
  124MOL   C13739743   4.729   6.560   4.551 -0.1673 -0.2796 -0.2669
  124MOL   C13839744   4.648   6.723   4.879  0.0068 -0.7067 -0.6106
  124MOL   H13939745   4.593   6.754   4.671  0.1190  0.4777 -0.3030
  124MOL   H14039746   4.907   6.642   4.834 -2.5287 -0.5768  0.2289
  124MOL   H14139747   5.072   6.482   4.718  1.0004  2.1299 -0.6232
  124MOL   H14239748   4.798   6.402   4.411 -0.9310 -0.3806  0.7385
  124MOL   H14339749   4.638   6.587   4.499 -0.3959 -0.6511 -0.0682
  124MOL   H14439750   4.731   6.725   4.949 -1.5655  0.1648  1.2726
  124MOL   H14539751   4.573   6.800   4.897 -0.6784 -1.1199 -1.6632
  124MOL   C14639752   4.567   6.606   4.928 -0.1783  0.0491  0.2011
  124MOL   C14739753   4.641   6.470   4.937  0.1871 -0.2187  0.1640
  124MOL   C14839754   4.771   6.458   4.993  0.3273 -1.1046  0.2825
  124MOL   C14939755   4.845   6.341   5.000 -0.1720  0.3251 -0.0431
  124MOL   C15039756   4.795   6.231   4.939 -0.4966  0.1115 -0.2347
  124MOL   F15139757   4.873   6.120   4.924  0.0603  0.2291  0.0293
  124MOL   C15239758   4.666   6.234   4.887  1.0686  0.6277 -0.0860
  124MOL   C15339759   4.584   6.352   4.891 -0.4740  0.2188 -0.1911
  124MOL   C15439760   4.504   6.640   5.066 -0.4947  0.0948 -0.5873
  124MOL   H15539761   4.489   6.596   4.852  0.5407 -0.9480 -0.4103
  124MOL   H15639762   4.820   6.549   5.026 -0.5263 -0.8370  0.8197
  124MOL   H15739763   4.949   6.331   5.030 -0.1012  1.0039 -0.0572
  124MOL   H15839764   4.619   6.145   4.849 -0.2264  1.3418 -0.1892
  124MOL   H15939765   4.483   6.347   4.855 -0.3143  1.7358 -0.8583
  124MOL   H16039766   4.473   6.541   5.099 -0.2857  0.5067  0.8718
  124MOL   H16139767   4.586   6.674   5.129  0.3830 -2.8353 -0.1022
  124MOL   C16239768   4.374   6.732   5.074 -0.0491 -0.1900  0.2087
  124MOL   C16339769   4.262   6.684   4.988 -0.3117 -0.1575 -0.7702
  124MOL   C16439770   4.238   6.545   4.969  0.0733 -0.2497  0.0887
  124MOL   C16539771   4.127   6.504   4.891 -0.0215  0.0694 -0.1513
  124MOL   C16639772   4.046   6.603   4.832  0.2949 -0.3024 -0.1066
  124MOL   F16739773   3.930   6.567   4.771 -0.0661  0.0750  0.2025
  124MOL   C16839774   4.070   6.741   4.856 -0.4513  0.1859  0.7781
  124MOL   C16939775   4.187   6.778   4.927  0.2510  0.1506  0.6600
  124MOL   C17039776   4.326   6.750   5.219  0.7265  0.3221 -1.1218
  124MOL   H17139777   4.401   6.829   5.033 -1.3001 -0.3923 -1.1405
  124MOL   H17239778   4.305   6.469   5.005 -0.3867 -0.1647  1.1423
  124MOL   H17339779   4.107   6.403   4.861  2.7611  0.0792 -2.2264
  124MOL   H17439780   4.000   6.805   4.804 -0.8309 -0.1313  0.8949
  124MOL   H17539781   4.216   6.882   4.936 -0.1331  0.2547  0.7110
  124MOL   H17639782   4.224   6.788   5.220  1.1960  1.5823 -0.3030
  124MOL   H17739783   4.321   6.645   5.248  0.5708 -0.0155 -2.3579
  124MOL   C17839784   4.420   6.832   5.310  0.8938  0.2883 -0.3064
  124MOL   C17939785   4.383   6.984   5.315 -0.6971  0.0731  0.4135
  124MOL   C18039786   4.474   7.082   5.271  0.5601  0.6266  0.5974
  124MOL   C18139787   4.436   7.219   5.275  0.2083 -0.0024 -0.7672
  124MOL   C18239788   4.309   7.257   5.327 -0.0814  0.0672  0.6493
  124MOL   F18339789   4.285   7.391   5.338  0.5761 -0.5104  0.5742
  124MOL   C18439790   4.214   7.161   5.364 -0.2432 -0.6147  0.0036
  124MOL   C18539791   4.254   7.026   5.363 -0.7015 -0.1088  0.6809
  124MOL   C18639792   4.418   6.771   5.450 -0.4806 -0.6697 -0.6257
  124MOL   H18739793   4.519   6.821   5.266  0.3240 -2.7824 -0.9503
  124MOL   H18839794   4.570   7.056   5.231 -0.1722  0.6357 -1.2178
  124MOL   H18939795   4.516   7.287   5.250  1.1578 -0.4207  1.0702
  124MOL   H19039796   4.115   7.195   5.388 -0.3112 -0.5528 -0.3632
  124MOL   H19139797   4.181   6.951   5.387  1.0075 -2.6866 -1.8134
  124MOL   H19239798   4.407   6.851   5.523 -2.8811  0.5503 -2.2664
  124MOL   H19339799   4.321   6.720   5.457 -1.0962  0.5687  0.1163
  124MOL   C19439800   4.529   6.678   5.480  0.0352 -0.5529  0.1086
  124MOL   C19539801   4.666   6.751   5.469  0.2999 -0.1365 -0.0029
  124MOL   C19639802   4.769   6.679   5.404 -0.3747  0.4192 -0.9491
  124MOL   C19739803   4.893   6.743   5.399 -0.5644  0.2014  0.2528
  124MOL   C19839804   4.913   6.873   5.440 -0.0574  0.5505  0.4946
  124MOL   F19939805   5.038   6.928   5.422  0.0692  0.7460  0.1617
  124MOL   C20039806   4.814   6.946   5.501 -0.3336  0.1444  0.0616
  124MOL   C20139807   4.688   6.885   5.514 -0.1259  0.3232 -0.3078
  124MOL   C20239808   4.522   6.606   5.620  0.6604 -0.0342  0.0306
  124MOL   H20339809   4.530   6.603   5.400  1.6692 -0.5234  0.0842
  124MOL   H20439810   4.752   6.574   5.383 -2.8904  0.7040 -0.4410
  124MOL   H20539811   4.982   6.697   5.359 -0.3843 -0.2230  1.1348
  124MOL   H20639812   4.836   7.050   5.520 -2.9047  0.9040 -0.9000
  124MOL   H20739813   4.602   6.941   5.549 -0.8822 -0.1520 -1.3722
  124MOL   H20839814   4.483   6.505   5.605  0.8334 -0.1464  0.3162
  124MOL   H20939815   4.627   6.591   5.647  0.7106  0.9242  0.3592
  124MOL   C21039816   4.452   6.677   5.745  0.2325 -0.2487  0.5271
  124MOL   C21139817   4.299   6.689   5.734  0.1633  0.4560  0.2279
  124MOL   C21239818   4.245   6.818   5.739 -0.3408  0.5184  0.8660
  124MOL   C21339819   4.104   6.837   5.728  0.1700  0.2432 -0.0653
  124MOL   C21439820   4.021   6.722   5.736 -0.0392  1.1867 -0.1526
  124MOL   F21539821   3.885   6.733   5.716 -0.5802 -0.0344  0.2101
  124MOL   C21639822   4.076   6.589   5.738 -0.8302 -0.1494  0.6402
  124MOL   C21739823   4.213   6.573   5.745 -0.4892 -0.2029  0.4052
  124MOL   C21839824   4.492   6.628   5.883  1.5496  0.3540  0.3916
  124MOL   H21939825   4.485   6.781   5.741 -1.6908  0.3632  0.0843
  124MOL   H22039826   4.315   6.900   5.748  1.4230 -0.9879  1.2178
  124MOL   H22139827   4.062   6.936   5.720  0.1852  0.2907  0.4351
  124MOL   H22239828   4.018   6.498   5.738  0.6097 -1.1171  3.1070
  124MOL   H22339829   4.252   6.472   5.740  1.1481  0.4719 -0.7419
  124MOL   H22439830   4.418   6.663   5.955  0.3310 -0.7407 -0.3169
  124MOL   H22539831   4.473   6.521   5.893  2.5450  0.2429  1.3218
  124MOL   C22639832   4.636   6.656   5.938  0.4564 -0.2020 -0.0745
  124MOL   C22739833   4.668   6.809   5.935  0.0334 -0.8895  0.3751
  124MOL   C22839834   4.600   6.896   6.017 -0.3015 -0.1157  0.2080
  124MOL   C22939835   4.607   7.033   5.993 -0.2427 -0.4486  0.0399
  124MOL   C23039836   4.705   7.081   5.899  0.5748  0.1092  0.4311
  124MOL   F23139837   4.727   7.211   5.886 -0.0235 -0.0589 -0.1593
  124MOL   C23239838   4.782   6.998   5.825 -0.0353  0.4901 -0.3494
  124MOL   C23339839   4.761   6.864   5.844  0.5590  0.4051  0.5294
  124MOL   C23439840   4.651   6.599   6.083 -0.6603 -0.1183  1.0640
  124MOL   H23539841   4.712   6.613   5.872 -1.0447 -1.5218 -0.9783
  124MOL   H23639842   4.530   6.864   6.093 -0.1890  0.6165  0.6296
  124MOL   H23739843   4.546   7.095   6.056  0.5046 -0.4904  0.8240
  124MOL   H23839844   4.855   7.034   5.754  1.4431 -0.5850  0.6163
  124MOL   H23939845   4.811   6.805   5.769 -2.1717 -2.4323  0.8242
  124MOL   H24039846   4.596   6.652   6.161  1.6584  2.2277  1.1615
  124MOL   H24139847   4.604   6.501   6.086  1.1663 -0.9920  1.7649
  124MOL   C24239848   4.795   6.584   6.131  0.0591  0.7174 -0.4738
  124MOL   C24339849   4.892   6.703   6.136 -0.0966  0.0270 -0.4492
  124MOL   C24439850   5.012   6.697   6.060 -0.2138 -0.8309 -0.1240
  124MOL   C24539851   5.093   6.812   6.061  0.7635  0.6264  0.0574
  124MOL   C24639852   5.060   6.931   6.134  0.3686  0.0176  0.5589
  124MOL   F24739853   5.136   7.037   6.133  0.0091  0.1749  0.0119
  124MOL   C24839854   4.944   6.938   6.213 -0.5599 -0.4928 -0.3949
  124MOL   C24939855   4.857   6.828   6.212 -0.1469  0.4598  0.2009
  124MOL   C25039856   4.791   6.523   6.275  0.5651  0.3025 -0.1546
  124MOL   H25139857   4.839   6.513   6.061 -1.6053  0.4719 -1.3004
  124MOL   H25239858   5.027   6.610   5.998  1.2343 -0.8494  0.2382
  124MOL   H25339859   5.177   6.801   5.994  1.2792  1.3853  0.5667
  124MOL   H25439860   4.921   7.020   6.279  0.6146 -0.4945  0.0306
  124MOL   H25539861   4.773   6.827   6.279 -2.3334  2.4849 -2.3778
  124MOL   H25639862   4.883   6.544   6.328  0.7101 -0.7721  0.0388
  124MOL   H25739863   4.722   6.583   6.334  0.5909 -0.3473  0.5465
  124MOL   C25839864   4.774   6.369   6.288  0.1221 -0.1512 -0.5145
  124MOL   C25939865   4.915   6.304   6.271 -0.0261  0.0630 -0.1954
  124MOL   C26039866   4.950   6.228   6.151 -0.0115  0.2747  0.0603
  124MOL   C26139867   5.085   6.187   6.124 -0.1788  0.0986  0.3332
  124MOL   C26239868   5.191   6.211   6.215 -0.0649 -0.3368  0.6382
  124MOL   F26339869   5.312   6.170   6.191 -0.2592 -0.2107  0.0111
  124MOL   C26439870   5.155   6.283   6.330  0.3008  0.3588  0.1618
  124MOL   C26539871   5.022   6.326   6.357  0.0771 -0.8982 -0.5026
  124MOL   C26639872   4.700   6.334   6.419 -0.4722 -0.3622 -0.6138
  124MOL   H26739873   4.708   6.318   6.217  1.4155 -1.8143 -0.5504
  124MOL   H26839874   4.868   6.203   6.085 -0.0318 -1.0056  0.5442
  124MOL   H26939875   5.101   6.137   6.030  1.6813 -0.4665  0.9260
  124MOL   H27039876   5.232   6.314   6.400  0.1570 -1.6947  1.2385
  124MOL   H27139877   5.003   6.382   6.447  1.8803 -0.3515 -0.4269
  124MOL   H27239878   4.715   6.233   6.456 -1.2877  0.3430  1.7656
  124MOL   H27339879   4.758   6.396   6.487 -1.7355  1.0237 -0.7820
  124MOL   C27439880   4.546   6.357   6.414  0.5810 -0.0112  0.2950
  124MOL   C27539881   4.480   6.252   6.333  0.1915 -0.5634  0.3116
  124MOL   C27639882   4.495   6.111   6.353 -0.0923  0.0841 -0.1905
  124MOL   C27739883   4.419   6.025   6.276  0.4108 -0.1572  0.1245
  124MOL   C27839884   4.323   6.075   6.182 -0.2288 -0.7255 -0.3703
  124MOL   F27939885   4.247   5.983   6.113  0.0271  0.2702 -0.3552
  124MOL   C28039886   4.308   6.215   6.157 -0.3153  0.0562 -0.5574
  124MOL   C28139887   4.395   6.303   6.227 -0.5201  0.6976  0.0873
  124MOL   C28239888   4.474   6.373   6.555  0.1992 -0.1822 -0.9285
  124MOL   H28339889   4.544   6.454   6.363  1.7067 -0.1240  0.0158
  124MOL   H28439890   4.545   6.066   6.438  0.7208 -0.2387 -0.8326
  124MOL   H28539891   4.422   5.918   6.292  1.3433 -0.0678  0.5598
  124MOL   H28639892   4.231   6.255   6.093 -0.9534 -0.4220 -0.1020
  124MOL   H28739893   4.380   6.409   6.221  1.0863  0.9047 -0.6166
  124MOL   H28839894   4.371   6.336   6.551 -0.0422  0.1547  1.5784
  124MOL   H28939895   4.521   6.303   6.624  1.8026  3.6492  2.0730
  124MOL   C29039896   4.487   6.518   6.614 -0.1320 -0.3121  0.5266
  124MOL   C29139897   4.448   6.626   6.522 -0.2663 -0.8519 -0.3873
  124MOL   C29239898   4.318   6.631   6.463 -0.3557  0.6574 -1.0505
  124MOL   C29339899   4.276   6.739   6.386 -0.5956 -0.0260 -0.0083
  124MOL   C29439900   4.375   6.842   6.361 -0.2998  0.6214  0.6121
  124MOL   F29539901   4.339   6.954   6.295 -0.8237  0.1226 -0.1149
  124MOL   C29639902   4.503   6.834   6.419 -0.2361 -0.2359  0.2511
  124MOL   C29739903   4.540   6.730   6.495  0.1554 -0.5389 -0.0510
  124MOL   C29839904   4.395   6.513   6.744  0.4295  0.6078 -0.2130
  124MOL   H29939905   4.589   6.544   6.642 -0.8108  0.3354  2.5163
  124MOL   H30039906   4.248   6.550   6.481 -2.0954  2.7298  1.8105
  124MOL   H30139907   4.176   6.732   6.346 -0.3766 -0.3073 -0.5031
  124MOL   H30239908   4.578   6.910   6.404 -0.1735 -0.1850  0.8326
  124MOL   H30339909   4.635   6.729   6.547  1.0216 -1.0497 -1.6396
  124MOL   H30439910   4.377   6.612   6.785  0.0572 -0.2541  1.7503
  124MOL   H30539911   4.294   6.481   6.716  0.4987  1.3780 -1.3772
  124MOL   C30639912   4.448   6.430   6.869  0.1532  0.1386  0.4103
  124MOL   C30739913   4.580   6.481   6.918 -0.5094 -0.1053 -0.4078
  124MOL   C30839914   4.586   6.606   6.970 -1.0608  0.3930  0.0213
  124MOL   C30939915   4.709   6.654   7.022  0.8168  0.0030  0.1580
  124MOL   C31039916   4.830   6.585   7.004 -0.4454  0.4667  1.1097
  124MOL   F31139917   4.949   6.627   7.050 -0.1054  0.3154 -0.2921
  124MOL   C31239918   4.820   6.457   6.949 -0.5018 -0.4028  0.2178
  124MOL   C31339919   4.696   6.401   6.908 -0.0895  0.2026 -0.3505
  124MOL   C31439920   4.344   6.457   6.983  0.1715 -0.3060  1.0164
  124MOL   H31539921   4.452   6.325   6.842  0.0548 -0.1600  1.5481
  124MOL   H31639922   4.506   6.677   6.972 -0.7002  0.7783  1.4244
  124MOL   H31739923   4.712   6.750   7.070 -1.7525  1.3191 -2.1423
  124MOL   H31839924   4.913   6.401   6.943 -2.1943 -3.1213 -2.6494
  124MOL   H31939925   4.702   6.305   6.857 -1.5998 -0.4041  0.5676
  124MOL   H32039926   4.373   6.399   7.070 -2.5809 -3.4858 -0.0790
  124MOL   H32139927   4.336   6.562   7.011  3.3229  0.0117  0.8745
  124MOL   H32239928   4.244   6.422   6.956 -0.7754  1.6292  1.9556
  125MOL     C139929   2.317   0.968   0.526 -0.1303  0.2305 -0.9699
  125MOL     C239930   2.187   1.046   0.538  0.5192 -0.2177  0.1537
  125MOL     C339931   2.177   1.173   0.477  0.3151  0.1290  0.4335
  125MOL     C439932   2.068   1.256   0.500  0.6249 -0.1077  0.1608
  125MOL     C539933   1.957   1.204   0.570  0.0293 -0.1757 -0.2267
  125MOL     F639934   1.842   1.280   0.592  0.8368  0.7012  0.0160
  125MOL     C739935   1.957   1.070   0.617  0.0238  0.0268  0.0416
  125MOL     C839936   2.074   0.995   0.603 -0.6051 -0.6698 -0.1482
  125MOL     C939937   2.432   1.019   0.619 -0.9726  0.3590  0.0532
  125MOL    H1039938   2.348   0.973   0.422  0.6283  0.7277 -0.7286
  125MOL    H1139939   2.257   1.221   0.422  0.8228  1.3111  2.1445
  125MOL    H1239940   2.067   1.357   0.461  0.0826 -0.2930 -0.3120
  125MOL    H1339941   1.874   1.033   0.676  1.4356  0.1716  2.1685
  125MOL    H1439942   2.077   0.894   0.640  0.0659 -0.2300  1.0325
  125MOL    H1539943   2.520   0.970   0.580 -1.4614 -0.0744 -0.5136
  125MOL    H1639944   2.450   1.126   0.609 -2.5126  0.3348 -3.6331
  125MOL    H1739945   2.314   0.860   0.542 -0.1563  0.1784 -1.3290
  125MOL    C1839946   2.425   0.982   0.775  0.0930  0.7065 -0.1863
  125MOL    C1939947   2.460   0.835   0.791  0.0304 -0.4546 -0.4812
  125MOL    C2039948   2.363   0.741   0.838  0.0350  0.6510 -0.5995
  125MOL    C2139949   2.390   0.605   0.853 -0.1636  0.1154 -0.1554
  125MOL    C2239950   2.523   0.557   0.844  0.0017  0.3099 -0.1353
  125MOL    F2339951   2.540   0.425   0.880  0.2783  0.2246  0.3159
  125MOL    C2439952   2.621   0.649   0.796 -0.1078 -0.2580  1.0557
  125MOL    C2539953   2.590   0.782   0.762  0.2538 -1.2705 -0.1227
  125MOL    C2639954   2.515   1.073   0.863  0.3193  0.2905 -0.1631
  125MOL    H2739955   2.321   0.978   0.809 -0.2342  1.7178 -1.0522
  125MOL    H2839956   2.268   0.772   0.877 -0.0146  1.8673 -1.6596
  125MOL    H2939957   2.319   0.532   0.890 -2.5300  2.8838  0.9528
  125MOL    H3039958   2.722   0.610   0.789  0.5418  1.6876 -1.1932
  125MOL    H3139959   2.676   0.844   0.741  0.4245 -0.9776  1.3598
  125MOL    H3239960   2.621   1.077   0.837  0.6676  3.5417  1.4482
  125MOL    H3339961   2.480   1.176   0.851 -0.8131  0.0449  1.0210
  125MOL    C3439962   2.500   1.035   1.015 -0.1816 -0.8518  0.5418
  125MOL    C3539963   2.630   0.997   1.087  0.0038  0.2262  0.3035
  125MOL    C3639964   2.732   1.094   1.130 -0.6725 -0.4591 -0.7629
  125MOL    C3739965   2.857   1.053   1.182  0.1364  0.5955  1.0385
  125MOL    C3839966   2.878   0.912   1.186  0.5781  0.2210  0.0800
  125MOL    F3939967   2.988   0.860   1.238 -0.0738  0.0342 -0.0564
  125MOL    C4039968   2.786   0.819   1.138  0.3771 -0.6441 -0.6500
  125MOL    C4139969   2.663   0.867   1.094 -0.7747 -0.5709 -0.1788
  125MOL    C4239970   2.433   1.151   1.093  0.7576  0.0023  0.7911
  125MOL    H4339971   2.430   0.953   1.029 -0.7469 -0.9521 -2.4905
  125MOL    H4439972   2.702   1.197   1.142  2.9425  0.5383  0.3607
  125MOL    H4539973   2.937   1.116   1.218  3.1961 -2.9378  0.7663
  125MOL    H4639974   2.802   0.712   1.139 -0.5809 -0.7909  0.0813
  125MOL    H4739975   2.597   0.786   1.066  0.0894 -0.9770 -1.0745
  125MOL    H4839976   2.434   1.137   1.201 -1.2999 -1.6550  0.6192
  125MOL    H4939977   2.491   1.241   1.073 -1.6474  1.8636  1.9786
  125MOL    C5039978   2.279   1.179   1.065  0.3065  0.1517  0.1685
  125MOL    C5139979   2.179   1.059   1.095 -0.4451  0.1875 -0.9965
  125MOL    C5239980   2.089   1.028   0.992 -0.7879 -0.2214 -0.4115
  125MOL    C5339981   1.989   0.924   1.006 -0.2139 -0.1740 -0.6661
  125MOL    C5439982   1.987   0.859   1.131  0.2396  0.1060  0.1535
  125MOL    F5539983   1.910   0.750   1.158  0.3241 -0.5331 -0.2457
  125MOL    C5639984   2.070   0.895   1.239  0.5302  0.3938  0.0362
  125MOL    C5739985   2.166   0.993   1.218  0.8094  0.5571 -0.8381
  125MOL    C5839986   2.231   1.311   1.135  0.0911 -0.1432 -0.3723
  125MOL    H5939987   2.270   1.206   0.959 -1.9479 -0.1039  0.2572
  125MOL    H6039988   2.105   1.081   0.900 -0.2688 -1.7223 -1.2056
  125MOL    H6139989   1.914   0.905   0.931 -2.7262  0.1207  1.6956
  125MOL    H6239990   2.056   0.844   1.333  0.1842 -1.1207 -0.8260
  125MOL    H6339991   2.223   1.015   1.307  0.0308  0.5941 -0.3421
  125MOL    H6439992   2.130   1.330   1.102 -0.3755  0.8446  1.5112
  125MOL    H6539993   2.233   1.303   1.244 -0.6392 -2.1678 -0.4977
  125MOL    C6639994   2.309   1.439   1.110 -0.9412  0.3596 -0.1533
  125MOL    C6739995   2.374   1.453   0.971 -0.0561  0.3246  0.1089
  125MOL    C6839996   2.515   1.467   0.949  0.6243 -0.0659  0.4366
  125MOL    C6939997   2.562   1.477   0.815  0.4564 -0.3960  0.7659
  125MOL    C7039998   2.476   1.469   0.704  0.2862  0.5404  0.3690
  125MOL    F7139999   2.521   1.486   0.578 -0.0240 -0.3305  0.2524
  125MOL    C7240000   2.337   1.459   0.726  0.4739  0.3441 -0.5031
  125MOL    C7340001   2.286   1.443   0.857  0.5288 -0.6355 -0.0168
  125MOL    C7440002   2.216   1.562   1.134 -0.5523  0.5406 -0.2344
  125MOL    H7540003   2.395   1.440   1.176  0.4120  0.0655 -1.8941
  125MOL    H7640004   2.579   1.480   1.034  0.9389 -3.4941  0.8096
  125MOL    H7740005   2.665   1.500   0.796  0.6222 -0.7364  1.2482
  125MOL    H7840006   2.269   1.451   0.643  0.7639  0.9565 -0.8034
  125MOL    H7940007   2.182   1.428   0.882  0.0468  1.6114 -0.5473
  125MOL    H8040008   2.126   1.556   1.073 -0.3791  1.6963 -0.6249
  125MOL    H8140009   2.202   1.555   1.241  0.3242  4.3355  0.2020
  125MOL    C8240010   2.275   1.704   1.114 -0.1218  0.5027  0.1760
  125MOL    C8340011   2.264   1.770   0.973  0.1139  0.0213  0.1282
  125MOL    C8440012   2.365   1.856   0.929 -0.2517 -0.2818 -0.2461
  125MOL    C8540013   2.342   1.941   0.811  0.2735 -0.1455  0.7456
  125MOL    C8640014   2.220   1.931   0.741  0.2747  0.0315  0.3304
  125MOL    F8740015   2.205   2.001   0.626  0.2484  0.6507 -0.4431
  125MOL    C8840016   2.118   1.848   0.789  0.1230  0.7400  0.7147
  125MOL    C8940017   2.141   1.765   0.901 -0.0274  0.0163 -0.0515
  125MOL    C9040018   2.208   1.809   1.205  0.5181 -0.3014  0.7158
  125MOL    H9140019   2.380   1.695   1.142 -0.3471 -0.8421  0.6098
  125MOL    H9240020   2.459   1.858   0.981 -0.7504  1.1008  0.6144
  125MOL    H9340021   2.421   2.014   0.796  1.2924 -1.4444 -0.3091
  125MOL    H9440022   2.023   1.838   0.740  0.8091  1.7471 -0.8827
  125MOL    H9540023   2.058   1.708   0.940  1.5772 -2.1494  0.2930
  125MOL    H9640024   2.234   1.912   1.183  0.8370 -0.8281 -1.4198
  125MOL    H9740025   2.099   1.808   1.192  0.3722  2.1586  1.4073
  125MOL    C9840026   2.232   1.790   1.352 -0.6398  0.0196 -0.0859
  125MOL    C9940027   2.379   1.811   1.388  0.6762 -0.0880 -0.6214
  125MOL   C10040028   2.451   1.703   1.434 -0.0512 -0.9955 -0.5025
  125MOL   C10140029   2.593   1.706   1.452  0.5289  0.0365 -1.1317
  125MOL   C10240030   2.663   1.821   1.406  0.0116 -0.1105 -0.5216
  125MOL   F10340031   2.798   1.821   1.398  0.5355  0.1585  0.4841
  125MOL   C10440032   2.589   1.938   1.365  0.7287 -1.1295 -0.4114
  125MOL   C10540033   2.447   1.940   1.358  0.0064  0.3370  0.1582
  125MOL   C10640034   2.148   1.885   1.440 -0.5009  0.4536  0.1695
  125MOL   H10740035   2.201   1.692   1.388 -0.0407 -0.3992 -0.6920
  125MOL   H10840036   2.407   1.605   1.448 -2.1177  0.0473  0.5430
  125MOL   H10940037   2.636   1.617   1.495 -2.8337 -1.2007 -0.1206
  125MOL   H11040038   2.644   2.020   1.323  1.0087 -0.8689  0.4548
  125MOL   H11140039   2.394   2.029   1.327 -1.0183 -0.1362  0.5181
  125MOL   H11240040   2.188   1.884   1.541  0.1322 -1.0818 -0.0797
  125MOL   H11340041   2.176   1.983   1.400  1.1970 -1.6100 -3.9650
  125MOL   C11440042   1.998   1.866   1.444 -0.5335  0.9328  0.1584
  125MOL   C11540043   1.971   1.727   1.502 -0.6702  0.4510  0.2961
  125MOL   C11640044   1.996   1.711   1.640 -0.2518 -0.0174 -0.1456
  125MOL   C11740045   1.981   1.583   1.701  0.0344  0.1607 -0.4798
  125MOL   C11840046   1.942   1.479   1.621 -0.7051  0.4556 -0.5407
  125MOL   F11940047   1.916   1.360   1.678 -0.3339 -0.2667  0.6836
  125MOL   C12040048   1.924   1.494   1.477  0.5762 -0.3473 -0.2663
  125MOL   C12140049   1.941   1.625   1.418  0.1442  0.0070 -0.0968
  125MOL   C12240050   1.932   1.979   1.520  0.0874 -0.1742 -0.0776
  125MOL   H12340051   1.959   1.868   1.342 -0.3571 -0.6999  0.0423
  125MOL   H12440052   2.030   1.792   1.702  2.2055 -0.5027 -0.8020
  125MOL   H12540053   1.989   1.572   1.808  0.0502  2.9686 -0.1594
  125MOL   H12640054   1.895   1.408   1.419 -0.1858 -0.2672 -0.0116
  125MOL   H12740055   1.937   1.632   1.310  0.4140 -1.4455 -0.2093
  125MOL   H12840056   1.825   1.959   1.517  0.0077  0.3604 -0.8378
  125MOL   H12940057   1.946   1.978   1.629 -0.0677 -1.9162 -0.0563
  125MOL   C13040058   1.945   2.119   1.450  0.2412 -0.6372  0.1133
  125MOL   C13140059   1.918   2.117   1.299 -1.0647 -0.4266  0.5450
  125MOL   C13240060   2.020   2.139   1.198  0.1517  0.1171  0.3133
  125MOL   C13340061   1.997   2.111   1.057 -0.5744 -0.2492 -0.6525
  125MOL   C13440062   1.865   2.085   1.012 -0.7394  0.0032  0.3133
  125MOL   F13540063   1.840   2.052   0.884 -0.5661 -0.4587 -0.1476
  125MOL   C13640064   1.759   2.079   1.114 -0.1657  0.3749 -0.3873
  125MOL   C13740065   1.787   2.085   1.251 -0.2457 -0.7025 -1.4106
  125MOL   C13840066   1.861   2.234   1.512 -0.8915 -1.2476 -0.5098
  125MOL   H13940067   2.050   2.148   1.452 -0.1077  0.6689 -0.2601
  125MOL   H14040068   2.121   2.171   1.223  0.6411 -0.2987 -1.1104
  125MOL   H14140069   2.076   2.105   0.984 -0.0353 -1.8804  0.0432
  125MOL   H14240070   1.659   2.059   1.079 -0.9065  0.5895  1.5770
  125MOL   H14340071   1.707   2.064   1.320  0.8516 -0.4308 -0.0360
  125MOL   H14440072   1.860   2.321   1.445  0.0059  0.8909  2.1504
  125MOL   H14540073   1.756   2.212   1.530 -0.8677 -2.0810 -1.3786
  125MOL   C14640074   1.926   2.288   1.646  0.5174  0.1642  0.2999
  125MOL   C14740075   2.071   2.326   1.618  0.0847 -0.1213 -0.1560
  125MOL   C14840076   2.169   2.253   1.684 -0.0443  0.3790 -0.5030
  125MOL   C14940077   2.308   2.286   1.662 -0.2994 -0.9272 -0.1056
  125MOL   C15040078   2.341   2.400   1.586  0.5551  0.3907  0.4254
  125MOL   F15140079   2.472   2.427   1.573 -0.0948 -0.3956 -0.4639
  125MOL   C15240080   2.244   2.482   1.526  0.1277  0.1134  0.3262
  125MOL   C15340081   2.107   2.439   1.541 -0.4020  0.5014 -0.0843
  125MOL   C15440082   1.843   2.390   1.729 -0.9272 -0.0088 -0.2614
  125MOL   H15540083   1.939   2.196   1.703  0.1584 -1.6538 -2.4180
  125MOL   H15640084   2.146   2.176   1.756 -0.4769 -0.3956 -1.4571
  125MOL   H15740085   2.392   2.240   1.712  1.5522 -0.0069 -2.2604
  125MOL   H15840086   2.270   2.571   1.471 -2.0246 -0.2889 -1.4002
  125MOL   H15940087   2.030   2.495   1.490 -1.9316  0.1868  1.8250
  125MOL   H16040088   1.885   2.419   1.825  0.8213  2.0149 -1.6024
  125MOL   H16140089   1.827   2.482   1.673  0.0655  1.3863  1.6714
  125MOL   C16240090   1.701   2.332   1.773 -0.0980  0.3768  0.2983
  125MOL   C16340091   1.709   2.186   1.818 -0.6213  0.3857  0.6964
  125MOL   C16440092   1.781   2.148   1.933  0.2759  0.7001 -0.3633
  125MOL   C16540093   1.792   2.013   1.971 -0.0398  0.2856 -0.0813
  125MOL   C16640094   1.728   1.919   1.894  0.8929  0.2056  0.8751
  125MOL   F16740095   1.741   1.786   1.918  0.0756 -0.6499 -0.0299
  125MOL   C16840096   1.647   1.950   1.786 -0.4283  0.2552  0.2685
  125MOL   C16940097   1.647   2.084   1.737  0.0218  0.1766  0.6383
  125MOL   C17040098   1.619   2.417   1.866  0.1227 -0.7198 -0.2189
  125MOL   H17140099   1.640   2.312   1.685  1.0001  1.3891 -0.7127
  125MOL   H17240100   1.828   2.227   1.989  0.8162 -1.0222  1.7064
  125MOL   H17340101   1.844   1.977   2.059  0.8192 -0.3796 -0.8536
  125MOL   H17440102   1.607   1.871   1.724  1.0983 -2.1446  2.2384
  125MOL   H17540103   1.597   2.108   1.644  1.5045  0.3220 -0.1457
  125MOL   H17640104   1.523   2.368   1.882 -1.3012  2.2812  0.6073
  125MOL   H17740105   1.658   2.424   1.967 -0.8643  2.2048  0.0043
  125MOL   C17840106   1.592   2.561   1.821 -0.3337 -0.1760 -0.7599
  125MOL   C17940107   1.541   2.564   1.675 -0.5161  0.2147 -0.1501
  125MOL   C18040108   1.614   2.629   1.573  0.1859  0.1107 -0.0210
  125MOL   C18140109   1.569   2.641   1.438 -0.3560 -0.0654 -0.8602
  125MOL   C18240110   1.444   2.587   1.412  0.2072  0.1323  0.5666
  125MOL   F18340111   1.399   2.587   1.286  0.6353  0.1057 -0.1835
  125MOL   C18440112   1.373   2.509   1.511  0.2921  0.2401 -0.0258
  125MOL   C18540113   1.419   2.505   1.643  0.5726  0.1329 -0.0088
  125MOL   C18640114   1.490   2.634   1.915  0.4653  0.4601  0.1988
  125MOL   H18740115   1.681   2.624   1.817 -0.8774  0.6837  0.6484
  125MOL   H18840116   1.705   2.679   1.604 -0.6232  1.0194  0.8911
  125MOL   H18940117   1.638   2.687   1.369 -0.3063  0.2402 -0.6069
  125MOL   H19040118   1.282   2.456   1.487 -0.7262  2.0073 -0.2026
  125MOL   H19140119   1.363   2.456   1.722  0.8554  0.0436  0.1352
  125MOL   H19240120   1.438   2.716   1.867 -0.2717 -0.7925 -1.1989
  125MOL   H19340121   1.410   2.562   1.933  0.4359  0.7830  1.4257
  125MOL   C19440122   1.550   2.683   2.050  0.8902  0.3745  0.2915
  125MOL   C19540123   1.654   2.791   2.030 -0.4355  0.2703 -0.0325
  125MOL   C19640124   1.613   2.911   1.965 -0.1519 -0.1158 -0.1387
  125MOL   C19740125   1.703   3.014   1.929 -0.2804 -0.1932  0.3721
  125MOL   C19840126   1.838   2.990   1.955  0.1503  0.0460  0.1048
  125MOL   F19940127   1.912   3.098   1.926  0.2966  0.3699 -0.2427
  125MOL   C20040128   1.879   2.879   2.023 -1.1829  0.3844  0.8030
  125MOL   C20140129   1.794   2.772   2.054 -0.1112  0.4146  0.1180
  125MOL   C20240130   1.432   2.714   2.146  0.3409  0.0036 -0.3504
  125MOL   H20340131   1.602   2.600   2.098 -0.9244 -0.0328  1.5989
  125MOL   H20440132   1.516   2.930   1.921  0.1372  0.2603 -0.6236
  125MOL   H20540133   1.670   3.105   1.881  2.3652  1.5255  1.6914
  125MOL   H20640134   1.985   2.876   2.044 -0.8784  0.0278 -0.7315
  125MOL   H20740135   1.843   2.691   2.106 -1.5183 -0.7009 -0.2645
  125MOL   H20840136   1.370   2.794   2.105  2.1138  0.1766 -2.8163
  125MOL   H20940137   1.375   2.622   2.142 -0.9084  0.7241  0.4363
  125MOL   C21040138   1.463   2.737   2.295 -0.6824 -0.2628 -0.4861
  125MOL   C21140139   1.507   2.881   2.316 -0.0323 -0.2941 -0.1705
  125MOL   C21240140   1.438   2.994   2.267 -0.0705 -0.6776 -0.0049
  125MOL   C21340141   1.483   3.125   2.291 -0.5821  0.5083  0.1168
  125MOL   C21440142   1.606   3.150   2.359  0.3287 -0.3899 -0.3331
  125MOL   F21540143   1.660   3.273   2.384 -0.3781  0.3067  0.0335
  125MOL   C21640144   1.671   3.028   2.408 -1.0647  0.2385 -0.7748
  125MOL   C21740145   1.629   2.896   2.385 -0.0718 -0.7111 -0.0928
  125MOL   C21840146   1.336   2.710   2.380 -0.7184  0.2783 -0.5802
  125MOL   H21940147   1.548   2.670   2.311  0.1321  1.1660  1.2880
  125MOL   H22040148   1.344   2.976   2.217 -0.8234  1.3543  0.6400
  125MOL   H22140149   1.423   3.206   2.252 -0.1205  0.2585 -1.1337
  125MOL   H22240150   1.761   3.046   2.465 -1.1192  2.8422 -1.4620
  125MOL   H22340151   1.689   2.817   2.427 -1.4886 -1.2641  0.9518
  125MOL   H22440152   1.365   2.749   2.478 -1.1776 -0.3938 -0.1749
  125MOL   H22540153   1.251   2.773   2.355 -2.0887 -1.1546  0.4106
  125MOL   C22640154   1.267   2.565   2.382  0.3122 -0.8304  0.7312
  125MOL   C22740155   1.223   2.521   2.523 -0.3394 -0.4850  0.1771
  125MOL   C22840156   1.252   2.394   2.568  0.0878  0.4220 -0.1319
  125MOL   C22940157   1.213   2.362   2.700  1.2675 -0.2077 -0.5187
  125MOL   C23040158   1.155   2.462   2.785  0.1959  0.1295 -0.2315
  125MOL   F23140159   1.139   2.428   2.915 -0.2642  0.1315  0.5083
  125MOL   C23240160   1.122   2.589   2.734 -0.1128  0.1192 -0.0622
  125MOL   C23340161   1.153   2.618   2.600 -0.1292  0.1898 -0.4765
  125MOL   C23440162   1.162   2.543   2.273  0.0537 -0.1135 -0.6557
  125MOL   H23540163   1.348   2.500   2.348  1.6420  1.1155  0.0917
  125MOL   H23640164   1.311   2.331   2.503 -1.3268 -0.1156 -0.9247
  125MOL   H23740165   1.221   2.258   2.728 -0.7086 -0.2463 -0.0622
  125MOL   H23840166   1.076   2.664   2.797 -1.7663 -1.3075  0.4456
  125MOL   H23940167   1.120   2.708   2.551  0.2984  0.2443 -0.6635
  125MOL   H24040168   1.069   2.585   2.313  1.6745  2.1808  0.7950
  125MOL   H24140169   1.175   2.595   2.178 -0.8554 -0.5660 -1.0339
  125MOL   C24240170   1.133   2.395   2.238 -0.2388  1.1436 -0.8328
  125MOL   C24340171   0.989   2.355   2.185  0.0214 -0.2117  0.3242
  125MOL   C24440172   0.906   2.269   2.257 -0.2693  0.0921 -0.1531
  125MOL   C24540173   0.781   2.228   2.205  0.1162 -0.5451 -0.3289
  125MOL   C24640174   0.733   2.284   2.083 -0.3034  0.4156  0.2877
  125MOL   F24740175   0.602   2.257   2.042  0.0070  0.0340 -0.1263
  125MOL   C24840176   0.817   2.366   2.004 -0.2310 -0.0987  0.2174
  125MOL   C24940177   0.943   2.403   2.059  0.0387  0.3121  0.7264
  125MOL   C25040178   1.245   2.330   2.141 -0.0354  0.2575 -0.1510
  125MOL   H25140179   1.132   2.341   2.332  0.1995  1.2267 -0.7825
  125MOL   H25240180   0.938   2.231   2.353  2.0362  2.8976  0.2574
  125MOL   H25340181   0.718   2.159   2.260  0.0763  0.3817  0.8160
  125MOL   H25440182   0.796   2.400   1.903  0.9139 -1.4324 -0.5014
  125MOL   H25540183   1.008   2.470   2.004  0.4802  0.4618  1.4203
  125MOL   H25640184   1.246   2.377   2.043 -0.7897  2.7016  0.9739
  125MOL   H25740185   1.346   2.356   2.170 -0.2712  0.4383  0.5174
  125MOL   C25840186   1.233   2.179   2.122 -0.1199  0.1444 -0.2766
  125MOL   C25940187   1.202   2.137   1.979 -0.2944 -0.8182  0.1182
  125MOL   C26040188   1.070   2.113   1.932 -0.0903 -0.1103  0.1327
  125MOL   C26140189   1.044   2.093   1.795 -0.0807 -0.3838 -0.8672
  125MOL   C26240190   1.148   2.091   1.702 -0.1652  0.3123  0.1723
  125MOL   F26340191   1.113   2.062   1.577  0.2452  0.3241 -0.3516
  125MOL   C26440192   1.284   2.095   1.750 -0.2572  0.5860  0.1460
  125MOL   C26540193   1.310   2.127   1.885 -0.2692 -0.0358  0.2895
  125MOL   C26640194   1.350   2.094   2.180 -0.1813 -0.2638 -0.4902
  125MOL   H26740195   1.142   2.154   2.176  0.2134  1.0631  0.7304
  125MOL   H26840196   0.988   2.118   2.002 -0.7024  1.7772 -0.6898
  125MOL   H26940197   0.941   2.078   1.765 -0.3929 -0.8115  0.3861
  125MOL   H27040198   1.364   2.078   1.680 -0.4249  1.5232 -0.2815
  125MOL   H27140199   1.410   2.146   1.923  0.6108 -1.1506 -1.4311
  125MOL   H27240200   1.356   1.999   2.127 -0.4564  0.2206 -1.3965
  125MOL   H27340201   1.443   2.146   2.157  0.2373  0.3528  2.4263
  125MOL   C27440202   1.337   2.058   2.333  0.6250 -0.1502 -0.2036
  125MOL   C27540203   1.206   1.982   2.366 -0.4171  0.6108  0.2273
  125MOL   C27640204   1.131   2.019   2.481 -0.1910  0.8854  0.0970
  125MOL   C27740205   1.004   1.961   2.511 -0.3842  0.1562  0.1288
  125MOL   C27840206   0.962   1.852   2.428 -0.5980 -0.6308 -0.1756
  125MOL   F27940207   0.845   1.793   2.464  0.5763  0.0565  0.1520
  125MOL   C28040208   1.045   1.809   2.320 -0.4330  0.2533 -0.3464
  125MOL   C28140209   1.167   1.871   2.292 -0.1556  0.2488 -0.1186
  125MOL   C28240210   1.464   1.982   2.381  0.7993 -0.3429  0.0079
  125MOL   H28340211   1.339   2.154   2.384 -0.0023 -0.3036  0.1145
  125MOL   H28440212   1.159   2.106   2.538 -2.4043  1.0844  0.9198
  125MOL   H28540213   0.953   1.986   2.603  1.3655 -0.9242  1.4490
  125MOL   H28640214   1.019   1.714   2.277  2.0149 -1.0481  0.9413
  125MOL   H28740215   1.221   1.833   2.206  1.4901  3.4160 -0.5554
  125MOL   H28840216   1.442   1.946   2.482  1.5893 -0.9831 -0.0467
  125MOL   H28940217   1.472   1.888   2.327  1.5485 -0.4057  0.2130
  125MOL   C29040218   1.605   2.047   2.365 -0.0189 -0.0676 -0.6528
  125MOL   C29140219   1.625   2.194   2.412  0.1809  0.6938  0.5961
  125MOL   C29240220   1.574   2.235   2.534 -0.2112  0.8271 -0.1948
  125MOL   C29340221   1.585   2.368   2.576  0.5535 -0.0648  0.3211
  125MOL   C29440222   1.651   2.460   2.496  0.5329  0.5766  0.4389
  125MOL   F29540223   1.674   2.583   2.542  0.1956 -0.1815 -0.0888
  125MOL   C29640224   1.700   2.422   2.363  0.4269 -0.1622  0.4483
  125MOL   C29740225   1.686   2.287   2.326  0.1833 -0.0886  0.4557
  125MOL   C29840226   1.703   1.955   2.435 -0.4120 -0.2985 -0.2576
  125MOL   H29940227   1.620   2.053   2.257 -1.2506  0.6901 -0.7844
  125MOL   H30040228   1.520   2.171   2.602  0.5012  0.5553  0.1259
  125MOL   H30140229   1.528   2.397   2.663 -2.5162 -1.7265 -1.0896
  125MOL   H30240230   1.748   2.503   2.310 -0.3754  0.6571  0.9646
  125MOL   H30340231   1.733   2.264   2.232 -1.1080 -0.7109 -0.0493
  125MOL   H30440232   1.664   1.926   2.533 -1.7849  0.7466 -0.4805
  125MOL   H30540233   1.695   1.861   2.380 -0.5806 -2.8919  3.9272
  125MOL   C30640234   1.850   1.982   2.442 -0.3784 -0.1935  0.0982
  125MOL   C30740235   1.942   1.878   2.509  0.3465  0.0133  0.4865
  125MOL   C30840236   1.893   1.755   2.556  0.2648  0.1149  0.5715
  125MOL   C30940237   1.974   1.672   2.636 -0.2571  0.9792 -0.4135
  125MOL   C31040238   2.098   1.721   2.689 -0.0198  0.3656  0.0699
  125MOL   F31140239   2.177   1.644   2.764  0.0414 -0.2028 -0.0733
  125MOL   C31240240   2.151   1.837   2.628 -0.4621 -0.2170 -0.1534
  125MOL   C31340241   2.072   1.920   2.549  0.7073  0.5184  0.0382
  125MOL   C31440242   1.915   2.008   2.304  0.2438  0.0988 -0.1191
  125MOL   H31540243   1.848   2.075   2.499  0.0162 -0.7964  1.1040
  125MOL   H31640244   1.793   1.719   2.535  1.3736 -3.1449  0.7320
  125MOL   H31740245   1.942   1.577   2.677  0.8282  0.5658 -0.5083
  125MOL   H31840246   2.248   1.869   2.665  0.0506  0.2598 -1.8920
  125MOL   H31940247   2.114   2.018   2.529  0.9478  0.7205  1.4808
  125MOL   H32040248   1.869   2.090   2.248  0.5724  1.2760  1.3003
  125MOL   H32140249   2.019   2.037   2.317  0.0298  0.9436 -0.2860
  125MOL   H32240250   1.903   1.921   2.239 -0.7054  1.4531 -1.7838
  126MOL     C140251   0.241   8.124   1.336 -0.3139  0.2892  1.0441
  126MOL     C240252   0.342   8.103   1.226  0.2120  0.2855  0.3173
  126MOL     C340253   0.290   8.069   1.097 -0.5503  0.8628 -0.3049
  126MOL     C440254   0.377   8.034   0.993  0.4959  0.0622 -0.3137
  126MOL     C540255   0.518   8.039   1.008 -0.0222  0.4933  0.1214
  126MOL     F640256   0.593   8.014   0.903 -0.3189  0.1603  0.0401
  126MOL     C740257   0.568   8.080   1.132  0.3983  0.2922  0.2981
  126MOL     C840258   0.482   8.106   1.240  0.0443 -0.4835 -0.5137
  126MOL     C940259   0.262   0.008   1.435 -0.2349 -0.3043 -0.1949
  126MOL    H1040260   0.233   8.028   1.387 -2.3462  0.3481  0.8715
  126MOL    H1140261   0.182   8.070   1.090 -0.5871 -0.0350  0.0574
  126MOL    H1240262   0.336   7.992   0.902  3.6994 -0.0404 -1.7902
  126MOL    H1340263   0.674   8.079   1.153 -0.2320 -2.0732  3.7004
  126MOL    H1440264   0.525   8.131   1.336  1.2356 -0.2422 -1.0943
  126MOL    H1540265   0.357   8.218   1.481  0.1027 -0.0684 -0.7652
  126MOL    H1640266   0.268   0.096   1.372 -2.1730  0.2333  0.3199
  126MOL    H1740267   0.148   8.142   1.282 -1.0167 -1.3589  1.6735
  126MOL    C1840268   0.147   0.014   1.541 -0.2019 -0.2405 -0.0978
  126MOL    C1940269   0.113   8.114   1.614 -0.0607  0.2413 -0.2572
  126MOL    C2040270   0.012   8.038   1.557 -0.3844 -0.1339  0.3792
  126MOL    C2140271   8.224   7.904   1.602  0.3703  0.6121  0.4774
  126MOL    C2240272   0.062   7.857   1.710  0.8059 -0.8715  0.1446
  126MOL    F2340273   0.040   7.729   1.753 -0.2175  0.3455  0.3771
  126MOL    C2440274   0.154   7.938   1.775  0.5511  0.3415 -0.6356
  126MOL    C2540275   0.181   8.066   1.729  0.7228  0.4661  0.7015
  126MOL    C2640276   0.174   0.142   1.631 -0.6276 -0.5578 -0.4800
  126MOL    H2740277   0.066   0.034   1.472 -1.0316 -0.9306  0.6727
  126MOL    H2840278   8.189   8.065   1.470  1.5104 -1.4718 -1.3324
  126MOL    H2940279   8.151   7.840   1.555  0.8463 -0.0771  0.6876
  126MOL    H3040280   0.207   7.894   1.857 -0.0545 -0.9542 -0.9323
  126MOL    H3140281   0.257   8.123   1.780  0.0608  2.0139 -0.0152
  126MOL    H3240282   0.249   0.121   1.707  0.6460 -2.0553 -2.0993
  126MOL    H3340283   0.217   0.228   1.580 -1.2996  0.0842  0.0448
  126MOL    C3440284   0.048   0.196   1.711 -0.4101  0.1652  0.1260
  126MOL    C3540285   0.097   0.247   1.845  0.1575  0.3785 -0.5807
  126MOL    C3640286   0.172   0.367   1.851  1.2068  0.3047  0.2080
  126MOL    C3740287   0.201   0.412   1.975  0.1511  0.4253 -0.1380
  126MOL    C3840288   0.167   0.348   2.095  0.5016  0.5020  0.0864
  126MOL    F3940289   0.206   0.410   2.210  0.0545 -0.0315  0.3920
  126MOL    C4040290   0.105   0.224   2.088 -0.3252  0.0696  0.2489
  126MOL    C4140291   0.064   0.172   1.963 -0.1102 -0.1053 -0.5631
  126MOL    C4240292   8.196   0.308   1.634 -0.2499  0.0601 -0.1578
  126MOL    H4340293   8.221   0.107   1.726  2.8036 -2.1033  0.5467
  126MOL    H4440294   0.203   0.424   1.764 -0.4635  2.0390  0.7101
  126MOL    H4540295   0.265   0.498   1.983  3.3610 -1.8278 -0.3809
  126MOL    H4640296   0.089   0.173   2.182  0.0054  0.5244  0.5561
  126MOL    H4740297   0.005   0.082   1.946 -1.3495  0.6403 -0.2375
  126MOL    H4840298   0.025   0.395   1.616 -1.4169  0.3410 -3.2633
  126MOL    H4940299   8.167   0.271   1.535  0.9679  0.6016 -0.7346
  126MOL    C5040300   8.066   0.359   1.706  0.4336  0.2597  0.4308
  126MOL    C5140301   8.005   0.481   1.630 -0.0157  0.0845 -0.2746
  126MOL    C5240302   8.014   0.610   1.685  0.2437  0.5123 -0.3815
  126MOL    C5340303   7.944   0.715   1.619 -0.2382 -0.1743  0.1710
  126MOL    C5440304   7.885   0.690   1.498 -0.2891  0.1015  0.2170
  126MOL    F5540305   7.821   0.789   1.435  0.5186  0.1794 -0.2816
  126MOL    C5640306   7.892   0.562   1.433  0.0915 -0.0184  0.2176
  126MOL    C5740307   7.956   0.456   1.502 -0.5107  0.3618 -0.6560
  126MOL    C5840308   7.962   0.249   1.736  0.2254 -0.2402 -0.2767
  126MOL    H5940309   8.104   0.391   1.803  1.3733  3.4767 -0.9238
  126MOL    H6040310   8.051   0.629   1.785  0.2688 -1.1967 -0.0549
  126MOL    H6140311   7.934   0.810   1.670 -0.5167 -0.2068  0.1784
  126MOL    H6240312   7.845   0.544   1.337 -1.9500 -1.4545  1.4512
  126MOL    H6340313   7.959   0.356   1.462 -3.1013  0.3925 -1.0213
  126MOL    H6440314   7.913   0.218   1.644 -0.1372 -1.1243  0.2153
  126MOL    H6540315   8.012   0.160   1.776  2.7063  0.4428 -1.7123
  126MOL    C6640316   7.846   0.291   1.836 -0.0302  0.3802  0.6538
  126MOL    C6740317   7.719   0.198   1.831 -0.2278 -0.1669 -0.1469
  126MOL    C6840318   7.740   0.064   1.877  0.2617  0.2629  0.6302
  126MOL    C6940319   7.636   8.204   1.855 -0.0820 -0.9228  0.7155
  126MOL    C7040320   7.511   0.018   1.803 -0.4334 -0.2404  0.3126
  126MOL    F7140321   7.410   8.168   1.808  0.9048 -0.0291 -0.1088
  126MOL    C7240322   7.495   0.152   1.757  0.1962 -0.3361 -0.5801
  126MOL    C7340323   7.599   0.244   1.774 -0.5676  0.8999  0.4846
  126MOL    C7440324   7.901   0.306   1.979 -0.0845 -0.0041  0.0641
  126MOL    H7540325   7.815   0.390   1.802 -2.1438 -0.3882  0.2863
  126MOL    H7640326   7.834   0.039   1.924  0.4040 -1.5066 -0.5204
  126MOL    H7740327   7.643   8.106   1.900 -0.1658 -0.0653  2.6352
  126MOL    H7840328   7.397   0.184   1.725  0.4399  2.3272  1.1313
  126MOL    H7940329   7.585   0.350   1.759  1.0235  0.7799 -2.1047
  126MOL    H8040330   7.910   0.214   2.036  3.4412  0.1491 -0.1642
  126MOL    H8140331   8.001   0.349   1.972 -0.6208  1.0224 -1.8364
  126MOL    C8240332   7.833   0.396   2.086 -0.0574  0.2948  0.2789
  126MOL    C8340333   7.816   0.539   2.040 -0.0128  0.3156  0.5072
  126MOL    C8440334   7.913   0.636   2.071  0.2693  0.8972 -0.7161
  126MOL    C8540335   7.900   0.767   2.023 -0.0169 -0.6628  0.3430
  126MOL    C8640336   7.791   0.799   1.941 -0.2138  0.0525  0.1427
  126MOL    F8740337   7.774   0.920   1.887 -0.0709 -0.1157  0.7678
  126MOL    C8840338   7.700   0.700   1.907  0.4980  0.4489  0.9189
  126MOL    C8940339   7.704   0.573   1.966  0.3507  0.4318  0.0844
  126MOL    C9040340   7.701   0.341   2.155 -0.2281 -0.0669  1.0929
  126MOL    H9140341   7.907   0.405   2.165  0.5250  0.7728 -0.3226
  126MOL    H9240342   8.001   0.618   2.131 -1.1685 -0.9313  0.9015
  126MOL    H9340343   7.970   0.839   2.061 -1.3409 -0.0372  1.6263
  126MOL    H9440344   7.621   0.734   1.842  0.0492 -1.3505  0.5212
  126MOL    H9540345   7.626   0.507   1.933 -0.2747  0.2436  1.8739
  126MOL    H9640346   7.659   0.426   2.210 -1.9397  1.0437 -1.8043
  126MOL    H9740347   7.630   0.308   2.079  1.0933  0.1010 -0.2544
  126MOL    C9840348   7.723   0.229   2.258 -0.6088 -0.5907 -0.6628
  126MOL    C9940349   7.863   0.222   2.320 -0.4480  0.5944  0.5937
  126MOL   C10040350   7.910   0.329   2.397 -0.2508  0.1139  0.0814
  126MOL   C10140351   8.048   0.334   2.430 -0.0149  0.0363 -0.5091
  126MOL   C10240352   8.129   0.218   2.409 -0.5451 -0.2729  0.1069
  126MOL   F10340353   0.017   0.218   2.462  0.2640 -0.5768 -0.3475
  126MOL   C10440354   8.075   0.103   2.341  0.0109  0.3284  0.2383
  126MOL   C10540355   7.938   0.113   2.294 -0.2997  0.4306  0.4270
  126MOL   C10640356   7.612   0.229   2.367 -0.3075 -0.6364 -0.2272
  126MOL   H10740357   7.721   0.136   2.201  1.3467 -1.1995  0.2096
  126MOL   H10840358   7.850   0.418   2.404 -0.5992 -0.0084 -1.1489
  126MOL   H10940359   8.087   0.415   2.491  0.8299  0.1643 -1.2183
  126MOL   H11040360   8.134   0.013   2.336  2.4493  1.9442 -0.9294
  126MOL   H11140361   7.897   0.024   2.246  0.5958 -0.5453  1.4465
  126MOL   H11240362   7.627   0.178   2.461  1.3491  0.9807  0.4166
  126MOL   H11340363   7.618   0.335   2.391 -0.3903 -0.8622  0.8048
  126MOL   C11440364   7.471   0.204   2.308  0.5609 -0.4754  0.2008
  126MOL   C11540365   7.443   0.059   2.295  0.0913 -0.5380 -0.0837
  126MOL   C11640366   7.419   0.004   2.163  0.1677 -0.0686  0.3850
  126MOL   C11740367   7.403   8.095   2.151  0.0884  0.2678 -0.3241
  126MOL   C11840368   7.389   8.020   2.272  0.7967  0.4164  0.0713
  126MOL   F11940369   7.374   7.884   2.263 -0.0849 -0.2222 -0.2170
  126MOL   C12040370   7.395   8.073   2.394 -0.2629  0.3835 -0.3760
  126MOL   C12140371   7.423   8.209   2.408 -0.7499  0.0912  0.0549
  126MOL   C12240372   7.366   0.272   2.400  0.2676  0.7819  0.1557
  126MOL   H12340373   7.470   0.245   2.206  0.8993 -0.2858  0.2715
  126MOL   H12440374   7.442   0.063   2.075  1.1970  0.3543  0.9198
  126MOL   H12540375   7.399   8.052   2.052  0.2577 -1.7110  0.5154
  126MOL   H12640376   7.399   8.021   2.489 -0.1694 -1.9049 -1.5796
  126MOL   H12740377   7.438   0.016   2.507  1.2376  0.2325 -0.3037
  126MOL   H12840378   7.281   0.208   2.419  2.0280 -0.7044  3.4384
  126MOL   H12940379   7.406   0.263   2.501  1.0882 -2.4247 -0.3940
  126MOL   C13040380   7.325   0.419   2.359 -0.0789 -0.4473 -0.0260
  126MOL   C13140381   7.244   0.433   2.221 -0.5555  0.4187  0.3218
  126MOL   C13240382   7.109   0.397   2.214  0.3202 -0.0122  0.4031
  126MOL   C13340383   7.033   0.420   2.092 -0.5796  0.8570 -0.4118
  126MOL   C13440384   7.099   0.470   1.982  0.4375  0.0871  0.2882
  126MOL   F13540385   7.024   0.498   1.873  0.1650  0.3019 -0.0598
  126MOL   C13640386   7.235   0.500   1.989 -0.1030  0.0914  0.2413
  126MOL   C13740387   7.307   0.480   2.105 -0.2645 -0.2733  0.3109
  126MOL   C13840388   7.262   0.497   2.479  0.5746 -0.0079 -0.3449
  126MOL   H13940389   7.424   0.458   2.336  0.0289 -0.5634  0.2427
  126MOL   H14040390   7.057   0.364   2.302  0.3263 -0.5538  0.2020
  126MOL   H14140391   6.926   0.408   2.093 -0.4024 -0.7853  0.7069
  126MOL   H14240392   7.287   0.543   1.904  1.1988 -1.5657  0.1643
  126MOL   H14340393   7.404   0.527   2.099  0.2111 -1.4388 -1.5184
  126MOL   H14440394   7.158   0.524   2.458 -0.1274 -1.8710  0.5803
  126MOL   H14540395   7.241   0.428   2.561 -1.1669  0.4847 -0.3543
  126MOL   C14640396   7.350   0.614   2.529  1.3782  0.0247  1.0864
  126MOL   C14740397   7.390   0.714   2.423  0.7867  0.3554 -0.3273
  126MOL   C14840398   7.524   0.719   2.394  0.1631 -0.3278 -0.3206
  126MOL   C14940399   7.558   0.806   2.285  0.9221  0.6190 -0.8030
  126MOL   C15040400   7.453   0.869   2.210 -0.6637 -0.3940  0.1768
  126MOL   F15140401   7.486   0.948   2.109  0.3748 -0.2748  0.6513
  126MOL   C15240402   7.316   0.846   2.243  0.1514 -0.4072  0.4040
  126MOL   C15340403   7.282   0.770   2.351  0.4226 -0.4721  0.1538
  126MOL   C15440404   7.289   0.678   2.656 -0.1529  1.1746 -0.2519
  126MOL   H15540405   7.436   0.561   2.568  1.9029  0.5551  0.6719
  126MOL   H15640406   7.604   0.669   2.446  0.3671 -0.1981 -0.5097
  126MOL   H15740407   7.662   0.807   2.255  1.0927  0.7810 -0.1994
  126MOL   H15840408   7.234   0.887   2.184 -0.0706  2.2511  2.4555
  126MOL   H15940409   7.181   0.752   2.382 -0.6654  0.3665 -2.7069
  126MOL   H16040410   7.194   0.729   2.646 -0.5294  0.4860 -0.1714
  126MOL   H16140411   7.249   0.605   2.726 -1.2885  0.9725 -1.1095
  126MOL   C16240412   7.374   0.778   2.743 -0.4993 -0.9808  0.1266
  126MOL   C16340413   7.284   0.872   2.816 -0.2898 -0.5304  0.7024
  126MOL   C16440414   7.192   0.822   2.910  0.1387 -0.3891  0.5554
  126MOL   C16540415   7.114   0.906   2.982 -0.2491  0.3922 -0.0050
  126MOL   C16640416   7.129   1.046   2.977 -0.2123 -0.0460 -0.3895
  126MOL   F16740417   7.061   1.120   3.068 -0.3766  0.1288  0.4643
  126MOL   C16840418   7.226   1.101   2.889 -0.3422  0.0633 -0.2092
  126MOL   C16940419   7.306   1.015   2.805 -0.5097 -0.1934 -1.0152
  126MOL   C17040420   7.473   0.699   2.833  0.6361 -0.6588  0.0091
  126MOL   H17140421   7.429   0.848   2.679 -2.1628  1.4218  1.2110
  126MOL   H17240422   7.174   0.716   2.910 -1.6837 -0.1211 -1.1549
  126MOL   H17340423   7.039   0.875   3.053 -0.6111  1.8811  0.2698
  126MOL   H17440424   7.238   1.208   2.894 -1.2873  0.2804 -2.0357
  126MOL   H17540425   7.385   1.047   2.738  1.4224 -0.7682  0.9435
  126MOL   H17640426   7.416   0.663   2.919  1.0358  0.3953  0.7377
  126MOL   H17740427   7.508   0.610   2.780  0.1716 -0.3890 -0.7551
  126MOL   C17840428   7.606   0.774   2.872  0.8934 -0.1273 -0.1405
  126MOL   C17940429   7.590   0.880   2.979  0.6645 -0.5212  0.2043
  126MOL   C18040430   7.542   0.842   3.109 -0.4306 -0.3743  0.0054
  126MOL   C18140431   7.520   0.943   3.211  0.2874  0.8309 -0.5549
  126MOL   C18240432   7.546   1.080   3.175  0.1200  0.3489  0.1099
  126MOL   F18340433   7.521   1.173   3.270 -0.1493 -0.0577  0.0637
  126MOL   C18440434   7.585   1.116   3.045  0.1379 -0.3492  0.2442
  126MOL   C18540435   7.610   1.017   2.948 -0.1536 -0.2612 -0.1251
  126MOL   C18640436   7.721   0.673   2.911  0.1179 -0.4523  0.1013
  126MOL   H18740437   7.631   0.820   2.777 -0.4515 -0.6273 -0.7562
  126MOL   H18840438   7.517   0.741   3.137  0.1172 -0.6351 -0.4319
  126MOL   H18940439   7.501   0.917   3.314 -2.0402  0.6170 -1.0129
  126MOL   H19040440   7.590   1.222   3.023  1.5009 -0.6759 -1.1211
  126MOL   H19140441   7.634   1.030   2.844  0.7999  1.4418  0.2979
  126MOL   H19240442   7.710   0.629   3.011 -2.7431 -0.7208 -0.3128
  126MOL   H19340443   7.710   0.595   2.836 -2.0838  2.2220 -2.4860
  126MOL   C19440444   7.867   0.729   2.898  0.2228 -0.7211 -0.9856
  126MOL   C19540445   7.910   0.840   2.999 -0.2161  0.1110 -0.4144
  126MOL   C19640446   7.867   0.844   3.137 -0.4584 -0.4656  0.1242
  126MOL   C19740447   7.901   0.957   3.222 -0.1469 -0.1377 -0.3948
  126MOL   C19840448   7.976   1.064   3.168 -0.3605  0.5829 -0.6217
  126MOL   F19940449   7.994   1.174   3.242  0.1355 -0.1495 -0.2647
  126MOL   C20040450   8.007   1.066   3.029 -0.1196 -0.5389  0.0438
  126MOL   C20140451   7.985   0.949   2.948  0.0123 -0.5922  0.0550
  126MOL   C20240452   7.973   0.616   2.912  0.0977  0.5072 -0.6931
  126MOL   H20340453   7.885   0.783   2.805 -0.2778  1.8365  0.3711
  126MOL   H20440454   7.787   0.781   3.172 -1.1014  0.2094 -0.1103
  126MOL   H20540455   7.873   0.960   3.326  3.4359  1.8860  0.6188
  126MOL   H20640456   8.061   1.156   3.004  1.3078 -1.1591  0.8247
  126MOL   H20740457   8.016   0.949   2.844  1.4861  2.4414  0.4351
  126MOL   H20840458   8.067   0.670   2.922  0.0891  0.2152  1.0818
  126MOL   H20940459   7.951   0.567   3.007 -2.6172 -0.6691 -1.8865
  126MOL   C21040460   7.977   0.519   2.788 -0.4460  0.3929  0.4005
  126MOL   C21140461   8.010   0.602   2.666 -0.1911  0.5148 -0.5518
  126MOL   C21240462   7.904   0.662   2.589  0.1560 -0.0514 -0.3135
  126MOL   C21340463   7.936   0.750   2.483 -0.4979 -0.2806 -0.1178
  126MOL   C21440464   8.069   0.768   2.445  0.5179  0.5893 -1.2022
  126MOL   F21540465   8.095   0.845   2.337 -0.6155 -0.2634  0.7036
  126MOL   C21640466   8.173   0.710   2.522  0.0573 -0.2054 -1.0430
  126MOL   C21740467   8.142   0.636   2.638 -0.1763 -0.4729  0.5456
  126MOL   C21840468   8.071   0.400   2.819  0.3223  0.3845  0.0471
  126MOL   H21940469   7.879   0.472   2.787  0.0314 -0.6330  1.4130
  126MOL   H22040470   7.802   0.650   2.621  0.4057 -0.0882  0.4809
  126MOL   H22140471   7.860   0.806   2.431 -0.5554  0.1964  0.4821
  126MOL   H22240472   0.037   0.728   2.482  1.6700 -2.2500  1.8646
  126MOL   H22340473   8.227   0.614   2.700  1.6209  1.6781 -1.0818
  126MOL   H22440474   8.103   0.363   2.721  0.9082  2.3591 -0.5339
  126MOL   H22540475   8.158   0.441   2.871 -0.5012 -1.0256  2.5923
  126MOL   C22640476   8.012   0.284   2.911  0.7151  0.0107 -0.1109
  126MOL   C22740477   7.875   0.237   2.857  0.4429 -0.4251  0.8081
  126MOL   C22840478   7.748   0.254   2.914  0.7983  0.0030  0.1012
  126MOL   C22940479   7.630   0.190   2.861 -0.3770  0.1190  0.9530
  126MOL   C23040480   7.648   0.121   2.740 -0.3443  0.3524 -1.1924
  126MOL   F23140481   7.552   0.041   2.696 -0.1486  0.2430 -0.0021
  126MOL   C23240482   7.770   0.111   2.678 -0.2552 -0.9984  0.1829
  126MOL   C23340483   7.884   0.161   2.737  0.1382 -0.2206  0.3363
  126MOL   C23440484   8.103   0.170   2.950  0.3571  0.2055 -0.5721
  126MOL   H23540485   7.993   0.342   3.001  1.5354 -1.9585  1.3442
  126MOL   H23640486   7.747   0.308   3.007  1.8618  0.3813 -0.0960
  126MOL   H23740487   7.534   0.207   2.906 -1.8880  1.3214 -2.5503
  126MOL   H23840488   7.776   0.064   2.581  1.4091  1.2702 -0.8650
  126MOL   H23940489   7.973   0.151   2.676  0.4277 -0.1638  0.7490
  126MOL   H24040490   8.137   0.110   2.866  0.1026 -1.4014  0.4486
  126MOL   H24140491   8.203   0.203   2.978  0.9939 -2.2757  0.2684
  126MOL   C24240492   8.048   0.078   3.061 -0.5528 -0.0153 -0.0602
  126MOL   C24340493   8.137   8.195   3.083 -0.0757  0.0340 -0.3227
  126MOL   C24440494   8.081   8.066   3.064 -0.7321  0.1761 -0.2874
  126MOL   C24540495   8.168   7.954   3.085  0.5043  0.1694  0.4310
  126MOL   C24640496   0.067   7.972   3.112  0.0443 -0.5064 -0.5099
  126MOL   F24740497   0.142   7.861   3.123  0.2252  0.4692  0.5249
  126MOL   C24840498   0.124   8.097   3.102  0.0501  0.8057  0.9463
  126MOL   C24940499   0.040   8.211   3.113 -0.2884 -0.2616 -0.6355
  126MOL   C25040500   8.010   0.152   3.193  0.5156  0.4519  1.0912
  126MOL   H25140501   7.955   0.041   3.019  0.0790  1.7294 -3.1682
  126MOL   H25240502   7.976   8.060   3.041 -0.6392  0.2261 -0.7215
  126MOL   H25340503   8.131   7.853   3.081  0.4938  0.1987 -0.1546
  126MOL   H25440504   0.232   8.108   3.107 -0.1975  3.7128  0.6748
  126MOL   H25540505   0.091   0.072   3.116  1.8533 -1.4028  1.3675
  126MOL   H25640506   8.101   0.208   3.217  1.1942 -0.5918  1.0346
  126MOL   H25740507   7.935   0.229   3.176  1.0031  0.5105 -0.9315
  126MOL   C25840508   7.949   0.069   3.301 -0.2573  1.2621 -0.2982
  126MOL   C25940509   8.041   0.046   3.422 -0.5152  0.4286  0.1214
  126MOL   C26040510   8.088   0.155   3.493  0.2094 -0.4209 -0.5699
  126MOL   C26140511   8.171   0.135   3.607 -0.6125  0.3605 -0.0045
  126MOL   C26240512   8.230   0.004   3.630 -0.7468  0.4233  0.1364
  126MOL   F26340513   0.073   8.218   3.735  0.1508  0.1611 -0.2648
  126MOL   C26440514   8.188   8.132   3.551 -0.4122 -0.0859 -0.6598
  126MOL   C26540515   8.091   8.153   3.452  0.5515 -0.2112  0.3943
  126MOL   C26640516   7.806   0.106   3.342  1.0922  0.0608 -0.3907
  126MOL   H26740517   7.954   8.205   3.254 -2.1526 -1.3794  4.6272
  126MOL   H26840518   8.032   0.247   3.485 -0.7883 -0.9753 -0.0481
  126MOL   H26940519   8.199   0.221   3.667 -0.1495  1.6361 -1.9887
  126MOL   H27040520   8.230   8.035   3.569 -1.7172 -0.3913  0.8653
  126MOL   H27140521   8.053   8.072   3.392 -0.8066 -0.7191  1.8891
  126MOL   H27240522   7.788   0.062   3.440  1.6825  1.7463  0.4894
  126MOL   H27340523   7.803   0.214   3.351  0.8626  0.1160 -1.0907
  126MOL   C27440524   7.686   0.070   3.251  0.4331 -0.5498  0.1912
  126MOL   C27540525   7.691   8.150   3.220  0.2408  0.4074  0.4052
  126MOL   C27640526   7.707   8.052   3.322  0.4023 -0.1759 -0.3174
  126MOL   C27740527   7.733   7.916   3.294  0.3871 -0.3063  0.6598
  126MOL   C27840528   7.732   7.879   3.155 -0.2020 -0.0084 -0.1913
  126MOL   F27940529   7.755   7.751   3.119 -0.4137 -0.5280  0.2313
  126MOL   C28040530   7.704   7.973   3.053 -0.2087  0.4337  0.0122
  126MOL   C28140531   7.677   8.105   3.086 -0.2637  0.0685 -0.4499
  126MOL   C28240532   7.554   0.116   3.322  0.2596  0.2722 -0.3446
  126MOL   H28340533   7.702   0.131   3.163 -0.9418 -1.2686 -0.5764
  126MOL   H28440534   7.730   8.077   3.424  2.3055 -0.7983 -0.5682
  126MOL   H28540535   7.756   7.850   3.377  2.0449  0.9536  1.2291
  126MOL   H28640536   7.686   7.947   2.950 -0.0633  0.9849 -0.1578
  126MOL   H28740537   7.658   8.170   3.003 -0.7687 -0.4341 -0.7273
  126MOL   H28840538   7.554   0.099   3.430  0.8301 -1.7150 -0.6389
  126MOL   H28940539   7.541   0.224   3.319 -0.3452  0.2371  0.8979
  126MOL   C29040540   7.418   0.051   3.268 -0.3252  0.4809 -0.2237
  126MOL   C29140541   7.298   0.094   3.349  0.2488 -0.5292 -0.3617
  126MOL   C29240542   7.243   0.224   3.329  0.5804 -0.2108  0.5792
  126MOL   C29340543   7.127   0.260   3.402 -0.0129  0.0447  0.7060
  126MOL   C29440544   7.064   0.172   3.493 -0.3622 -0.4883  0.4007
  126MOL   F29540545   6.961   0.212   3.554  0.7236 -0.3386 -0.9018
  126MOL   C29640546   7.123   0.046   3.516  0.1873 -0.0162  0.0959
  126MOL   C29740547   7.237   0.009   3.437  0.0110 -0.6823  0.0564
  126MOL   C29840548   7.387   0.072   3.115 -0.0806 -0.4828  0.0950
  126MOL   H29940549   7.432   8.178   3.275  2.0317  0.7207 -1.0679
  126MOL   H30040550   7.265   0.296   3.251 -1.4790  1.2926  1.3564
  126MOL   H30140551   7.081   0.356   3.383  0.6128  0.6116  1.9201
  126MOL   H30240552   7.077   8.208   3.582 -1.2209 -1.3482 -2.3063
  126MOL   H30340553   7.278   8.143   3.444 -1.1167 -1.3719 -2.5008
  126MOL   H30440554   7.384   0.180   3.104 -1.1343 -0.4772  0.4492
  126MOL   H30540555   7.462   0.060   3.037 -0.5719  0.9241 -0.6007
  126MOL   C30640556   7.258   0.003   3.066 -0.4996 -0.9502 -0.7600
  126MOL   C30740557   7.201   0.077   2.942 -0.0820  0.2404 -0.8044
  126MOL   C30840558   7.117   0.185   2.961 -0.2295 -0.3640  0.2467
  126MOL   C30940559   7.069   0.254   2.851 -0.2311 -0.6428  0.1609
  126MOL   C31040560   7.096   0.217   2.717 -0.4586 -0.1746 -0.0284
  126MOL   F31140561   7.031   0.278   2.612  0.1118 -0.8597 -0.1818
  126MOL   C31240562   7.179   0.103   2.695 -0.3574 -0.2807 -0.1497
  126MOL   C31340563   7.233   0.034   2.811  0.2827 -0.3036 -0.0916
  126MOL   C31440564   7.272   8.086   3.044 -0.7379 -0.0247  0.6723
  126MOL   H31540565   7.170   0.025   3.126 -0.5167 -1.7890 -0.4764
  126MOL   H31640566   7.096   0.228   3.058 -0.8960 -0.1890  0.0258
  126MOL   H31740567   6.994   0.331   2.864  0.4502 -0.1568  1.2872
  126MOL   H31840568   7.204   0.075   2.593 -1.2494 -0.7648 -0.2456
  126MOL   H31940569   7.295   8.183   2.792 -0.8951 -1.1456 -0.2080
  126MOL   H32040570   7.180   8.046   3.002  0.3590 -1.4992 -0.3449
  126MOL   H32140571   7.357   8.053   2.985 -1.3478 -0.0130 -0.2161
  126MOL   H32240572   7.286   8.055   3.147 -1.3850  0.4138  0.9018
  127MOL     C140573   3.519   7.567   0.776 -0.0222  0.1455 -0.5849
  127MOL     C240574   3.426   7.548   0.661  0.4206  1.0275 -0.1044
  127MOL     C340575   3.292   7.529   0.702  0.8187 -0.0068 -0.0959
  127MOL     C440576   3.191   7.503   0.604  0.5723  0.0057 -0.7335
  127MOL     C540577   3.223   7.492   0.471  0.2318 -0.7812 -0.0264
  127MOL     F640578   3.122   7.475   0.382  0.0782  0.0455 -0.0745
  127MOL     C740579   3.356   7.519   0.429 -0.0252 -0.2570  0.2917
  127MOL     C840580   3.462   7.530   0.526  0.0365  0.3238 -0.2293
  127MOL     C940581   3.637   7.660   0.747  0.7281 -0.6990 -0.0324
  127MOL    H1040582   3.546   7.467   0.810  0.1842 -0.4798 -2.5309
  127MOL    H1140583   3.263   7.533   0.806 -0.2207 -1.5334 -0.3174
  127MOL    H1240584   3.085   7.498   0.627  0.4039 -0.2635 -1.5459
  127MOL    H1340585   3.374   7.528   0.323  0.8204  2.1565  0.6182
  127MOL    H1440586   3.561   7.519   0.485  0.5413  0.2385  0.9903
  127MOL    H1540587   3.680   7.606   0.662  0.1986  1.0958 -1.4547
  127MOL    H1640588   3.587   7.748   0.708 -1.8651 -1.3654  1.7000
  127MOL    H1740589   3.472   7.607   0.866 -0.8186 -2.4396  0.2025
  127MOL    C1840590   3.740   7.678   0.852 -0.0846 -0.4324  0.7576
  127MOL    C1940591   3.694   7.764   0.965  0.4737 -0.0616 -0.4843
  127MOL    C2040592   3.645   7.705   1.084  0.2442  0.5028  0.0548
  127MOL    C2140593   3.616   7.790   1.193  0.4740 -0.8743 -0.1682
  127MOL    C2240594   3.633   7.930   1.185  0.6472  0.2305 -0.2859
  127MOL    F2340595   3.618   7.998   1.298 -0.2798 -0.1288 -0.3851
  127MOL    C2440596   3.680   7.988   1.069  0.3520  0.2372 -0.3084
  127MOL    C2540597   3.713   7.903   0.963  0.4462  0.0627  0.3650
  127MOL    C2640598   3.820   7.554   0.894  0.2558 -0.1736  0.1477
  127MOL    H2740599   3.818   7.739   0.806  0.9887 -1.8363  0.6672
  127MOL    H2840600   3.631   7.599   1.093  0.8126  0.3498 -0.8467
  127MOL    H2940601   3.582   7.757   1.290  0.4074  2.5982  1.0736
  127MOL    H3040602   3.703   8.093   1.064  0.8601  0.1641  0.4528
  127MOL    H3140603   3.746   7.945   0.869 -0.6035  0.2289  0.0592
  127MOL    H3240604   3.871   7.569   0.989  0.5022  2.4837 -0.3590
  127MOL    H3340605   3.744   7.476   0.904 -0.9874  1.1564  1.1909
  127MOL    C3440606   3.920   7.515   0.785  0.8500  0.3688 -0.2815
  127MOL    C3540607   4.037   7.613   0.766 -0.4721  0.0927  0.4707
  127MOL    C3640608   4.075   7.650   0.631  0.5736  0.4760  0.3836
  127MOL    C3740609   4.175   7.742   0.623  0.2157 -0.2991 -0.3626
  127MOL    C3840610   4.258   7.783   0.732  0.0625  0.1667 -0.0826
  127MOL    F3940611   4.359   7.864   0.713  0.0665  0.0738 -0.5635
  127MOL    C4040612   4.228   7.744   0.856  0.2213 -0.2054  0.1045
  127MOL    C4140613   4.113   7.660   0.873 -0.5261 -1.0618  0.4513
  127MOL    C4240614   3.975   7.377   0.804  0.0562  0.2663  0.0620
  127MOL    H4340615   3.870   7.509   0.689  1.9010 -0.9149 -0.7760
  127MOL    H4440616   4.005   7.629   0.552  0.1978 -1.3261  1.1592
  127MOL    H4540617   4.196   7.784   0.525  2.6076  0.8920  0.6298
  127MOL    H4640618   4.274   7.790   0.941  0.9863  1.6228 -1.2731
  127MOL    H4740619   4.077   7.635   0.972 -1.2907  1.5505  0.8553
  127MOL    H4840620   4.083   7.376   0.786 -0.0016 -1.1186 -0.2269
  127MOL    H4940621   3.955   7.347   0.907  1.2608  0.3467  0.3293
  127MOL    C5040622   3.927   7.264   0.705  1.1010 -0.5323 -1.0340
  127MOL    C5140623   4.036   7.157   0.700  1.1114  0.6392  0.1377
  127MOL    C5240624   4.156   7.183   0.638  0.2827  0.6132 -0.2237
  127MOL    C5340625   4.265   7.092   0.642  1.2342 -0.3262 -0.2408
  127MOL    C5440626   4.244   6.968   0.711 -0.2710  0.0522 -0.3807
  127MOL    F5540627   4.340   6.870   0.714  0.5591 -0.0526 -0.1383
  127MOL    C5640628   4.120   6.939   0.773  0.6270 -0.2737  0.3103
  127MOL    C5740629   4.011   7.034   0.765  0.0544  0.3172  0.3978
  127MOL    C5840630   3.786   7.209   0.721 -0.6029 -0.4577 -0.1892
  127MOL    H5940631   3.918   7.303   0.604  1.0835  2.0896 -0.0618
  127MOL    H6040632   4.180   7.281   0.599  0.6908  0.1467 -1.1550
  127MOL    H6140633   4.355   7.123   0.590  1.3633 -0.6388 -0.2105
  127MOL    H6240634   4.109   6.837   0.806  2.1064  0.3297  2.8244
  127MOL    H6340635   3.917   7.000   0.804  0.9983 -3.8278 -0.7658
  127MOL    H6440636   3.791   7.169   0.822 -0.5204  2.8661  1.1930
  127MOL    H6540637   3.718   7.294   0.730  0.4071  0.1744  1.6507
  127MOL    C6640638   3.734   7.110   0.607  0.7656  0.6524  0.1082
  127MOL    C6740639   3.636   7.014   0.664  0.3881 -0.1829  0.5688
  127MOL    C6840640   3.654   6.871   0.676  0.2761  0.2404  0.1990
  127MOL    C6940641   3.554   6.787   0.727  0.2823 -0.0887 -0.2275
  127MOL    C7040642   3.433   6.845   0.777  0.2972 -0.3604  0.3196
  127MOL    F7140643   3.346   6.770   0.848  0.3869  0.6945 -0.1747
  127MOL    C7240644   3.412   6.984   0.760 -0.6077 -0.2701 -0.1367
  127MOL    C7340645   3.516   7.070   0.715  0.4947 -0.4788  0.5022
  127MOL    C7440646   3.687   7.180   0.474 -0.5078 -0.8107  0.4533
  127MOL    H7540647   3.806   7.040   0.566 -0.5995  0.0882 -1.3867
  127MOL    H7640648   3.744   6.830   0.632  0.6252 -1.5029  2.4555
  127MOL    H7740649   3.574   6.681   0.734  0.2634 -0.0481  0.4777
  127MOL    H7840650   3.324   7.022   0.811 -0.5520  0.3263 -0.4783
  127MOL    H7940651   3.488   7.174   0.715  2.1001 -0.0395 -0.6748
  127MOL    H8040652   3.599   7.241   0.495 -0.2231  0.1947 -1.1830
  127MOL    H8140653   3.766   7.249   0.447  0.0725 -1.7807 -0.3709
  127MOL    C8240654   3.645   7.076   0.365 -0.3536  0.2782  1.1812
  127MOL    C8340655   3.563   7.143   0.267  0.0352 -0.2699 -0.5942
  127MOL    C8440656   3.616   7.251   0.189  0.1070 -0.3458 -0.2802
  127MOL    C8540657   3.537   7.328   0.102  0.0740  0.3205  0.0510
  127MOL    C8640658   3.401   7.286   0.080 -1.0687  0.0404  0.0083
  127MOL    F8740659   3.323   7.348   8.225  0.0694 -0.3640  0.1568
  127MOL    C8840660   3.354   7.175   0.151  0.0823 -0.6836  0.5196
  127MOL    C8940661   3.427   7.106   0.241 -0.5263 -0.2028  0.8514
  127MOL    C9040662   3.766   7.000   0.307  0.1551 -0.2131  0.2689
  127MOL    H9140663   3.578   7.001   0.406  1.5155 -1.7209  0.6601
  127MOL    H9240664   3.720   7.280   0.190  0.7097 -2.4475  2.8536
  127MOL    H9340665   3.578   7.410   0.044 -1.0535 -0.5188 -1.9639
  127MOL    H9440666   3.255   7.133   0.149  0.4543 -1.5605 -0.1089
  127MOL    H9540667   3.389   7.021   0.297  1.3867 -1.2183  0.6313
  127MOL    H9640668   3.844   7.067   0.270  1.2319 -2.2676 -1.3094
  127MOL    H9740669   3.808   6.931   0.380 -1.0475 -0.5433  0.6516
  127MOL    C9840670   3.730   6.900   0.191 -0.1423  0.4196 -0.5266
  127MOL    C9940671   3.869   6.845   0.143 -0.4491 -0.1142 -0.4727
  127MOL   C10040672   3.969   6.788   0.226  0.9168 -0.5767 -0.2695
  127MOL   C10140673   4.087   6.734   0.180  0.7851 -0.5839 -0.4078
  127MOL   C10240674   4.109   6.735   0.040 -0.1317 -0.0727  0.4569
  127MOL   F10340675   4.212   6.665   8.223 -0.0831 -0.1917 -0.3554
  127MOL   C10440676   4.026   6.815   8.192  0.0575  0.1000  0.2819
  127MOL   C10540677   3.905   6.861   0.004 -0.4951 -0.4046  0.3887
  127MOL   C10640678   3.641   6.782   0.226 -0.2229 -0.1775  0.2296
  127MOL   H10740679   3.686   6.955   0.108  0.8963  1.9515 -0.0677
  127MOL   H10840680   3.955   6.784   0.334  0.1413  0.3532 -0.3243
  127MOL   H10940681   4.141   6.668   0.246  2.7536  1.1552 -0.2258
  127MOL   H11040682   4.050   6.826   8.088  2.6117  0.2069  0.8502
  127MOL   H11140683   3.841   6.912   8.167 -0.1401  0.3583  0.6185
  127MOL   H11240684   3.706   6.707   0.272  0.4419  0.3981  0.2513
  127MOL   H11340685   3.575   6.810   0.308 -2.7139 -1.4808 -1.2879
  127MOL   C11440686   3.568   6.737   0.098 -0.7338  0.0793 -0.4867
  127MOL   C11540687   3.515   6.599   0.125  0.2548  0.5153  0.1642
  127MOL   C11640688   3.546   6.495   0.038 -0.0997  0.2468  0.2712
  127MOL   C11740689   3.492   6.369   0.052 -0.6271  0.1139 -0.2874
  127MOL   C11840690   3.406   6.340   0.161  0.4247 -0.6103  0.0979
  127MOL   F11940691   3.356   6.216   0.183  0.3950  0.1500 -0.3226
  127MOL   C12040692   3.366   6.446   0.251  0.0013 -0.5629 -0.1102
  127MOL   C12140693   3.430   6.568   0.231  0.1884  0.4485  0.3864
  127MOL   C12240694   3.448   6.823   0.058  0.4067 -0.2484 -0.0952
  127MOL   H12340695   3.644   6.735   0.020 -0.6799  0.8414 -0.4526
  127MOL   H12440696   3.608   6.530   8.191  1.5894  0.6903  1.7185
  127MOL   H12540697   3.527   6.296   8.216  2.1602  1.1563 -0.0471
  127MOL   H12640698   3.311   6.429   0.342  0.9264 -0.0093  0.5615
  127MOL   H12740699   3.411   6.641   0.309 -0.9365 -0.1191  0.6587
  127MOL   H12840700   3.376   6.827   0.140  1.6753  2.0859  0.9729
  127MOL   H12940701   3.481   6.926   0.046  1.2880 -0.7401 -2.1963
  127MOL   C13040702   3.376   6.780   8.164 -0.2280 -0.6526  0.0821
  127MOL   C13140703   3.238   6.840   8.149 -0.0694 -0.7755 -0.1170
  127MOL   C13240704   3.119   6.763   8.142  0.9420 -0.1443 -0.5553
  127MOL   C13340705   2.991   6.825   8.124 -0.0729  0.0723 -0.1104
  127MOL   C13440706   2.981   6.966   8.131  0.1034 -0.1452  0.2118
  127MOL   F13540707   2.862   7.029   8.111 -0.0065  0.3169  0.0387
  127MOL   C13640708   3.099   7.042   8.138  0.4042 -0.1033 -0.3982
  127MOL   C13740709   3.227   6.984   8.149 -0.8912  0.1336 -0.4646
  127MOL   C13840710   3.468   6.799   8.039  0.3658 -0.6729  0.4930
  127MOL   H13940711   3.374   6.673   8.182  1.3195 -0.3399  2.2814
  127MOL   H14040712   3.140   6.657   8.151 -2.1277 -0.8422 -1.0908
  127MOL   H14140713   2.902   6.764   8.120 -0.5122  0.7223 -0.2425
  127MOL   H14240714   3.097   7.149   8.144 -0.8299 -0.1029 -0.7306
  127MOL   H14340715   3.310   7.052   8.163 -3.1263  2.9862 -0.5894
  127MOL   H14440716   3.440   6.896   7.997  1.7822 -0.6206 -0.3432
  127MOL   H14540717   3.571   6.809   8.073  1.0956 -2.2111 -1.1907
  127MOL   C14640718   3.460   6.679   7.942 -0.1048 -0.2834 -0.0611
  127MOL   C14740719   3.318   6.655   7.897  0.3898  0.2092  0.1633
  127MOL   C14840720   3.250   6.533   7.938 -0.1032 -0.2921 -0.0366
  127MOL   C14940721   3.110   6.521   7.904  0.4360  0.1260 -0.1209
  127MOL   C15040722   3.045   6.616   7.820 -0.5970  0.4184  0.6934
  127MOL   F15140723   2.915   6.595   7.785 -0.2658  0.0363 -0.4755
  127MOL   C15240724   3.119   6.727   7.771  0.0380  0.2055 -0.1087
  127MOL   C15340725   3.248   6.752   7.811  0.7881  0.5010  0.7370
  127MOL   C15440726   3.557   6.694   7.818 -1.0660  0.1881 -0.3507
  127MOL   H15540727   3.484   6.589   7.999 -1.4060 -1.4136 -1.2750
  127MOL   H15640728   3.302   6.483   8.018 -0.0178 -0.1322  0.0074
  127MOL   H15740729   3.052   6.441   7.950  1.2062  0.4474  1.4607
  127MOL   H15840730   3.064   6.791   7.703 -0.9527 -0.7471 -0.2286
  127MOL   H15940731   3.305   6.835   7.773  0.5155  1.5957  2.6290
  127MOL   H16040732   3.510   6.642   7.734 -1.9557 -0.2564  0.4032
  127MOL   H16140733   3.564   6.799   7.791 -0.0296  0.1921 -0.0845
  127MOL   C16240734   3.699   6.635   7.823  0.0553 -0.1438 -0.0698
  127MOL   C16340735   3.705   6.504   7.902  0.4964  0.6552  0.0174
  127MOL   C16440736   3.639   6.391   7.851  0.1145 -0.2803  0.0795
  127MOL   C16540737   3.653   6.270   7.914 -0.0057  0.5490 -0.3289
  127MOL   C16640738   3.733   6.259   8.027  0.2477 -1.1628  0.6556
  127MOL   F16740739   3.751   6.142   8.087  0.0651 -0.6170 -0.3653
  127MOL   C16840740   3.794   6.369   8.081 -0.0828 -0.1242  0.6799
  127MOL   C16940741   3.783   6.495   8.017  0.5697 -0.2997 -0.8469
  127MOL   C17040742   3.769   6.623   7.683 -0.3160 -0.5750  0.4375
  127MOL   H17140743   3.754   6.714   7.874  1.4711  0.7421 -2.8598
  127MOL   H17240744   3.573   6.397   7.766 -2.0090 -1.2471  1.6102
  127MOL   H17340745   3.600   6.191   7.863  3.3952  0.1486 -3.4338
  127MOL   H17440746   3.855   6.342   8.166  1.5243 -1.2012 -0.7889
  127MOL   H17540747   3.838   6.577   8.062  1.9652 -1.7816  0.2355
  127MOL   H17640748   3.700   6.564   7.622  0.5594 -1.1538 -0.0072
  127MOL   H17740749   3.777   6.723   7.641 -0.8489 -0.2058  1.2031
  127MOL   C17840750   3.912   6.569   7.683  0.6735  0.4782  0.3017
  127MOL   C17940751   3.964   6.514   7.549 -0.1772  0.3861  0.2663
  127MOL   C18040752   3.942   6.378   7.522  0.2303  0.3377 -0.4350
  127MOL   C18140753   4.003   6.320   7.409 -0.0642  0.1935  0.3146
  127MOL   C18240754   4.081   6.399   7.318  0.0811 -0.3255  0.5626
  127MOL   F18340755   4.147   6.352   7.211 -0.1894 -0.2092 -0.1293
  127MOL   C18440756   4.083   6.539   7.338 -0.2812 -0.1555 -0.1498
  127MOL   C18540757   4.039   6.594   7.462 -0.0119 -0.3729  0.1895
  127MOL   C18640758   4.024   6.654   7.744  0.5991 -0.4724  0.3251
  127MOL   H18740759   3.896   6.477   7.741 -3.5806  1.2502  0.5233
  127MOL   H18840760   3.897   6.321   7.603 -0.0140  2.6582  1.1129
  127MOL   H18940761   4.007   6.214   7.388  1.8556  0.4257 -0.6224
  127MOL   H19040762   4.133   6.599   7.264  0.0916 -2.5250 -1.9002
  127MOL   H19140763   4.047   6.698   7.488  0.8185 -0.2518 -0.5025
  127MOL   H19240764   4.041   6.744   7.684 -0.6276 -0.0182  0.6432
  127MOL   H19340765   3.983   6.696   7.836 -2.4029  0.5353 -1.4039
  127MOL   C19440766   4.159   6.572   7.765 -0.4557  0.6694 -0.4387
  127MOL   C19540767   4.270   6.679   7.792  0.4387  0.1838 -0.8954
  127MOL   C19640768   4.358   6.718   7.690  0.0202  0.3656  0.2901
  127MOL   C19740769   4.459   6.812   7.718  0.0939  0.1531 -0.1210
  127MOL   C19840770   4.475   6.874   7.844  0.3811 -0.5568 -0.2261
  127MOL   F19940771   4.582   6.952   7.880 -0.1768 -0.1588  0.7498
  127MOL   C20040772   4.384   6.839   7.944  0.0387  0.1062 -0.3716
  127MOL   C20140773   4.280   6.743   7.915 -0.2450  0.0658 -0.3959
  127MOL   C20240774   4.140   6.481   7.886  0.3076 -0.4141  0.2693
  127MOL   H20340775   4.181   6.506   7.681  0.4649  0.1948  0.1650
  127MOL   H20440776   4.368   6.671   7.593  2.5740 -2.1516  1.6972
  127MOL   H20540777   4.536   6.829   7.645 -1.0026 -0.6285 -1.4825
  127MOL   H20640778   4.384   6.884   8.042 -0.6734  0.4910 -0.5448
  127MOL   H20740779   4.201   6.731   7.988 -0.6042  2.4816 -0.3526
  127MOL   H20840780   4.108   6.551   7.963  1.4295  2.1780 -1.5781
  127MOL   H20940781   4.056   6.414   7.867 -0.9345  1.1595  0.1916
  127MOL   C21040782   4.252   6.394   7.940 -0.0465 -0.2716  0.3078
  127MOL   C21140783   4.179   6.293   8.042  0.7379 -1.2078 -0.0936
  127MOL   C21240784   4.177   6.320   8.183  0.1067  0.1863  0.1608
  127MOL   C21340785   4.115   6.228   0.037 -0.4174  0.7708 -0.1345
  127MOL   C21440786   4.055   6.116   8.219  0.2072 -0.2339  0.5836
  127MOL   F21540787   3.982   6.036   0.070  0.1910 -0.0630  0.0661
  127MOL   C21640788   4.062   6.082   8.083 -0.1401 -0.3915 -0.2854
  127MOL   C21740789   4.126   6.170   8.001  0.5430 -0.5609  0.7969
  127MOL   C21840790   4.348   6.323   7.846 -0.0192 -0.5036  0.3034
  127MOL   H21940791   4.318   6.464   7.992  2.7352 -0.6304 -2.5300
  127MOL   H22040792   4.211   6.412   8.229 -1.3714  0.2137  1.2380
  127MOL   H22140793   4.103   6.260   0.139  0.0290  2.9056 -0.7100
  127MOL   H22240794   4.001   5.998   8.054  0.2729 -1.2746  1.3557
  127MOL   H22340795   4.122   6.156   7.894 -1.3351 -0.7922  0.8784
  127MOL   H22440796   4.300   6.245   7.786  0.2416 -1.5288  1.4103
  127MOL   H22540797   4.366   6.391   7.763 -0.3237 -0.5821  0.1737
  127MOL   C22640798   4.480   6.260   7.908  0.1470  0.0762  0.8442
  127MOL   C22740799   4.457   6.110   7.943  0.8235  0.0374 -0.2196
  127MOL   C22840800   4.447   6.077   8.081 -0.3175 -0.3374  0.1813
  127MOL   C22940801   4.408   5.946   8.108 -0.3839  0.1173 -0.5739
  127MOL   C23040802   4.392   5.850   8.010 -0.0290  0.3888 -0.4382
  127MOL   F23140803   4.358   5.721   8.049 -0.5633  0.7007 -0.1959
  127MOL   C23240804   4.410   5.884   7.876 -1.0301 -0.3978  0.2142
  127MOL   C23340805   4.452   6.014   7.842  0.1935 -1.1237  0.2673
  127MOL   C23440806   4.606   6.276   7.811 -0.5672  0.3373  0.3007
  127MOL   H23540807   4.491   6.315   8.001  1.3780  1.7199 -0.2232
  127MOL   H23640808   4.453   6.155   8.155  1.9925  0.2296 -0.5610
  127MOL   H23740809   4.384   5.917   8.209 -0.6206  0.6528 -0.4718
  127MOL   H23840810   4.402   5.808   7.799 -0.3941 -0.3733  0.1284
  127MOL   H23940811   4.459   6.042   7.738  0.2715 -0.8633  0.3416
  127MOL   H24040812   4.677   6.205   7.853 -1.7028  0.6187  2.8349
  127MOL   H24140813   4.581   6.237   7.712  1.4971 -0.7258  0.1703
  127MOL   C24240814   4.684   6.408   7.809 -0.0080  0.2389 -0.2824
  127MOL   C24340815   4.708   6.467   7.952 -0.5495 -0.0405  0.9325
  127MOL   C24440816   4.799   6.399   8.038 -0.2773  0.0828 -0.1459
  127MOL   C24540817   4.825   6.460   8.165 -0.3711  0.0191  0.4045
  127MOL   C24640818   4.769   6.586   8.203 -1.0922  0.3408  0.0832
  127MOL   F24740819   4.799   6.633   0.086  0.2364 -0.0722  0.1382
  127MOL   C24840820   4.686   6.657   8.117  0.1751 -0.4738  0.2259
  127MOL   C24940821   4.662   6.596   7.989  0.4960 -0.4619 -0.1537
  127MOL   C25040822   4.819   6.398   7.730 -0.0745  0.0841 -0.4192
  127MOL   H25140823   4.625   6.483   7.756  2.7221  0.1361 -3.6498
  127MOL   H25240824   4.839   6.302   8.014  1.6014  0.6768  0.5083
  127MOL   H25340825   4.892   6.405   8.230  0.9602  0.5219 -0.5268
  127MOL   H25440826   4.641   6.752   8.141  0.7408  0.0939 -0.9020
  127MOL   H25540827   4.603   6.649   7.916  1.3329  1.5507  0.5886
  127MOL   H25640828   4.869   6.494   7.741  0.7272 -0.2960 -0.7824
  127MOL   H25740829   4.875   6.320   7.781 -1.5486 -0.7374 -0.0195
  127MOL   C25840830   4.807   6.351   7.581 -0.1188  0.2638  1.1271
  127MOL   C25940831   4.716   6.451   7.505  0.0449 -0.3977 -0.5700
  127MOL   C26040832   4.755   6.585   7.471 -0.0101 -0.1368 -0.0977
  127MOL   C26140833   4.671   6.673   7.393  0.7770 -0.8682  0.6351
  127MOL   C26240834   4.537   6.627   7.364  0.2846 -0.0907  1.0981
  127MOL   F26340835   4.441   6.706   7.299 -0.2446  0.4265 -0.0221
  127MOL   C26440836   4.499   6.491   7.402  0.4557  0.4786  0.2637
  127MOL   C26540837   4.588   6.410   7.473  0.4687  0.1430  0.4140
  127MOL   C26640838   4.944   6.338   7.513 -0.8078  0.4367 -0.2398
  127MOL   H26740839   4.753   6.256   7.583 -0.7048  0.6074  2.2397
  127MOL   H26840840   4.854   6.625   7.487 -0.7180  1.4772  0.2889
  127MOL   H26940841   4.704   6.769   7.356  0.2438 -0.5969  0.8471
  127MOL   H27040842   4.401   6.452   7.379 -0.4358  2.8025 -0.0836
  127MOL   H27140843   4.554   6.312   7.504 -2.5605  1.0865  0.2214
  127MOL   H27240844   4.980   6.432   7.472 -1.9408 -0.1221 -2.6430
  127MOL   H27340845   5.015   6.301   7.587 -0.3478  4.2682  1.3388
  127MOL   C27440846   4.954   6.247   7.392 -0.3524  0.2394 -0.5868
  127MOL   C27540847   5.090   6.266   7.316  0.1061 -0.1174 -0.5523
  127MOL   C27640848   5.212   6.232   7.373 -0.1324 -0.1116 -0.0436
  127MOL   C27740849   5.331   6.222   7.296  0.1699  0.2322  0.1085
  127MOL   C27840850   5.327   6.248   7.160 -0.2827 -0.3503 -0.1546
  127MOL   F27940851   5.441   6.242   7.088 -0.4399  0.4679  0.1363
  127MOL   C28040852   5.206   6.301   7.099  0.2352 -0.8584 -0.1573
  127MOL   C28140853   5.092   6.305   7.181 -1.0947 -0.1022  0.8783
  127MOL   C28240854   4.911   6.098   7.410  0.4128 -0.6028 -0.1542
  127MOL   H28340855   4.886   6.293   7.320 -0.3384 -1.8738 -1.9732
  127MOL   H28440856   5.215   6.212   7.479 -1.4583  3.3229  0.6953
  127MOL   H28540857   5.421   6.179   7.337 -0.0279  0.8311  1.1889
  127MOL   H28640858   5.196   6.329   6.995 -0.9602 -0.3231  0.0894
  127MOL   H28740859   4.998   6.340   7.144  0.1996  2.4765 -0.0913
  127MOL   H28840860   5.010   6.061   7.438 -0.1425 -1.1305  1.1365
  127MOL   H28940861   4.862   6.090   7.507  0.2836  0.0449 -0.1579
  127MOL   C29040862   4.837   6.026   7.290 -0.0238 -0.1423 -0.2558
  127MOL   C29140863   4.914   6.004   7.158 -0.0717  0.1994  0.8042
  127MOL   C29240864   4.844   6.028   7.031 -0.4485  0.1609 -0.3024
  127MOL   C29340865   4.919   6.009   6.913 -0.4467 -0.4204  0.3750
  127MOL   C29440866   5.058   5.983   6.913 -0.1174 -0.0059 -0.0103
  127MOL   F29540867   5.129   5.971   6.794  0.0600 -0.3777  0.3878
  127MOL   C29640868   5.119   5.962   7.037 -0.0622  0.0316  0.2089
  127MOL   C29740869   5.050   5.968   7.157 -0.0385 -1.0600 -0.1843
  127MOL   C29840870   4.796   5.890   7.333  0.4591 -0.2118  0.3929
  127MOL   H29940871   4.752   6.090   7.264  0.2688 -0.3248 -1.7144
  127MOL   H30040872   4.740   6.054   7.019 -0.8563  0.9345  3.9800
  127MOL   H30140873   4.875   6.025   6.815  2.3903 -0.3142 -0.9131
  127MOL   H30240874   5.227   5.955   7.033 -0.0123  1.9394 -2.4494
  127MOL   H30340875   5.107   5.958   7.248 -0.2948  2.5287  0.4742
  127MOL   H30440876   4.759   5.840   7.244  1.9899  0.0968 -0.4361
  127MOL   H30540877   4.894   5.848   7.356 -0.1418 -1.4429  0.7400
  127MOL   C30640878   4.691   5.876   7.446  0.3073  0.3002  0.0915
  127MOL   C30740879   4.557   5.934   7.401  0.6778  0.7962  0.9084
  127MOL   C30840880   4.494   6.035   7.483  0.1560  0.2050  0.2438
  127MOL   C30940881   4.366   6.085   7.449  0.2055  0.4155  0.6301
  127MOL   C31040882   4.295   6.031   7.334 -0.0645  0.7522 -0.1445
  127MOL   F31140883   4.168   6.071   7.310 -0.0314 -0.2396 -0.4240
  127MOL   C31240884   4.366   5.945   7.247 -0.0237 -0.1503  0.3704
  127MOL   C31340885   4.494   5.894   7.279  0.4140  0.1636  0.0260
  127MOL   C31440886   4.685   5.733   7.492 -0.1999  0.4614  0.0896
  127MOL   H31540887   4.731   5.922   7.536  0.8411  2.3147 -1.1559
  127MOL   H31640888   4.541   6.074   7.572 -1.4653  1.3179  0.6195
  127MOL   H31740889   4.317   6.160   7.510 -0.6001  1.0226 -0.7556
  127MOL   H31840890   4.325   5.918   7.150  0.3018 -0.0682  0.2079
  127MOL   H31940891   4.539   5.828   7.206 -1.6273 -3.5301  1.9905
  127MOL   H32040892   4.615   5.681   7.427  0.2634  0.3278 -0.3020
  127MOL   H32140893   4.781   5.683   7.495  1.0005  2.7934  1.9374
  127MOL   H32240894   4.644   5.717   7.592 -1.0398  1.2950 -0.1082
  128MOL     C140895   0.996   1.366   5.772  0.1138  0.1586  0.4061
  128MOL     C240896   0.894   1.435   5.861  0.1360 -0.7120  0.0612
  128MOL     C340897   0.891   1.412   6.006  0.4711  0.4417  0.5115
  128MOL     C440898   0.787   1.458   6.086 -0.4977  0.5258 -0.3520
  128MOL     C540899   0.688   1.545   6.028  0.2428  0.2058 -0.4578
  128MOL     F640900   0.592   1.597   6.111  0.4429  0.0699  0.0100
  128MOL     C740901   0.695   1.574   5.888 -0.5414 -0.4169  0.2509
  128MOL     C840902   0.797   1.518   5.808 -0.2534 -0.2300 -0.4462
  128MOL     C940903   1.130   1.325   5.842 -0.7561  0.5447  0.4732
  128MOL    H1040904   1.041   1.431   5.697  0.1626 -1.6704 -1.1927
  128MOL    H1140905   0.968   1.364   6.064  0.7472 -0.2243 -0.3954
  128MOL    H1240906   0.799   1.435   6.191  0.9209 -1.1042 -0.8559
  128MOL    H1340907   0.622   1.637   5.838 -0.3337 -0.2906  0.1078
  128MOL    H1440908   0.803   1.542   5.703  0.0443  1.1226 -0.1281
  128MOL    H1540909   1.169   1.408   5.900  0.3713 -0.1160  0.6640
  128MOL    H1640910   1.114   1.250   5.920  0.4259  1.8202  1.9883
  128MOL    H1740911   0.953   1.280   5.721  0.9813 -0.4171  0.6264
  128MOL    C1840912   1.233   1.263   5.744 -0.1624 -0.5881  0.2446
  128MOL    C1940913   1.371   1.253   5.806  0.0308  0.1262  0.2948
  128MOL    C2040914   1.475   1.267   5.719  0.5884  0.2864  0.5211
  128MOL    C2140915   1.604   1.267   5.770 -0.0751 -0.2320 -0.3399
  128MOL    C2240916   1.633   1.234   5.904 -0.1478 -0.5931  0.5028
  128MOL    F2340917   1.761   1.220   5.944 -0.2691 -0.3008  0.3375
  128MOL    C2440918   1.521   1.225   5.994 -0.2678 -0.0713  0.0394
  128MOL    C2540919   1.394   1.242   5.950  0.1665  0.4082  0.0188
  128MOL    C2640920   1.185   1.127   5.678  0.4373 -0.5298  0.3566
  128MOL    H2740921   1.244   1.334   5.661  1.7924  0.6920  1.5382
  128MOL    H2840922   1.449   1.271   5.614  1.3653  1.7177  0.3653
  128MOL    H2940923   1.683   1.262   5.696  0.1814  1.3940 -0.2059
  128MOL    H3040924   1.540   1.205   6.099  2.7165  0.0171 -0.4296
  128MOL    H3140925   1.315   1.241   6.024 -0.3372 -1.9582 -0.4938
  128MOL    H3240926   1.079   1.144   5.660  0.8067  1.4557 -0.0211
  128MOL    H3340927   1.229   1.113   5.579  0.3389 -0.0771  0.2488
  128MOL    C3440928   1.188   0.999   5.757  0.5251 -0.5303 -0.1382
  128MOL    C3540929   1.066   0.916   5.720 -0.0448 -0.6129 -0.3595
  128MOL    C3640930   1.036   0.892   5.589  0.5924 -0.3350  0.0206
  128MOL    C3740931   0.919   0.828   5.551 -0.7935 -0.2744 -0.6444
  128MOL    C3840932   0.811   0.816   5.643 -0.5765 -0.3944 -0.3475
  128MOL    F3940933   0.691   0.760   5.607 -0.5090 -0.1379 -0.5903
  128MOL    C4040934   0.834   0.855   5.773  0.0211 -0.1625  0.0714
  128MOL    C4140935   0.959   0.910   5.815 -0.4056 -0.3385  0.3618
  128MOL    C4240936   1.317   0.912   5.746  0.1223  0.1991  0.7529
  128MOL    H4340937   1.165   1.023   5.861  0.8643 -0.8819  0.0225
  128MOL    H4440938   1.113   0.906   5.515  0.6160 -0.7005 -0.0284
  128MOL    H4540939   0.917   0.809   5.445 -1.2716 -0.8976 -0.5272
  128MOL    H4640940   0.754   0.845   5.844 -1.8928 -1.2013 -2.1760
  128MOL    H4740941   0.972   0.933   5.920 -1.3552  0.2237  0.3570
  128MOL    H4840942   1.296   0.842   5.665  0.9383 -0.0714  0.7704
  128MOL    H4940943   1.400   0.975   5.712  0.1870 -0.1608  0.2240
  128MOL    C5040944   1.366   0.832   5.870  1.3561  1.2342 -0.8175
  128MOL    C5140945   1.256   0.804   5.977 -0.6247  0.2818 -0.0027
  128MOL    C5240946   1.180   0.684   5.970 -0.8806 -0.1720 -0.8493
  128MOL    C5340947   1.089   0.646   6.072 -0.2070  0.1900 -0.8203
  128MOL    C5440948   1.061   0.741   6.170  0.0900  0.6038 -0.5859
  128MOL    F5540949   0.969   0.726   6.268  0.2446 -0.3962 -0.1704
  128MOL    C5640950   1.134   0.862   6.173  0.2216  0.4286 -0.1446
  128MOL    C5740951   1.237   0.892   6.083 -0.4604  1.0155 -0.4394
  128MOL    C5840952   1.452   0.703   5.840 -0.0053 -0.3826  0.5019
  128MOL    H5940953   1.425   0.906   5.924  0.9309  1.0928 -0.1512
  128MOL    H6040954   1.208   0.625   5.884  0.5875  0.6849 -0.9569
  128MOL    H6140955   1.034   0.554   6.060 -1.6443  0.8761  0.2454
  128MOL    H6240956   1.107   0.927   6.255 -0.5501 -0.9646  0.7107
  128MOL    H6340957   1.302   0.978   6.092  0.8051 -0.0309  0.7181
  128MOL    H6440958   1.429   0.627   5.915 -2.0896  0.4589  0.7391
  128MOL    H6540959   1.411   0.668   5.745  1.1681 -1.3513  0.3409
  128MOL    C6640960   1.603   0.738   5.847  0.2035  0.9320  0.1119
  128MOL    C6740961   1.654   0.774   5.989  0.1886 -0.7512 -0.2137
  128MOL    C6840962   1.581   0.731   6.106  0.1454  0.1251  0.2161
  128MOL    C6940963   1.624   0.751   6.239  0.2236  0.2774 -0.2105
  128MOL    C7040964   1.737   0.829   6.262 -0.6234 -0.2939  0.5048
  128MOL    F7140965   1.773   0.860   6.392  0.4137 -0.0191 -0.2223
  128MOL    C7240966   1.805   0.886   6.148 -0.2565 -0.1405  0.4435
  128MOL    C7340967   1.768   0.859   6.015  0.4014 -0.0714 -0.0664
  128MOL    C7440968   1.685   0.628   5.787  0.9897 -0.8467 -0.1028
  128MOL    H7540969   1.619   0.825   5.785  0.9019 -0.0046 -1.0415
  128MOL    H7640970   1.486   0.679   6.102 -0.1777  0.3686  3.3466
  128MOL    H7740971   1.568   0.698   6.315 -0.2296 -1.2338 -1.5678
  128MOL    H7840972   1.886   0.957   6.151 -0.3312  0.0343 -1.1878
  128MOL    H7940973   1.821   0.900   5.930 -0.8804  0.9200 -0.4117
  128MOL    H8040974   1.787   0.665   5.795 -0.2624  2.3265  2.7475
  128MOL    H8140975   1.663   0.541   5.849 -0.1448 -1.4625 -1.3428
  128MOL    C8240976   1.671   0.606   5.631  0.1477 -0.2009  0.2575
  128MOL    C8340977   1.648   0.734   5.554 -0.3986 -0.0242 -0.3042
  128MOL    C8440978   1.522   0.762   5.495 -0.2347  0.0112 -0.6657
  128MOL    C8540979   1.497   0.892   5.439 -0.2929 -0.6347  0.2818
  128MOL    C8640980   1.599   0.986   5.437 -0.6126  0.0166 -0.3654
  128MOL    F8740981   1.577   1.101   5.372 -0.2676  0.4002  0.6751
  128MOL    C8840982   1.729   0.954   5.494 -0.1121 -0.1961  0.4239
  128MOL    C8940983   1.755   0.830   5.562 -0.0977  0.0930 -0.5007
  128MOL    C9040984   1.788   0.522   5.575 -0.3762 -0.4231  0.0218
  128MOL    H9140985   1.574   0.556   5.621 -1.1573  2.1396  0.7604
  128MOL    H9240986   1.434   0.700   5.510 -0.4032  0.8545  2.2000
  128MOL    H9340987   1.399   0.922   5.404  0.7046  1.2287 -0.9721
  128MOL    H9440988   1.804   1.028   5.473 -2.5210  2.2066  0.0793
  128MOL    H9540989   1.844   0.810   5.620 -0.7706 -1.5563  0.0062
  128MOL    H9640990   1.877   0.582   5.593 -0.2860 -0.6491  0.3307
  128MOL    H9740991   1.802   0.437   5.642 -0.6945 -0.4693  0.0312
  128MOL    C9840992   1.783   0.483   5.429 -0.2212 -0.4896 -0.2703
  128MOL    C9940993   1.912   0.415   5.383 -0.1111 -0.1953 -1.2829
  128MOL   C10040994   1.954   0.295   5.442  0.4718 -0.3159 -0.0526
  128MOL   C10140995   2.078   0.238   5.408 -0.5073 -0.0598  0.5720
  128MOL   C10240996   2.160   0.303   5.310  0.1654  0.0951  0.3901
  128MOL   F10340997   2.285   0.258   5.289 -0.0395  0.0676 -0.0547
  128MOL   C10440998   2.118   0.420   5.245  0.2591  0.4780 -0.3580
  128MOL   C10540999   1.993   0.474   5.288 -0.4061 -0.0743 -0.3566
  128MOL   C10641000   1.668   0.381   5.404  0.0189  0.8573 -0.2840
  128MOL   H10741001   1.774   0.574   5.369  2.9451  1.1211  1.5715
  128MOL   H10841002   1.886   0.249   5.512 -0.0012 -0.3259 -0.5126
  128MOL   H10941003   2.113   0.150   5.459  0.8333  1.3708  2.2132
  128MOL   H11041004   2.179   0.474   5.175  0.0656  0.2782 -0.6822
  128MOL   H11141005   1.970   0.573   5.252  0.6942 -0.3937 -1.9980
  128MOL   H11241006   1.699   0.290   5.353 -1.2601  0.1031  0.2440
  128MOL   H11341007   1.619   0.358   5.499 -2.6477  0.9607 -1.5625
  128MOL   C11441008   1.559   0.419   5.301  0.0569 -0.5588 -0.2719
  128MOL   C11541009   1.613   0.496   5.183  0.1334  0.0288 -0.3628
  128MOL   C11641010   1.572   0.631   5.168  0.1565 -0.7282 -0.2776
  128MOL   C11741011   1.607   0.703   5.053  0.6208 -0.7171 -0.2203
  128MOL   C11841012   1.694   0.646   4.954  0.6232 -0.2395  0.4726
  128MOL   F11941013   1.743   0.719   4.851  0.4674  0.0027  0.0034
  128MOL   C12041014   1.746   0.516   4.978  0.1271 -0.0777  0.1954
  128MOL   C12141015   1.692   0.437   5.081 -0.2826 -0.1198 -0.1486
  128MOL   C12241016   1.474   0.302   5.240  0.0729 -0.0679  0.4975
  128MOL   H12341017   1.488   0.483   5.353 -0.7602 -0.9584 -0.8832
  128MOL   H12441018   1.499   0.675   5.235  0.8378 -2.4176  1.6391
  128MOL   H12541019   1.569   0.802   5.032  3.8197  0.6267  0.1465
  128MOL   H12641020   1.801   0.474   4.894 -0.9471  0.2921 -0.7029
  128MOL   H12741021   1.720   0.333   5.091  2.1375  0.5003 -0.0401
  128MOL   H12841022   1.531   0.237   5.173  1.2892  2.4965 -1.0461
  128MOL   H12941023   1.448   0.238   5.324 -1.2295 -0.3575 -0.1074
  128MOL   C13041024   1.344   0.346   5.163  0.0210  0.1571 -0.9616
  128MOL   C13141025   1.291   0.230   5.076  0.0228 -0.7337 -0.0513
  128MOL   C13241026   1.255   0.105   5.133 -0.8458  0.0183  0.7048
  128MOL   C13341027   1.223   8.230   5.055  0.4961 -0.1420 -0.6204
  128MOL   C13441028   1.214   0.012   4.915  0.2368  0.6331 -0.8681
  128MOL   F13541029   1.170   8.139   4.841 -0.3557 -0.2178  0.0490
  128MOL   C13641030   1.236   0.137   4.854  0.3922 -0.1291  0.5743
  128MOL   C13741031   1.272   0.253   4.936 -0.6768  0.1422 -0.3343
  128MOL   C13841032   1.229   0.402   5.247 -0.1133  0.1551 -0.3447
  128MOL   H13941033   1.371   0.418   5.085 -0.9285  1.0378 -0.4960
  128MOL   H14041034   1.269   0.099   5.240  0.4347  0.0073  0.5458
  128MOL   H14141035   1.210   8.131   5.097 -0.2623  0.6112  0.9512
  128MOL   H14241036   1.237   0.154   4.748 -2.0576  1.7010  0.7687
  128MOL   H14341037   1.301   0.349   4.896  1.3921 -0.0781  0.5631
  128MOL   H14441038   1.172   0.319   5.290 -0.7022  0.2615 -0.9089
  128MOL   H14541039   1.255   0.456   5.338  1.1202 -1.5327  0.3418
  128MOL   C14641040   1.132   0.489   5.165 -0.3359  0.2367  0.0415
  128MOL   C14741041   0.988   0.485   5.225 -0.3321 -0.4312  0.0058
  128MOL   C14841042   0.880   0.429   5.156 -0.6504 -0.1101 -0.1580
  128MOL   C14941043   0.750   0.414   5.219  0.4342  0.6516  0.0965
  128MOL   C15041044   0.731   0.453   5.358  0.2242 -0.2812 -1.0017
  128MOL   F15141045   0.608   0.448   5.417 -0.2404  0.0096  0.3863
  128MOL   C15241046   0.847   0.496   5.428 -0.0367  0.2326  0.8797
  128MOL   C15341047   0.974   0.521   5.361  0.3451  0.1055  0.1953
  128MOL   C15441048   1.186   0.628   5.142 -0.7337  0.4557 -0.3307
  128MOL   H15541049   1.114   0.444   5.067 -0.1092  0.8818 -0.2988
  128MOL   H15641050   0.880   0.402   5.052 -0.4788 -0.0424 -0.1752
  128MOL   H15741051   0.660   0.383   5.167  0.2971 -1.4761  1.5428
  128MOL   H15841052   0.835   0.520   5.532 -0.1782  1.0875  0.6732
  128MOL   H15941053   1.058   0.563   5.415  0.8111  1.3410 -1.4544
  128MOL   H16041054   1.211   0.659   5.244 -0.6420  0.1544 -0.2639
  128MOL   H16141055   1.276   0.627   5.080 -0.5526 -0.8026 -0.0452
  128MOL   C16241056   1.085   0.736   5.092  1.0642  0.2678  0.2674
  128MOL   C16341057   1.120   0.873   5.154  0.6336 -0.2562  0.7064
  128MOL   C16441058   1.027   0.942   5.236 -0.3524  0.7410  0.4616
  128MOL   C16541059   1.060   1.064   5.300 -0.3909 -0.8049 -0.2215
  128MOL   C16641060   1.187   1.121   5.279 -0.3641 -0.9427  1.1530
  128MOL   F16741061   1.205   1.241   5.325  0.0428  0.2563 -0.2092
  128MOL   C16841062   1.282   1.052   5.194  0.6667  0.6591  0.4379
  128MOL   C16941063   1.252   0.931   5.136 -1.1494  0.2316  0.0017
  128MOL   C17041064   1.092   0.740   4.937  0.0246 -0.2630 -0.0995
  128MOL   H17141065   0.982   0.708   5.115  0.5118  1.2269 -1.0133
  128MOL   H17241066   0.926   0.908   5.255  0.4941 -2.8376 -1.0176
  128MOL   H17341067   0.988   1.111   5.365 -0.0147 -0.9569  0.3126
  128MOL   H17441068   1.384   1.084   5.184  1.7323 -2.5867  0.3221
  128MOL   H17541069   1.324   0.889   5.068 -1.6238  1.1978 -1.1045
  128MOL   H17641070   1.194   0.771   4.914  1.0194 -4.0697 -1.3478
  128MOL   H17741071   1.094   0.642   4.889  0.1209 -0.1637 -0.3007
  128MOL   C17841072   0.992   0.830   4.869 -0.8129 -0.1700 -0.1658
  128MOL   C17941073   1.047   0.886   4.741 -0.1850  0.3564  0.6075
  128MOL   C18041074   1.029   0.811   4.620  0.5872  0.2965  0.1145
  128MOL   C18141075   1.059   0.873   4.497  0.3149 -0.0170  0.1984
  128MOL   C18241076   1.129   0.991   4.492  1.3031  0.8314 -0.3648
  128MOL   F18341077   1.170   1.040   4.372 -0.1530  0.2332  0.2119
  128MOL   C18441078   1.155   1.062   4.611  0.1362  0.3444  0.1517
  128MOL   C18541079   1.113   1.011   4.738  0.0115 -0.1216 -0.6366
  128MOL   C18641080   0.852   0.781   4.865  0.0935 -0.3469  0.5762
  128MOL   H18741081   0.986   0.917   4.935 -2.4404 -1.1135  0.9577
  128MOL   H18841082   0.980   0.715   4.622 -0.7733  0.8998 -2.1834
  128MOL   H18941083   1.037   0.843   4.396  0.0190  1.7726 -0.2895
  128MOL   H19041084   1.219   1.149   4.603  0.4448  0.1983  1.0421
  128MOL   H19141085   1.125   1.068   4.829  2.1588  1.5187 -1.8961
  128MOL   H19241086   0.838   0.704   4.788  2.2337 -0.7294  0.5417
  128MOL   H19341087   0.842   0.734   4.963  0.0414 -1.6544 -0.0431
  128MOL   C19441088   0.750   0.892   4.855 -0.4297  0.7739 -0.2054
  128MOL   C19541089   0.613   0.834   4.815 -0.2417  0.4728  0.3513
  128MOL   C19641090   0.551   0.875   4.693  0.4528  0.0604 -0.4451
  128MOL   C19741091   0.426   0.818   4.649 -0.5176  0.3417  0.2870
  128MOL   C19841092   0.371   0.706   4.726 -0.6902 -0.4150  0.2488
  128MOL   F19941093   0.259   0.645   4.677 -0.2187  0.3699 -0.0553
  128MOL   C20041094   0.432   0.669   4.854 -0.0791 -0.3203 -0.5788
  128MOL   C20141095   0.546   0.733   4.898  0.1323  0.2916 -0.3281
  128MOL   C20241096   0.733   0.995   4.972 -0.1404 -0.3089 -0.2357
  128MOL   H20341097   0.789   0.938   4.764  0.3913  0.9456  0.2270
  128MOL   H20441098   0.593   0.950   4.628  0.7573 -0.7674 -1.2211
  128MOL   H20541099   0.376   0.855   4.561 -0.6024  2.0595  1.0238
  128MOL   H20641100   0.395   0.586   4.911 -2.0249  0.8934 -0.0281
  128MOL   H20741101   0.599   0.692   4.983 -2.4502  0.6729  1.5328
  128MOL   H20841102   0.633   0.992   5.014 -0.0903  0.2532 -0.0660
  128MOL   H20941103   0.778   0.947   5.059  1.0067  0.9283 -0.1188
  128MOL   C21041104   0.792   1.138   4.951 -0.8194  0.0416 -0.1393
  128MOL   C21141105   0.746   1.210   4.825  0.7442 -0.5640 -0.3854
  128MOL   C21241106   0.609   1.195   4.785 -1.0776 -0.2833 -0.3725
  128MOL   C21341107   0.558   1.230   4.660  0.3962  0.4227  0.3086
  128MOL   C21441108   0.652   1.288   4.570 -0.8579  0.7890  0.7704
  128MOL   F21541109   0.603   1.328   4.449 -0.2866  0.1961 -0.2848
  128MOL   C21641110   0.784   1.303   4.603  0.3196 -0.5424  0.3580
  128MOL   C21741111   0.833   1.263   4.726 -0.5183  0.2355 -0.5839
  128MOL   C21841112   0.793   1.232   5.073 -0.1658  0.3573 -0.2419
  128MOL   H21941113   0.898   1.127   4.928 -0.3458  2.6641  0.5607
  128MOL   H22041114   0.540   1.151   4.855 -1.2687  1.5644  0.6391
  128MOL   H22141115   0.451   1.231   4.649  0.2013  0.2724  2.0821
  128MOL   H22241116   0.844   1.342   4.522  1.2476 -0.0589  1.2754
  128MOL   H22341117   0.939   1.277   4.741 -0.3268 -0.2758 -1.4036
  128MOL   H22441118   0.851   1.171   5.142 -1.9827 -0.1553  0.8677
  128MOL   H22541119   0.854   1.323   5.072  2.8244 -1.5756 -0.5015
  128MOL   C22641120   0.653   1.268   5.130 -0.2538  0.1002  0.2259
  128MOL   C22741121   0.625   1.190   5.251 -0.2737  0.0054  0.6092
  128MOL   C22841122   0.518   1.093   5.248 -0.2518 -0.1146 -0.0555
  128MOL   C22941123   0.485   1.019   5.365 -0.5514 -0.3465 -0.4835
  128MOL   C23041124   0.557   1.040   5.482 -0.4090  0.1058 -0.2764
  128MOL   F23141125   0.525   0.978   5.594  0.3752 -0.5296 -0.5941
  128MOL   C23241126   0.665   1.132   5.478 -0.3821  0.8183  0.1107
  128MOL   C23341127   0.706   1.202   5.364 -0.1750 -0.2141  0.9705
  128MOL   C23441128   0.627   1.421   5.145 -0.4086  0.3476  0.1479
  128MOL   H23541129   0.578   1.239   5.056 -0.5850  0.5368  0.3864
  128MOL   H23641130   0.471   1.075   5.153 -0.4187 -1.7294  0.3144
  128MOL   H23741131   0.410   0.941   5.359 -0.9225 -0.0576  0.4313
  128MOL   H23841132   0.716   1.143   5.573 -0.5855  0.2841  0.2847
  128MOL   H23941133   0.795   1.261   5.381 -0.2643  0.1586  0.1491
  128MOL   H24041134   0.706   1.467   5.203  0.7317 -1.8942  0.4222
  128MOL   H24141135   0.652   1.457   5.045  3.2569  1.4038  1.3649
  128MOL   C24241136   0.475   1.466   5.185 -0.2001  0.7058 -0.3954
  128MOL   C24341137   0.449   1.440   5.325  0.2502  0.9668 -0.6178
  128MOL   C24441138   0.544   1.482   5.423  0.0861  0.4450  0.1647
  128MOL   C24541139   0.537   1.445   5.555 -0.2935  0.8545 -0.4174
  128MOL   C24641140   0.431   1.361   5.595 -0.9468 -0.1152  0.1560
  128MOL   F24741141   0.436   1.316   5.727  0.1656 -0.2046  0.0297
  128MOL   C24841142   0.330   1.318   5.500 -0.1855  0.3360  0.3534
  128MOL   C24941143   0.345   1.352   5.361  1.1920  0.0571  0.2164
  128MOL   C25041144   0.453   1.623   5.153 -0.2581  0.0164 -0.6104
  128MOL   H25141145   0.409   1.405   5.123 -2.2154  1.0826  1.3464
  128MOL   H25241146   0.624   1.549   5.395 -1.0211  2.5896  1.8894
  128MOL   H25341147   0.609   1.484   5.625  1.5136 -1.2649 -1.0413
  128MOL   H25441148   0.251   1.255   5.539  0.4037  0.2388  1.4260
  128MOL   H25541149   0.276   1.308   5.290  0.6302  2.4716 -0.7662
  128MOL   H25641150   0.357   1.640   5.203  0.3899 -0.5366  0.8408
  128MOL   H25741151   0.527   1.678   5.212 -1.0484 -0.7133  1.0998
  128MOL   C25841152   0.430   1.672   5.004  0.5156  0.1743  0.0402
  128MOL   C25941153   0.339   1.582   4.918 -0.4455  0.0549  0.7769
  128MOL   C26041154   0.203   1.582   4.956  0.0727 -0.0143  0.1498
  128MOL   C26141155   0.105   1.510   4.880 -0.4754 -1.1040  0.1713
  128MOL   C26241156   0.146   1.444   4.765 -0.3606  0.4001 -0.3181
  128MOL   F26341157   0.056   1.380   4.689  0.0522 -0.4015  0.7160
  128MOL   C26441158   0.281   1.446   4.723 -0.1004 -0.0694  0.0965
  128MOL   C26541159   0.377   1.517   4.802  0.2582  0.0542  0.4250
  128MOL   C26641160   0.372   1.814   5.003  0.2164 -0.2501 -0.2409
  128MOL   H26741161   0.530   1.674   4.961 -0.3937 -0.6631 -2.1914
  128MOL   H26841162   0.165   1.634   5.042  0.4527  1.2245 -0.4305
  128MOL   H26941163   8.234   1.506   4.900 -0.5083 -2.9736 -0.2642
  128MOL   H27041164   0.311   1.402   4.629  0.0875  0.9540 -0.3215
  128MOL   H27141165   0.479   1.501   4.772  0.2394  2.3786 -1.0127
  128MOL   H27241166   0.324   1.827   4.905  1.7002  0.7318 -0.8581
  128MOL   H27341167   0.283   1.818   5.067 -1.0749 -0.5935 -1.9647
  128MOL   C27441168   0.478   1.918   5.021 -0.2070  0.0442 -0.5820
  128MOL   C27541169   0.575   1.922   4.902 -0.0047 -0.0746 -0.4727
  128MOL   C27641170   0.693   1.845   4.902  0.7351 -0.4700 -0.2645
  128MOL   C27741171   0.785   1.859   4.798 -0.2358 -0.3194 -0.4174
  128MOL   C27841172   0.762   1.951   4.691  0.1034 -0.4932  0.3407
  128MOL   F27941173   0.850   1.959   4.587 -0.8246  0.2404  0.1217
  128MOL   C28041174   0.640   2.017   4.687  0.2471 -0.1109 -0.0975
  128MOL   C28141175   0.543   2.000   4.788  0.0297  0.4962 -0.2196
  128MOL   C28241176   0.414   2.050   5.070 -0.1815  0.6975 -0.1749
  128MOL   H28341177   0.542   1.895   5.105 -0.6314 -2.5944 -0.9461
  128MOL   H28441178   0.706   1.783   4.990 -3.0848 -0.8150  0.1594
  128MOL   H28541179   0.877   1.803   4.796  0.4188  0.6812  1.1521
  128MOL   H28641180   0.625   2.078   4.599 -0.6926 -1.4736 -0.8940
  128MOL   H28741181   0.452   2.056   4.776  1.3420  2.9082  0.8811
  128MOL   H28841182   0.503   2.112   5.081  0.9386 -1.1902  1.8863
  128MOL   H28941183   0.358   2.081   4.982 -1.1156 -1.0191 -0.2043
  128MOL   C29041184   0.329   2.048   5.196 -0.0936  0.5546  0.2971
  128MOL   C29141185   0.390   1.974   5.312  0.3187  0.4143  0.0243
  128MOL   C29241186   0.323   1.873   5.376  0.0834  0.8990 -0.0168
  128MOL   C29341187   0.390   1.800   5.478  0.8832 -0.0440 -0.1343
  128MOL   C29441188   0.517   1.832   5.512  0.0338  1.2391  0.0376
  128MOL   F29541189   0.582   1.768   5.617 -0.1489 -0.1604  0.6810
  128MOL   C29641190   0.580   1.944   5.458  0.1647  0.0942 -0.4797
  128MOL   C29741191   0.514   2.022   5.355 -0.7243  0.1135 -0.0566
  128MOL   C29841192   0.281   2.187   5.230  0.4380 -0.1244  0.9966
  128MOL   H29941193   0.239   1.991   5.174  0.5998 -0.3984 -0.1395
  128MOL   H30041194   0.219   1.867   5.345  0.4393 -2.2604 -0.7235
  128MOL   H30141195   0.336   1.726   5.535 -0.6700  0.0426 -1.4358
  128MOL   H30241196   0.682   1.969   5.481 -0.4630  2.2906 -0.0039
  128MOL   H30341197   0.558   2.110   5.311 -0.4984 -0.4885 -1.0636
  128MOL   H30441198   0.367   2.248   5.259  0.0812  0.2787  1.2085
  128MOL   H30541199   0.237   2.232   5.141 -4.2688 -2.5154  2.0010
  128MOL   C30641200   0.173   2.201   5.329  0.5055  0.2100 -0.1158
  128MOL   C30741201   0.232   2.218   5.471  0.0859  0.6486 -0.0073
  128MOL   C30841202   0.220   2.130   5.576 -0.1758  0.7947 -0.6458
  128MOL   C30941203   0.275   2.157   5.704  0.0108  0.4531 -0.0048
  128MOL   C31041204   0.349   2.275   5.727  0.7595  0.2462  0.2822
  128MOL   F31141205   0.404   2.302   5.843 -0.4992 -0.1330 -0.3571
  128MOL   C31241206   0.368   2.361   5.618 -0.1985 -0.3988 -0.9739
  128MOL   C31341207   0.317   2.333   5.489  0.0134 -1.1928 -0.6911
  128MOL   C31441208   0.081   2.317   5.293  0.0352 -0.0336 -0.0935
  128MOL   H31541209   0.106   2.114   5.327 -0.4778  0.9745 -2.1088
  128MOL   H31641210   0.164   2.039   5.556  1.2790 -0.9566  2.7525
  128MOL   H31741211   0.267   2.088   5.787 -1.5018 -0.3590 -0.7962
  128MOL   H31841212   0.432   2.447   5.628  1.5909 -1.9091  0.8629
  128MOL   H31941213   0.337   2.399   5.406  0.2236 -1.0952 -0.5624
  128MOL   H32041214   8.224   2.316   5.353  0.1120 -0.9275  0.0160
  128MOL   H32141215   0.135   2.411   5.284  1.9231 -1.3134 -2.9125
  128MOL   H32241216   0.041   2.293   5.195  0.1696 -1.2895  0.1488
  129MOL     C141217   2.326   2.550   0.993  1.3408  0.0221 -0.8209
  129MOL     C241218   2.197   2.563   1.076 -0.1915  0.8522 -0.2731
  129MOL     C341219   2.209   2.646   1.183 -0.5212  0.0622 -1.0459
  129MOL     C441220   2.097   2.671   1.263 -0.3928  0.8065  0.0867
  129MOL     C541221   1.974   2.601   1.237 -0.2311 -0.5301  0.0704
  129MOL     F641222   1.864   2.628   1.314  0.6436  0.1116 -0.2296
  129MOL     C741223   1.967   2.503   1.139 -0.0040  0.2178 -0.6784
  129MOL     C841224   2.080   2.490   1.050  0.1067  0.1460  0.0383
  129MOL     C941225   2.320   2.615   0.853  0.4785  0.1213  0.6432
  129MOL    H1041226   2.335   2.442   0.980  0.5574 -0.4188  1.9667
  129MOL    H1141227   2.305   2.695   1.187 -1.2023  1.3302  0.3834
  129MOL    H1241228   2.099   2.755   1.331 -1.6730  0.1909  0.8872
  129MOL    H1341229   1.883   2.438   1.120  0.9045 -0.6977 -1.6776
  129MOL    H1441230   2.075   2.418   0.970  4.0170  0.2380 -0.4303
  129MOL    H1541231   2.230   2.586   0.800  0.3090  0.6482  0.6425
  129MOL    H1641232   2.306   2.723   0.854 -0.6223  0.0182 -1.6146
  129MOL    H1741233   2.411   2.598   1.040  0.7342  0.3087 -0.0038
  129MOL    C1841234   2.442   2.592   0.752  0.2481  0.3807 -0.7730
  129MOL    C1941235   2.577   2.630   0.816 -0.2088  0.6271  0.0880
  129MOL    C2041236   2.635   2.756   0.786 -0.0530 -0.1875 -0.7777
  129MOL    C2141237   2.746   2.796   0.858  0.2815  0.5137 -0.2377
  129MOL    C2241238   2.816   2.712   0.949  0.4541  1.2721 -0.1883
  129MOL    F2341239   2.933   2.741   0.996  0.0914  0.3643  0.0325
  129MOL    C2441240   2.754   2.590   0.982 -0.1882 -0.2890 -0.6245
  129MOL    C2541241   2.637   2.553   0.917 -0.0921  0.7896 -0.0440
  129MOL    C2641242   2.451   2.453   0.683 -0.1181  0.2271  0.5473
  129MOL    H2741243   2.426   2.661   0.670 -0.1632 -1.1521 -2.0041
  129MOL    H2841244   2.586   2.823   0.717 -0.5708  0.4955  0.2290
  129MOL    H2941245   2.783   2.896   0.841  0.9276  0.1626 -0.9148
  129MOL    H3041246   2.793   2.523   1.057  0.3487  0.3532 -0.3170
  129MOL    H3141247   2.591   2.456   0.933 -0.7886  1.0339 -0.5721
  129MOL    H3241248   2.464   2.381   0.764  1.3373 -1.2279 -0.9320
  129MOL    H3341249   2.351   2.436   0.644  0.0496  2.3117 -0.8997
  129MOL    C3441250   2.558   2.429   0.574 -0.7098 -0.1759 -0.8778
  129MOL    C3541251   2.689   2.374   0.634 -0.5894 -0.5884 -0.6579
  129MOL    C3641252   2.686   2.254   0.698 -0.1070 -0.2750 -0.7698
  129MOL    C3741253   2.801   2.206   0.758 -0.2749  0.3391 -0.0841
  129MOL    C3841254   2.921   2.281   0.760 -0.3901  0.3171  0.9964
  129MOL    F3941255   3.027   2.232   0.824  0.0541 -0.7408  0.1304
  129MOL    C4041256   2.923   2.403   0.687  0.3929 -0.2121  0.2879
  129MOL    C4141257   2.805   2.448   0.628 -0.0748 -0.3320  0.0299
  129MOL    C4241258   2.509   2.340   0.456 -1.1588  0.3260  0.6949
  129MOL    H4341259   2.582   2.524   0.525 -1.2248 -0.4734 -1.7253
  129MOL    H4441260   2.603   2.185   0.706  0.1000 -0.4739 -0.3167
  129MOL    H4541261   2.798   2.110   0.806 -0.1452  1.4494  2.2251
  129MOL    H4641262   3.014   2.460   0.683  0.7107 -0.7410 -0.3149
  129MOL    H4741263   2.797   2.548   0.590 -0.2321  0.6910  2.6385
  129MOL    H4841264   2.599   2.299   0.411 -1.3513  0.4912  0.1527
  129MOL    H4941265   2.459   2.256   0.503  1.0294 -1.7838 -0.6830
  129MOL    C5041266   2.413   2.395   0.348 -0.3007 -0.2937 -0.2583
  129MOL    C5141267   2.484   2.514   0.284 -0.1576  0.1139 -0.3166
  129MOL    C5241268   2.429   2.640   0.313 -0.7725  0.2676  0.3053
  129MOL    C5341269   2.500   2.753   0.272  0.1619  0.5859 -0.0166
  129MOL    C5441270   2.628   2.741   0.207 -0.6323 -0.5247  0.4015
  129MOL    F5541271   2.698   2.855   0.172  0.2924 -0.1544  0.1357
  129MOL    C5641272   2.678   2.617   0.169  0.3057  0.4996  0.5507
  129MOL    C5741273   2.605   2.505   0.212  0.0390  0.8962 -0.1771
  129MOL    C5841274   2.354   2.290   0.241 -0.4755  0.2103 -1.2891
  129MOL    H5941275   2.328   2.426   0.409  1.0889 -0.4783  1.8013
  129MOL    H6041276   2.340   2.652   0.374 -1.3175 -0.1062 -0.4121
  129MOL    H6141277   2.475   2.855   0.298 -0.9165  0.6268 -1.1517
  129MOL    H6241278   2.761   2.598   0.101 -2.1558 -3.1483 -1.5843
  129MOL    H6341279   2.642   2.407   0.187 -1.2403  0.5067 -0.6184
  129MOL    H6441280   2.435   2.246   0.183 -0.8020 -1.5358 -0.4537
  129MOL    H6541281   2.307   2.210   0.298  0.3222 -0.1378 -1.1128
  129MOL    C6641282   2.247   2.351   0.149  0.1371 -0.3477 -0.2529
  129MOL    C6741283   2.197   2.255   0.043 -0.1169 -0.5158  0.1536
  129MOL    C6841284   2.148   2.295   8.149 -0.0534  0.2387 -0.2045
  129MOL    C6941285   2.090   2.198   8.057 -0.0028 -0.5518  0.6426
  129MOL    C7041286   2.094   2.063   8.089 -0.3260 -0.2564  0.0365
  129MOL    F7141287   2.030   1.970   8.011 -0.1299 -0.1684 -0.2927
  129MOL    C7241288   2.140   2.025   8.215  1.0051 -0.0566  0.2518
  129MOL    C7341289   2.190   2.119   0.076  0.9704  0.7101 -0.8931
  129MOL    C7441290   2.127   2.404   0.229 -0.1355  0.0802  0.4674
  129MOL    H7541291   2.283   2.438   0.095  0.7119  0.5612  1.5501
  129MOL    H7641292   2.155   2.397   8.114  1.7206  0.3148  0.3425
  129MOL    H7741293   2.039   2.232   7.969  0.9141 -1.1976 -0.1550
  129MOL    H7841294   2.130   1.922   0.010  1.8985 -0.3712 -0.5279
  129MOL    H7941295   2.216   2.080   0.173  0.8900  1.1422 -0.6953
  129MOL    H8041296   2.153   2.490   0.291  1.1554  0.7642 -0.9950
  129MOL    H8141297   2.057   2.451   0.160  0.5603 -1.8226 -1.5971
  129MOL    C8241298   2.043   2.299   0.312  0.3829  0.0399 -0.6386
  129MOL    C8341299   2.006   2.360   0.452 -0.8425 -0.2928  0.2406
  129MOL    C8441300   2.037   2.291   0.572 -0.1256 -0.3575 -0.2898
  129MOL    C8541301   2.012   2.351   0.699 -0.1529 -0.4255 -0.0159
  129MOL    C8641302   1.934   2.470   0.706 -0.1107  0.5759  0.4256
  129MOL    F8741303   1.907   2.526   0.823  0.3701  0.2550  0.4649
  129MOL    C8841304   1.902   2.537   0.585  0.3609 -0.7598  0.4765
  129MOL    C8941305   1.937   2.482   0.456 -0.1114 -0.4294  0.1412
  129MOL    C9041306   1.917   2.252   0.234 -0.0325 -0.4314  0.3487
  129MOL    H9141307   2.108   2.215   0.337  1.3741  1.1272  0.4770
  129MOL    H9241308   2.092   2.198   0.569  0.4571 -0.0905  1.3115
  129MOL    H9341309   2.057   2.321   0.792  0.9953 -3.2551 -1.4380
  129MOL    H9441310   1.847   2.629   0.590 -1.3899 -1.5572 -3.0176
  129MOL    H9541311   1.899   2.530   0.367 -0.6802 -0.5986  0.2918
  129MOL    H9641312   1.848   2.336   0.235  1.2698  0.6339  1.3587
  129MOL    H9741313   1.948   2.236   0.130 -1.7720 -1.8525  0.0192
  129MOL    C9841314   1.842   2.120   0.285 -0.1744  0.8157  0.4054
  129MOL    C9941315   1.713   2.086   0.210 -0.4706 -0.0105 -0.3008
  129MOL   C10041316   1.601   2.098   0.287  0.5325 -0.1551  0.1034
  129MOL   C10141317   1.472   2.066   0.233 -0.5686 -0.4175  0.0129
  129MOL   C10241318   1.458   2.018   0.101 -1.1658 -1.1029 -0.0676
  129MOL   F10341319   1.334   1.980   0.058  0.4660 -0.7887  0.2257
  129MOL   C10441320   1.578   2.007   0.024  0.1379 -0.1049 -0.2168
  129MOL   C10541321   1.704   2.048   0.079  0.6361 -0.0339  0.1827
  129MOL   C10641322   1.938   2.004   0.278  1.2675  0.3778 -0.1478
  129MOL   H10741323   1.823   2.140   0.391  3.3098  0.8793  1.0566
  129MOL   H10841324   1.598   2.129   0.391  0.0667  3.2602 -0.8705
  129MOL   H10941325   1.390   2.058   0.303  0.4105 -0.3161  1.1843
  129MOL   H11041326   1.573   1.967   8.158 -0.3636 -0.4168 -0.0719
  129MOL   H11141327   1.796   2.043   0.023 -0.3927  1.0241 -1.6677
  129MOL   H11241328   1.956   1.976   0.174  1.7490 -0.1599  0.0783
  129MOL   H11341329   2.029   2.019   0.335  0.3377 -0.3752  1.5592
  129MOL   C11441330   1.874   1.875   0.334  0.1346  0.1385  0.3704
  129MOL   C11541331   1.966   1.759   0.296 -1.0382 -0.0202  0.2899
  129MOL   C11641332   2.074   1.722   0.385  0.2038 -0.9871 -0.4806
  129MOL   C11741333   2.147   1.603   0.363 -0.1364  0.0103 -0.6401
  129MOL   C11841334   2.127   1.519   0.250  0.0276  0.0265  0.1506
  129MOL   F11941335   2.210   1.412   0.233  0.3035  0.1677 -0.6492
  129MOL   C12041336   2.038   1.561   0.153 -0.5980 -0.1559  0.0798
  129MOL   C12141337   1.955   1.675   0.173  0.3155 -0.3186 -0.0477
  129MOL   C12241338   1.830   1.879   0.480  0.4528  0.2317 -0.1016
  129MOL   H12341339   1.788   1.856   0.269  0.1589  0.3049  0.2878
  129MOL   H12441340   2.085   1.781   0.474 -1.4484 -0.9507 -0.2919
  129MOL   H12541341   2.224   1.576   0.433 -0.1628  0.0255 -0.6052
  129MOL   H12641342   2.031   1.501   0.063 -1.3724 -2.1063  1.4091
  129MOL   H12741343   1.879   1.703   0.101 -0.4592 -1.1803  0.4388
  129MOL   H12841344   1.909   1.906   0.550  1.9817 -2.1877 -0.8242
  129MOL   H12941345   1.763   1.965   0.490 -0.3679 -0.5219  1.1346
  129MOL   C13041346   1.764   1.746   0.518 -0.3730  0.0499 -0.4429
  129MOL   C13141347   1.794   1.703   0.663  0.0473  0.3548 -0.4825
  129MOL   C13241348   1.753   1.778   0.778 -0.2658  0.1950  0.2560
  129MOL   C13341349   1.778   1.729   0.909 -0.1313 -0.2075 -0.2252
  129MOL   C13441350   1.818   1.596   0.936  0.2426 -0.2677  0.3381
  129MOL   F13541351   1.830   1.546   1.056  0.2019  0.1376 -0.2477
  129MOL   C13641352   1.873   1.531   0.822  1.3621 -0.1894  0.2247
  129MOL   C13741353   1.864   1.583   0.687 -0.1098 -0.4015  0.0333
  129MOL   C13841354   1.621   1.764   0.487 -0.1587 -0.0854 -0.5538
  129MOL   H13941355   1.794   1.662   0.456 -0.3671  0.7884 -1.4506
  129MOL   H14041356   1.700   1.871   0.764 -1.4595 -0.2874  1.4396
  129MOL   H14141357   1.749   1.792   0.992  2.2290  0.0090  0.4940
  129MOL   H14241358   1.937   1.446   0.840  1.0790 -0.2534  0.9615
  129MOL   H14341359   1.921   1.536   0.608  0.1786 -1.0803  0.6466
  129MOL   H14441360   1.572   1.830   0.559 -1.4195 -0.8899 -0.6585
  129MOL   H14541361   1.618   1.821   0.394  2.1478  1.1904  0.0911
  129MOL   C14641362   1.540   1.637   0.463  0.3054  0.5366  0.0921
  129MOL   C14741363   1.597   1.558   0.352 -0.1736 -0.0685  0.1520
  129MOL   C14841364   1.575   1.614   0.222  0.1460 -0.2165 -0.2936
  129MOL   C14941365   1.632   1.549   0.107 -0.0660  0.0395 -0.3227
  129MOL   C15041366   1.698   1.423   0.114 -0.1165 -0.3982  0.5782
  129MOL   F15141367   1.729   1.348   0.004 -0.3857 -0.7205  0.0924
  129MOL   C15241368   1.716   1.365   0.243  0.2780  0.0705  0.1163
  129MOL   C15341369   1.667   1.435   0.361 -0.3687  0.4532 -0.2756
  129MOL   C15441370   1.512   1.548   0.586 -1.6882  0.4624  0.2787
  129MOL   H15541371   1.441   1.676   0.436  1.4914  1.5663 -3.0654
  129MOL   H15641372   1.512   1.699   0.202 -2.1454 -2.2676 -2.2078
  129MOL   H15741373   1.616   1.605   0.016  2.3109  0.3849 -0.5770
  129MOL   H15841374   1.767   1.272   0.265  0.9608  0.8726  2.0068
  129MOL   H15941375   1.682   1.397   0.461 -0.4066 -0.1376 -0.4952
  129MOL   H16041376   1.449   1.467   0.548  0.3594 -0.3194 -1.5388
  129MOL   H16141377   1.599   1.496   0.624 -0.7313  2.0619  0.3305
  129MOL   C16241378   1.447   1.615   0.708 -0.9592 -0.3087 -0.5455
  129MOL   C16341379   1.314   1.678   0.675  0.6854 -0.0239 -0.2023
  129MOL   C16441380   1.208   1.602   0.621 -0.2427  0.1719  0.4457
  129MOL   C16541381   1.095   1.673   0.564  0.3632  0.4734  0.2949
  129MOL   C16641382   1.080   1.811   0.587  0.1421 -0.5865 -0.4183
  129MOL   F16741383   0.967   1.881   0.554  0.1302  0.1292  0.0994
  129MOL   C16841384   1.190   1.887   0.636  1.1666 -0.1214  0.0018
  129MOL   C16941385   1.306   1.821   0.679 -0.5534  0.6050 -0.1331
  129MOL   C17041386   1.440   1.515   0.823  0.0993 -0.5607 -0.0935
  129MOL   H17141387   1.511   1.697   0.739 -1.8453 -0.8179  2.8556
  129MOL   H17241388   1.204   1.494   0.627 -0.5389  0.1848  0.5357
  129MOL   H17341389   1.010   1.619   0.528 -0.9006  1.4194  1.7948
  129MOL   H17441390   1.176   1.994   0.632 -0.1662 -0.2298  1.4216
  129MOL   H17541391   1.386   1.880   0.722 -0.7321  1.1320 -0.5186
  129MOL   H17641392   1.383   1.433   0.779 -0.5121 -1.9035  3.0425
  129MOL   H17741393   1.545   1.501   0.849  0.4340  0.7563 -0.6931
  129MOL   C17841394   1.351   1.543   0.945  0.2169  0.4662  0.1303
  129MOL   C17941395   1.374   1.431   1.050  0.4772  0.1522  0.6645
  129MOL   C18041396   1.268   1.339   1.076  0.1659  0.3055  0.3021
  129MOL   C18141397   1.290   1.226   1.153  0.0097 -0.7000 -0.0460
  129MOL   C18241398   1.418   1.198   1.201 -0.8058 -0.5576 -0.2699
  129MOL   F18341399   1.459   1.083   1.265 -0.1554 -0.0613 -0.0456
  129MOL   C18441400   1.524   1.289   1.181  0.3362 -0.1341  0.1811
  129MOL   C18541401   1.503   1.401   1.103  0.2553  0.4591 -0.6097
  129MOL   C18641402   1.370   1.679   1.006 -0.0979 -0.8581 -0.1363
  129MOL   H18741403   1.249   1.533   0.909  0.5321 -1.0496 -0.3922
  129MOL   H18841404   1.170   1.369   1.040 -0.5491 -2.2308  0.0335
  129MOL   H18941405   1.206   1.162   1.174 -0.5800 -0.3694 -1.3501
  129MOL   H19041406   1.624   1.281   1.223  0.1621  1.1476  0.8601
  129MOL   H19141407   1.583   1.470   1.084 -1.6214  3.7368  2.7546
  129MOL   H19241408   1.472   1.684   1.045 -0.2819 -0.9820  0.3585
  129MOL   H19341409   1.366   1.753   0.926 -0.1470 -0.3250  0.3654
  129MOL   C19441410   1.272   1.729   1.116  0.2845 -0.1282  0.4405
  129MOL   C19541411   1.330   1.849   1.194 -0.3624 -0.0046  0.4076
  129MOL   C19641412   1.434   1.837   1.290  0.4924  0.4309 -0.5636
  129MOL   C19741413   1.484   1.943   1.364 -0.5389  0.1608 -0.0752
  129MOL   C19841414   1.422   2.068   1.348  0.2888 -0.1661 -0.1567
  129MOL   F19941415   1.457   2.169   1.427 -0.1841  0.2060 -0.1524
  129MOL   C20041416   1.325   2.086   1.247 -0.0397 -0.4650  0.2343
  129MOL   C20141417   1.281   1.977   1.168  0.6028 -0.7246  0.0344
  129MOL   C20241418   1.127   1.739   1.059  0.3974 -0.7466  0.1480
  129MOL   H20341419   1.272   1.647   1.189  2.6134 -0.9297 -0.4038
  129MOL   H20441420   1.482   1.742   1.312 -0.0419  0.3488  0.2859
  129MOL   H20541421   1.557   1.935   1.443  0.2246 -0.4596 -0.8299
  129MOL   H20641422   1.285   2.185   1.233  0.3339 -0.6776 -2.7129
  129MOL   H20741423   1.207   1.997   1.092 -0.9215 -2.3860  1.0566
  129MOL   H20841424   1.109   1.821   0.990  0.2266  0.7665  1.9498
  129MOL   H20941425   1.101   1.647   1.006 -2.0188  0.6774 -1.2297
  129MOL   C21041426   1.018   1.755   1.163 -0.1892 -0.5587 -0.5231
  129MOL   C21141427   0.896   1.830   1.099  0.1068  0.3141  0.7867
  129MOL   C21241428   0.811   1.767   1.001  0.8143 -0.2366 -0.1483
  129MOL   C21341429   0.700   1.831   0.942  0.5586  0.4515 -0.0581
  129MOL   C21441430   0.666   1.965   0.975  0.0172 -0.2388 -0.3682
  129MOL   F21541431   0.561   2.028   0.917 -0.0803  0.4627  0.1161
  129MOL   C21641432   0.749   2.029   1.070  0.2124  0.2589  0.1444
  129MOL   C21741433   0.855   1.962   1.133 -0.0323  0.2024  0.9479
  129MOL   C21841434   0.972   1.620   1.221 -0.1805 -0.0691  0.5230
  129MOL   H21941435   1.058   1.821   1.240  0.9043  0.1300 -1.6636
  129MOL   H22041436   0.818   1.661   0.981 -0.0390  0.0123 -1.8604
  129MOL   H22141437   0.640   1.788   0.863 -0.5370  0.3878  0.7935
  129MOL   H22241438   0.731   2.134   1.092 -0.2611  0.1483  0.2993
  129MOL   H22341439   0.905   2.032   1.199 -0.5655  0.7126  0.8120
  129MOL   H22441440   0.922   1.555   1.149 -1.4618  1.2974  0.1508
  129MOL   H22541441   1.065   1.564   1.233 -0.1659 -0.1594  0.0012
  129MOL   C22641442   0.877   1.631   1.350  0.3473 -0.4163  0.4738
  129MOL   C22741443   0.776   1.518   1.357  0.6024 -0.2269  0.0334
  129MOL   C22841444   0.810   1.385   1.329 -0.2647 -0.4362  0.2142
  129MOL   C22941445   0.724   1.277   1.346 -0.0751 -0.6950  0.8915
  129MOL   C23041446   0.592   1.298   1.384 -0.1689 -0.3436  0.1254
  129MOL   F23141447   0.507   1.193   1.387 -0.5443 -0.3176  0.3256
  129MOL   C23241448   0.557   1.428   1.419  0.4664  0.0383  0.1768
  129MOL   C23341449   0.640   1.539   1.403  0.1744 -0.4274 -1.1153
  129MOL   C23441450   0.971   1.654   1.477 -0.2056  0.6815  0.7478
  129MOL   H23541451   0.811   1.717   1.339  1.3574  0.6315  2.3214
  129MOL   H23641452   0.907   1.374   1.283  0.3251  1.6182  0.9047
  129MOL   H23741453   0.748   1.176   1.318  0.8019 -0.2030 -0.1695
  129MOL   H23841454   0.456   1.434   1.457  0.5670 -1.3277  0.7141
  129MOL   H23941455   0.606   1.638   1.427 -1.1836 -0.8732 -1.1447
  129MOL   H24041456   1.039   1.572   1.502  0.3383  0.6378 -0.8136
  129MOL   H24141457   1.042   1.736   1.473  1.4370 -0.6853  1.0317
  129MOL   C24241458   0.891   1.671   1.612  0.2369  1.0675  0.4129
  129MOL   C24341459   0.991   1.648   1.717 -0.1684 -0.8288 -0.1035
  129MOL   C24441460   0.978   1.532   1.800  0.6042  0.4074 -0.5706
  129MOL   C24541461   1.077   1.504   1.899 -0.1691  0.4434 -1.2732
  129MOL   C24641462   1.192   1.587   1.911  0.0866 -0.2678  0.0592
  129MOL   F24741463   1.286   1.559   2.012  0.1793 -0.0717  0.0031
  129MOL   C24841464   1.199   1.707   1.834  0.5909  0.8323 -1.1167
  129MOL   C24941465   1.099   1.735   1.731  0.0000 -0.2428  0.8722
  129MOL   C25041466   0.811   1.803   1.626 -0.0958 -0.0246  0.3002
  129MOL   H25141467   0.821   1.589   1.628 -0.4535  1.7003  0.7246
  129MOL   H25241468   0.898   1.462   1.787  1.3015 -0.7734  1.2772
  129MOL   H25341469   1.066   1.406   1.941  3.8262  0.3479 -0.2414
  129MOL   H25441470   1.280   1.777   1.850  0.5634  0.5157  0.4351
  129MOL   H25541471   1.108   1.829   1.678  1.5357 -1.7875 -1.6677
  129MOL   H25641472   0.867   1.876   1.684 -1.1280  1.2407 -0.2631
  129MOL   H25741473   0.789   1.849   1.529 -0.3335  0.2132  0.4681
  129MOL   C25841474   0.683   1.807   1.702 -0.3806 -0.6804  0.2181
  129MOL   C25941475   0.685   1.756   1.848 -0.2956  0.1089 -0.1292
  129MOL   C26041476   0.649   1.627   1.877  0.8249  0.8738  0.0252
  129MOL   C26141477   0.660   1.575   2.010 -0.3588  0.0200  0.2905
  129MOL   C26241478   0.721   1.652   2.106 -0.1711  0.6987  0.2865
  129MOL   F26341479   0.728   1.602   2.235  0.0268  0.0000  0.4526
  129MOL   C26441480   0.762   1.782   2.073  0.1606 -0.2775  0.0898
  129MOL   C26541481   0.743   1.839   1.946  0.0894 -0.0457  0.9305
  129MOL   C26641482   0.630   1.960   1.689  0.5474 -0.4701 -0.6596
  129MOL   H26741483   0.608   1.743   1.655  1.1837 -3.8938  1.8837
  129MOL   H26841484   0.611   1.559   1.802  0.4810 -0.1150  1.0848
  129MOL   H26941485   0.634   1.474   2.036  0.6253 -0.1826  0.5209
  129MOL   H27041486   0.803   1.844   2.151  2.2591 -0.7987 -0.5640
  129MOL   H27141487   0.779   1.940   1.932 -0.8357  0.2581  0.7250
  129MOL   H27241488   0.562   1.978   1.773 -0.8388  2.6666 -2.3636
  129MOL   H27341489   0.707   2.032   1.716 -0.5297  0.4708 -0.0247
  129MOL   C27441490   0.546   1.999   1.565 -0.0331  0.2954 -0.0206
  129MOL   C27541491   0.439   1.894   1.529  0.3576  0.2098  0.3322
  129MOL   C27641492   0.415   1.848   1.401  0.3720  0.5779  0.8814
  129MOL   C27741493   0.324   1.741   1.372  0.0883 -0.0360  0.4999
  129MOL   C27841494   0.251   1.689   1.480  0.7713  0.2759 -0.1413
  129MOL   F27941495   0.158   1.593   1.461  0.1071 -0.2904  0.2114
  129MOL   C28041496   0.262   1.738   1.612 -0.2939 -0.0004  0.4874
  129MOL   C28141497   0.352   1.847   1.633 -0.3129  0.5752  0.9855
  129MOL   C28241498   0.480   2.138   1.584 -0.6913 -0.1456  0.2847
  129MOL   H28341499   0.613   2.010   1.480 -1.6894  0.5762 -1.3221
  129MOL   H28441500   0.475   1.893   1.324 -0.6731  0.7325  0.1432
  129MOL   H28541501   0.314   1.708   1.270 -0.9765 -1.2922  0.9865
  129MOL   H28641502   0.202   1.689   1.688  1.7094 -1.9173  0.8804
  129MOL   H28741503   0.361   1.887   1.733 -2.2793  2.4753  0.4209
  129MOL   H28841504   0.425   2.174   1.497 -0.1105  2.0524  0.8225
  129MOL   H28941505   0.403   2.129   1.661 -0.0518 -0.4332  0.8932
  129MOL   C29041506   0.574   2.254   1.621  0.0649  0.9438 -0.4106
  129MOL   C29141507   0.707   2.271   1.547 -0.6342  0.5720 -0.0661
  129MOL   C29241508   0.831   2.299   1.613 -0.3385 -0.0817  0.5431
  129MOL   C29341509   0.954   2.314   1.546  0.5072 -0.3242 -0.0372
  129MOL   C29441510   0.951   2.289   1.404 -0.5790 -1.2277  0.4802
  129MOL   F29541511   1.067   2.303   1.332 -0.1840 -0.2323  0.3682
  129MOL   C29641512   0.834   2.259   1.339  0.0840  0.4944 -0.3957
  129MOL   C29741513   0.713   2.252   1.409 -0.7981 -0.1086 -0.4982
  129MOL   C29841514   0.493   2.384   1.611 -0.6476 -0.8759  0.1140
  129MOL   H29941515   0.602   2.244   1.726  1.4099  0.1589 -0.8319
  129MOL   H30041516   0.831   2.315   1.720  0.0299  0.2526  0.4952
  129MOL   H30141517   1.043   2.357   1.590 -1.2696  2.7687  0.6654
  129MOL   H30241518   0.834   2.244   1.232  1.1509 -0.1251 -0.3092
  129MOL   H30341519   0.628   2.212   1.356 -1.2805 -0.0002  0.1848
  129MOL   H30441520   0.480   2.403   1.505  1.4794  0.5887  0.0894
  129MOL   H30541521   0.389   2.359   1.635 -0.8319  0.8858  1.2435
  129MOL   C30641522   0.555   2.510   1.684 -0.8383  0.1940 -0.6868
  129MOL   C30741523   0.491   2.644   1.636 -0.0325  0.4052  0.9719
  129MOL   C30841524   0.562   2.762   1.642  0.9443  0.1263 -0.7737
  129MOL   C30941525   0.499   2.881   1.608  0.1563 -0.0803  0.6282
  129MOL   C31041526   0.367   2.882   1.552 -0.7668  0.0454 -0.0373
  129MOL   F31141527   0.310   2.996   1.513  0.3517  0.1067  0.0465
  129MOL   C31241528   0.295   2.768   1.552  0.2266  0.6907  0.2674
  129MOL   C31341529   0.355   2.648   1.600 -0.1193 -0.9675  0.1677
  129MOL   C31441530   0.540   2.504   1.829 -0.5926 -0.0984  0.7077
  129MOL   H31541531   0.663   2.517   1.668 -0.4929  1.4582  1.9919
  129MOL   H31641532   0.665   2.765   1.674  0.2110  0.4062  1.6290
  129MOL   H31741533   0.558   2.971   1.618  0.0795 -0.1248  1.4417
  129MOL   H31841534   0.190   2.766   1.528 -0.3190  1.2919  2.4871
  129MOL   H31941535   0.295   2.561   1.622 -1.5327 -0.1809 -0.4844
  129MOL   H32041536   0.597   2.580   1.883  0.8151 -0.3096 -0.4567
  129MOL   H32141537   0.435   2.511   1.860 -0.2310 -1.8385  2.4549
  129MOL   H32241538   0.577   2.412   1.874  0.6651  0.0414 -0.0303
  130MOL     C141539   0.702   4.366   0.874  0.3072  0.8516  0.4120
  130MOL     C241540   0.802   4.484   0.875 -0.8156  0.6153 -0.7298
  130MOL     C341541   0.913   4.483   0.959  0.6215 -0.9151  0.8082
  130MOL     C441542   1.005   4.595   0.956 -0.0332  0.1352  0.1915
  130MOL     C541543   0.991   4.700   0.865 -0.6265  0.2480 -0.4151
  130MOL     F641544   1.079   4.810   0.862 -0.2603 -0.0977 -0.1183
  130MOL     C741545   0.876   4.703   0.784 -0.5642  0.5875 -0.0441
  130MOL     C841546   0.783   4.593   0.789 -0.3882 -0.2206 -0.4984
  130MOL     C941547   0.698   4.283   0.748 -0.4113  0.0655 -0.5355
  130MOL    H1041548   0.605   4.416   0.880  0.2874  0.7500  0.9612
  130MOL    H1141549   0.928   4.395   1.018  2.4787  0.3634  2.3078
  130MOL    H1241550   1.086   4.600   1.026  0.3577 -1.0911 -0.1701
  130MOL    H1341551   0.854   4.785   0.717 -2.3339 -1.1836 -1.6631
  130MOL    H1441552   0.691   4.605   0.733 -1.1469  1.5897  1.0890
  130MOL    H1541553   0.671   4.352   0.667 -2.4607 -0.2578 -0.1519
  130MOL    H1641554   0.799   4.252   0.722 -0.1171 -1.1356  1.9267
  130MOL    H1741555   0.720   4.305   0.963  2.5253  0.0235 -0.5648
  130MOL    C1841556   0.601   4.160   0.760  0.2694  0.6856  0.0560
  130MOL    C1941557   0.463   4.210   0.810  0.1895 -0.5878 -0.5058
  130MOL    C2041558   0.418   4.183   0.941 -0.0708  0.6970  0.5918
  130MOL    C2141559   0.290   4.235   0.973 -0.1056  0.1417  0.2604
  130MOL    C2241560   0.222   4.327   0.895  0.3719  0.0843  0.1888
  130MOL    F2341561   0.105   4.377   0.941  0.0192 -0.5864  0.3058
  130MOL    C2441562   0.266   4.358   0.770  0.0669 -0.0660  0.5259
  130MOL    C2541563   0.388   4.300   0.727 -0.0210 -0.1327 -0.9813
  130MOL    C2641564   0.583   4.076   0.629 -0.5606 -0.4874  0.1464
  130MOL    H2741565   0.658   4.108   0.836  0.4173 -3.7942 -2.9272
  130MOL    H2841566   0.467   4.121   1.014 -0.8570  0.1860  0.6907
  130MOL    H2941567   0.253   4.216   1.073  1.2638  1.4344  1.0243
  130MOL    H3041568   0.213   4.428   0.708 -0.2415  0.5894  1.5264
  130MOL    H3141569   0.426   4.321   0.628  1.6196 -0.4631 -0.4298
  130MOL    H3241570   0.535   4.134   0.550  0.1872  0.6663  0.5406
  130MOL    H3341571   0.681   4.054   0.587  0.5614  1.8284  1.4496
  130MOL    C3441572   0.500   3.945   0.651  0.4468  0.1881 -0.3093
  130MOL    C3541573   0.486   3.870   0.515  0.6722 -0.9068 -0.0075
  130MOL    C3641574   0.367   3.891   0.443  0.0430  0.5815  0.3992
  130MOL    C3741575   0.356   3.822   0.316 -0.4824 -0.0204 -0.7134
  130MOL    C3841576   0.451   3.728   0.269  0.4974 -0.0442  0.1483
  130MOL    F3941577   0.428   3.664   0.153 -0.3396  0.2847 -0.2417
  130MOL    C4041578   0.568   3.708   0.343 -0.1314 -0.4494 -0.0441
  130MOL    C4141579   0.584   3.786   0.461  0.1791 -0.1391 -0.1905
  130MOL    C4241580   0.570   3.861   0.760  0.2037  0.7712  0.1173
  130MOL    H4341581   0.403   3.965   0.695  0.8751 -1.4573  1.4762
  130MOL    H4441582   0.277   3.939   0.477 -0.7130 -0.3439 -0.2537
  130MOL    H4541583   0.271   3.824   0.250  1.1655  2.0330 -2.8958
  130MOL    H4641584   0.648   3.641   0.312  1.5929  0.3393  2.5226
  130MOL    H4741585   0.674   3.774   0.520  0.1878  1.9457  0.2655
  130MOL    H4841586   0.674   3.847   0.729 -0.1287 -0.0322 -0.6470
  130MOL    H4941587   0.567   3.902   0.861 -0.2595 -0.2050  0.5076
  130MOL    C5041588   0.511   3.719   0.788  0.2403 -0.1395  0.7506
  130MOL    C5141589   0.615   3.658   0.884 -0.4146  0.5130  0.6452
  130MOL    C5241590   0.626   3.698   1.022 -0.3660 -0.6994 -0.2725
  130MOL    C5341591   0.731   3.644   1.096 -0.8149  0.3657 -1.0854
  130MOL    C5441592   0.821   3.554   1.039  0.6758  0.4641 -0.3252
  130MOL    F5541593   0.928   3.517   1.114 -0.2416 -0.6895 -0.4373
  130MOL    C5641594   0.812   3.512   0.909  0.1322 -0.3332  0.3800
  130MOL    C5741595   0.708   3.561   0.831  0.4805  0.2241  0.3564
  130MOL    C5841596   0.368   3.712   0.838 -0.2872  0.6797  0.4103
  130MOL    H5941597   0.511   3.665   0.694 -0.2219 -0.7430  1.0946
  130MOL    H6041598   0.551   3.757   1.073 -0.0430 -0.4125 -0.1327
  130MOL    H6141599   0.747   3.673   1.199 -0.1929  1.3267 -1.4481
  130MOL    H6241600   0.901   3.464   0.870  0.5391  2.3392 -2.1533
  130MOL    H6341601   0.694   3.542   0.726 -3.4349  1.7195  0.5369
  130MOL    H6441602   0.346   3.792   0.908 -1.1056  0.0185  0.9255
  130MOL    H6541603   0.325   3.742   0.742 -0.9046  3.2563  1.4715
  130MOL    C6641604   0.311   3.575   0.885  0.0541 -0.2755 -0.7732
  130MOL    C6741605   0.177   3.608   0.955 -0.4865 -0.7458  0.1948
  130MOL    C6841606   0.068   3.671   0.881 -0.6559 -0.4501  0.1474
  130MOL    C6941607   8.179   3.690   0.945 -0.1194 -0.3997 -0.1571
  130MOL    C7041608   8.161   3.658   1.081 -0.1655 -0.0717  0.2460
  130MOL    F7141609   8.039   3.683   1.138 -0.6621 -0.4376  0.1645
  130MOL    C7241610   0.032   3.598   1.158 -0.0527 -0.7749  0.0302
  130MOL    C7341611   0.159   3.571   1.094  0.4320 -0.8813 -0.0552
  130MOL    C7441612   0.311   3.462   0.772  0.6698  0.2384  0.3148
  130MOL    H7541613   0.379   3.539   0.962 -1.4030 -1.4998 -0.0524
  130MOL    H7641614   0.088   3.703   0.779 -1.3288  2.7142  0.9557
  130MOL    H7741615   8.102   3.750   0.897 -1.1500 -1.1849  0.4918
  130MOL    H7841616   0.027   3.574   1.263 -0.9787  1.4856  0.5442
  130MOL    H7941617   0.242   3.525   1.146 -0.1991  0.7387  2.4863
  130MOL    H8041618   0.261   3.497   0.682  1.2426 -3.3893 -1.5159
  130MOL    H8141619   0.414   3.445   0.742  0.7994 -0.5709  1.1710
  130MOL    C8241620   0.231   3.331   0.814  0.5727  0.3135 -0.6055
  130MOL    C8341621   0.097   3.328   0.750  0.1304 -1.2407 -0.3690
  130MOL    C8441622   8.213   3.359   0.825 -0.1113  0.0711 -0.7104
  130MOL    C8541623   8.090   3.371   0.761  0.3277 -1.1041 -0.7914
  130MOL    C8641624   8.076   3.332   0.625  0.3953 -0.3335 -0.1926
  130MOL    F8741625   7.953   3.335   0.574  0.2846  0.9420  0.1096
  130MOL    C8841626   8.192   3.296   0.555  0.4957  0.8798 -0.5632
  130MOL    C8941627   0.087   3.303   0.613 -0.1320  0.0575  0.1295
  130MOL    C9041628   0.307   3.198   0.805 -0.2745 -1.4214  0.0769
  130MOL    H9141629   0.212   3.340   0.921 -3.3527  0.6484 -1.2801
  130MOL    H9241630   8.221   3.378   0.931 -0.6567  4.3155 -1.3699
  130MOL    H9341631   8.014   3.409   0.828  2.4304  1.4136  0.2318
  130MOL    H9441632   8.187   3.260   0.453  0.3196 -0.4428 -0.1044
  130MOL    H9541633   0.173   3.287   0.551  0.0745 -0.0285  0.4376
  130MOL    H9641634   0.251   3.109   0.833 -0.3361 -1.2072  0.6438
  130MOL    H9741635   0.338   3.193   0.700 -1.3410 -1.1121 -0.2562
  130MOL    C9841636   0.439   3.190   0.888  0.1875 -0.2547 -0.0115
  130MOL    C9941637   0.416   3.222   1.036 -0.1277 -0.9496 -0.9759
  130MOL   C10041638   0.494   3.322   1.102  0.6109 -0.2473  0.0317
  130MOL   C10141639   0.466   3.365   1.237 -0.3460 -0.0028  0.9579
  130MOL   C10241640   0.365   3.299   1.307  0.5125 -0.1851  0.4323
  130MOL   F10341641   0.343   3.312   1.442  0.4164 -0.0302 -0.4291
  130MOL   C10441642   0.287   3.200   1.246 -0.6417  0.7209 -0.1719
  130MOL   C10541643   0.307   3.169   1.109  0.1093 -0.7839 -0.6224
  130MOL   C10641644   0.519   3.051   0.875  0.0291 -0.9153 -0.1285
  130MOL   H10741645   0.503   3.271   0.852 -0.1698 -0.3006 -0.7603
  130MOL   H10841646   0.568   3.370   1.039  1.0116 -1.2808 -0.2950
  130MOL   H10941647   0.526   3.441   1.285  1.6886 -0.5352 -0.6162
  130MOL   H11041648   0.219   3.140   1.304  2.7243 -2.8277  0.2885
  130MOL   H11141649   0.253   3.091   1.056 -1.2144  0.1398 -0.6608
  130MOL   H11241650   0.607   3.062   0.938  0.7396 -1.0997 -1.0772
  130MOL   H11341651   0.450   2.976   0.914 -0.0967 -1.0235 -0.5538
  130MOL   C11441652   0.563   3.012   0.732  0.4509  0.1471 -0.7839
  130MOL   C11541653   0.615   3.123   0.648  0.5118 -0.6005  0.3687
  130MOL   C11641654   0.543   3.160   0.533  0.1336  0.3810 -0.3065
  130MOL   C11741655   0.596   3.259   0.448  0.3904  0.0132 -0.4441
  130MOL   C11841656   0.723   3.309   0.470  0.4894  0.6064 -0.0643
  130MOL   F11941657   0.769   3.413   0.393 -0.4448 -0.5165  0.1784
  130MOL   C12041658   0.797   3.264   0.589 -1.3757  0.5584 -0.2118
  130MOL   C12141659   0.735   3.185   0.678  0.4586 -0.1737 -0.0472
  130MOL   C12241660   0.660   2.896   0.743 -0.0596 -0.0189  0.4114
  130MOL   H12341661   0.479   2.964   0.682 -1.3524 -0.1444  2.4152
  130MOL   H12441662   0.452   3.104   0.514  0.5930 -0.5608  0.2621
  130MOL   H12541663   0.535   3.284   0.363 -2.3506  1.3384  1.8249
  130MOL   H12641664   0.891   3.311   0.613 -1.1612 -0.5813  1.1997
  130MOL   H12741665   0.796   3.165   0.765  0.9566  0.1005 -0.3283
  130MOL   H12841666   0.700   2.875   0.643 -0.5564  2.1074 -0.2571
  130MOL   H12941667   0.750   2.925   0.797 -0.0167 -3.1752  2.1756
  130MOL   C13041668   0.613   2.763   0.801 -0.0038  0.3662 -0.5766
  130MOL   C13141669   0.502   2.694   0.720  0.4226  0.0612  0.7290
  130MOL   C13241670   0.516   2.672   0.581 -0.1542  0.1606  0.5579
  130MOL   C13341671   0.416   2.587   0.519  0.1524  0.4972 -0.6475
  130MOL   C13441672   0.303   2.540   0.593  0.0482 -0.2739  0.1089
  130MOL   F13541673   0.202   2.468   0.536  0.1499 -0.3231 -0.1219
  130MOL   C13641674   0.297   2.566   0.730  0.0522 -0.8177  0.2483
  130MOL   C13741675   0.390   2.647   0.792 -0.4816 -0.5141 -0.0009
  130MOL   C13841676   0.733   2.663   0.807 -0.0812  0.0588 -0.5487
  130MOL   H13941677   0.586   2.786   0.904  3.1500 -0.0194  0.3858
  130MOL   H14041678   0.601   2.708   0.526 -1.7487 -0.2064 -2.2788
  130MOL   H14141679   0.418   2.573   0.412  3.7902 -0.5519 -0.5390
  130MOL   H14241680   0.209   2.537   0.786  0.4813 -2.5332  0.0597
  130MOL   H14341681   0.373   2.663   0.897 -0.1410 -1.5237  0.2135
  130MOL   H14441682   0.741   2.621   0.707  1.0441  0.1925 -0.5321
  130MOL   H14541683   0.827   2.717   0.824  0.8371 -0.5749 -3.3817
  130MOL   C14641684   0.728   2.541   0.902 -0.4415 -0.1006  0.7738
  130MOL   C14741685   0.833   2.436   0.854  0.4158 -0.0507  0.3548
  130MOL   C14841686   0.808   2.297   0.853 -0.2551 -0.0595 -0.4623
  130MOL   C14941687   0.908   2.201   0.820  0.1022 -0.1027  0.0659
  130MOL   C15041688   1.042   2.243   0.807 -0.1165  0.3863 -1.3708
  130MOL   F15141689   1.140   2.144   0.808  0.0377  0.1552  0.1773
  130MOL   C15241690   1.067   2.380   0.807  0.7142  0.0728 -0.3766
  130MOL   C15341691   0.970   2.480   0.829 -0.3587 -0.2784  0.3563
  130MOL   C15441692   0.774   2.558   1.050 -0.2633 -0.3846 -0.3838
  130MOL   H15541693   0.627   2.503   0.886 -0.4632 -0.4187  1.6794
  130MOL   H15641694   0.708   2.258   0.863  0.0829 -0.2872  2.2050
  130MOL   H15741695   0.897   2.094   0.810  1.6747 -0.2888  0.1110
  130MOL   H15841696   1.167   2.415   0.784  1.5211 -2.3581 -0.6891
  130MOL   H15941697   0.998   2.584   0.834 -0.3952 -0.2052 -0.8100
  130MOL   H16041698   0.799   2.461   1.092  1.0582  1.0150  2.2503
  130MOL   H16141699   0.873   2.604   1.055 -1.2537  1.8720 -0.5390
  130MOL   C16241700   0.682   2.645   1.135 -0.2184  0.2188 -0.3778
  130MOL   C16341701   0.538   2.608   1.133  0.2948  0.2886  0.1942
  130MOL   C16441702   0.444   2.711   1.161  0.1993 -0.1589  0.8102
  130MOL   C16541703   0.309   2.684   1.184  0.1103 -0.7984 -0.3020
  130MOL   C16641704   0.258   2.550   1.153  0.8531 -0.4370 -0.5995
  130MOL   F16741705   0.124   2.533   1.169 -0.3762 -0.0690 -0.3163
  130MOL   C16841706   0.345   2.448   1.138 -0.0644 -0.2391 -0.1373
  130MOL   C16941707   0.487   2.474   1.133  0.4544  0.4436 -0.4447
  130MOL   C17041708   0.730   2.651   1.276 -0.2708 -0.1690 -0.4357
  130MOL   H17141709   0.688   2.747   1.096 -0.3386  0.4940  0.3250
  130MOL   H17241710   0.474   2.815   1.163 -0.4260  0.1534 -2.7672
  130MOL   H17341711   0.257   2.774   1.215 -0.9920 -0.7972 -2.0607
  130MOL   H17441712   0.307   2.346   1.134  1.3552 -0.9294  2.8054
  130MOL   H17541713   0.554   2.390   1.127 -0.6509 -0.3904 -1.2960
  130MOL   H17641714   0.653   2.683   1.347  1.2113  0.9756  0.6900
  130MOL   H17741715   0.740   2.545   1.298 -0.5223  0.0748  0.9039
  130MOL   C17841716   0.862   2.731   1.299 -0.2913  0.5570  0.2479
  130MOL   C17941717   0.838   2.879   1.272 -0.4327  0.2848 -0.2157
  130MOL   C18041718   0.734   2.953   1.342 -0.1839 -1.1766  0.0619
  130MOL   C18141719   0.708   3.086   1.303 -0.9822  0.1557 -0.4973
  130MOL   C18241720   0.797   3.155   1.220 -0.0321  0.0970 -0.8693
  130MOL   F18341721   0.769   3.279   1.185 -0.4843 -0.0246  0.1540
  130MOL   C18441722   0.911   3.090   1.173 -0.2839  0.6940  0.8041
  130MOL   C18541723   0.928   2.952   1.192 -0.5119 -0.4426  0.2254
  130MOL   C18641724   0.909   2.704   1.450 -0.2210  0.4489 -0.1851
  130MOL   H18741725   0.938   2.698   1.228 -1.6993 -1.2150 -0.4648
  130MOL   H18841726   0.671   2.915   1.420  2.3061  0.9351  3.2702
  130MOL   H18941727   0.628   3.135   1.358 -0.0496 -0.2227  1.2147
  130MOL   H19041728   0.990   3.138   1.117  1.0870 -1.8348  0.4751
  130MOL   H19141729   1.017   2.907   1.150 -1.1038 -0.1383 -1.3970
  130MOL   H19241730   0.830   2.659   1.511  0.0964 -0.9669 -0.7924
  130MOL   H19341731   0.968   2.613   1.444 -0.8307  0.0471 -0.2177
  130MOL   C19441732   0.986   2.814   1.522  0.3855  0.0219  0.1832
  130MOL   C19541733   0.989   2.791   1.671  0.5004 -0.0710 -0.5719
  130MOL   C19641734   0.913   2.884   1.755  0.0292  0.4467 -0.5687
  130MOL   C19741735   0.924   2.878   1.895 -0.3462 -0.1555 -0.4691
  130MOL   C19841736   1.007   2.782   1.955  0.1003 -0.1544  0.3302
  130MOL   F19941737   1.027   2.779   2.092 -0.1778 -0.3277 -0.1752
  130MOL   C20041738   1.088   2.696   1.876 -0.2455 -0.6592 -0.5813
  130MOL   C20141739   1.064   2.695   1.734 -0.8864 -0.0120  0.2954
  130MOL   C20241740   1.130   2.822   1.455  0.0189 -0.3991  0.4686
  130MOL   H20341741   0.945   2.914   1.507  0.4439  0.0998  0.5496
  130MOL   H20441742   0.842   2.953   1.711 -1.3855  0.5553  1.8076
  130MOL   H20541743   0.872   2.955   1.949 -0.3323  0.6435 -1.5927
  130MOL   H20641744   1.159   2.626   1.917  1.3274  1.1748 -0.1072
  130MOL   H20741745   1.108   2.620   1.670 -0.4300 -0.5044  1.1810
  130MOL   H20841746   1.194   2.747   1.502 -0.1805 -0.3217  0.8713
  130MOL   H20941747   1.125   2.787   1.352  0.0882  0.5580  0.1330
  130MOL   C21041748   1.200   2.962   1.459  0.3008 -0.7569 -0.3480
  130MOL   C21141749   1.199   3.045   1.588  0.4470  0.0121  0.0506
  130MOL   C21241750   1.266   3.001   1.703  0.5638 -0.6669 -0.4625
  130MOL   C21341751   1.260   3.074   1.826 -0.1735  0.1071  0.7069
  130MOL   C21441752   1.187   3.196   1.829 -0.3969 -0.4189 -0.1909
  130MOL   F21541753   1.192   3.265   1.946  0.2080  0.1334  0.3827
  130MOL   C21641754   1.122   3.243   1.715  0.0712  0.1970 -0.4868
  130MOL   C21741755   1.132   3.168   1.596 -0.6650  0.1678 -1.1324
  130MOL   C21841756   1.343   2.951   1.399 -0.5694 -0.7394 -0.7116
  130MOL   H21941757   1.156   3.035   1.391  0.3400 -2.0321 -1.7588
  130MOL   H22041758   1.328   2.913   1.689  0.4827 -0.7984 -0.0044
  130MOL   H22141759   1.310   3.026   1.908 -0.0232 -4.4461 -1.8542
  130MOL   H22241760   1.057   3.329   1.726 -1.6372 -1.2300  0.8753
  130MOL   H22341761   1.080   3.206   1.510 -2.0885 -0.9449 -0.7811
  130MOL   H22441762   1.420   2.937   1.474 -1.9740 -0.2974  0.8361
  130MOL   H22541763   1.343   2.858   1.341  2.1580 -0.1351 -1.7532
  130MOL   C22641764   1.385   3.057   1.299  0.0391  0.0194 -0.5874
  130MOL   C22741765   1.391   3.192   1.372  0.2541 -0.5011  0.7184
  130MOL   C22841766   1.498   3.209   1.460  0.9846 -0.5037 -0.0058
  130MOL   C22941767   1.510   3.337   1.518  0.2564 -0.2243 -0.2483
  130MOL   C23041768   1.421   3.439   1.495  0.6815 -0.4739  0.0468
  130MOL   F23141769   1.440   3.566   1.548  0.2735 -0.1412 -0.0276
  130MOL   C23241770   1.309   3.424   1.407 -0.7515 -0.4454 -0.5866
  130MOL   C23341771   1.298   3.297   1.344  0.5189 -0.6771 -0.0428
  130MOL   C23441772   1.515   3.029   1.221  0.9620 -0.5855 -0.2063
  130MOL   H23541773   1.302   3.071   1.229  0.3223 -0.5794 -1.0448
  130MOL   H23641774   1.570   3.129   1.469  0.8617 -0.4052  2.1004
  130MOL   H23741775   1.598   3.353   1.578 -1.3190  0.9490  1.8096
  130MOL   H23841776   1.244   3.510   1.394  0.1921  0.6466  1.6977
  130MOL   H23941777   1.206   3.287   1.287  0.1400 -0.4155  0.5123
  130MOL   H24041778   1.536   3.125   1.173 -1.9976 -0.1469 -0.6873
  130MOL   H24141779   1.601   3.014   1.287 -0.4117 -3.7088  0.9807
  130MOL   C24241780   1.513   2.916   1.117 -0.1708 -0.2087 -0.0181
  130MOL   C24341781   1.388   2.905   1.030 -0.3318  0.8173 -0.3529
  130MOL   C24441782   1.338   3.005   0.941 -0.3713  0.6168 -0.6247
  130MOL   C24541783   1.214   2.991   0.878  0.3476  0.6661  0.1880
  130MOL   C24641784   1.141   2.874   0.902  0.0046  0.2323  0.7099
  130MOL   F24741785   1.026   2.858   0.833 -0.2230 -0.4483 -0.1050
  130MOL   C24841786   1.187   2.769   0.986  0.3376 -0.3320 -0.2816
  130MOL   C24941787   1.312   2.782   1.044  0.2344  0.4006 -0.2080
  130MOL   C25041788   1.647   2.905   1.039  0.3133 -0.0115  0.6692
  130MOL   H25141789   1.517   2.832   1.187  0.8386 -1.4421 -1.5241
  130MOL   H25241790   1.394   3.095   0.921 -1.1197  0.9659 -1.1842
  130MOL   H25341791   1.181   3.074   0.819 -3.1902 -1.0504 -0.3484
  130MOL   H25441792   1.126   2.683   1.011 -2.2541  1.5713  0.1942
  130MOL   H25541793   1.348   2.709   1.115 -0.8417  0.0649 -0.0091
  130MOL   H25641794   1.676   3.002   0.999 -0.2516 -0.7842 -1.7444
  130MOL   H25741795   1.730   2.880   1.106  0.6001  0.5549  0.5340
  130MOL   C25841796   1.656   2.812   0.915  0.5957 -0.3584  0.3967
  130MOL   C25941797   1.781   2.829   0.826 -0.4664 -0.0080 -0.0843
  130MOL   C26041798   1.910   2.825   0.888  0.3578 -0.0536  0.1831
  130MOL   C26141799   2.028   2.839   0.811  0.0285 -0.2793  0.0635
  130MOL   C26241800   2.017   2.863   0.674  0.5482  1.3963 -0.0489
  130MOL   F26341801   2.129   2.874   0.597 -0.3363 -0.2358 -0.5021
  130MOL   C26441802   1.889   2.877   0.616 -0.7610 -0.3993  0.0066
  130MOL   C26541803   1.777   2.858   0.691 -0.2325  0.1398 -0.0441
  130MOL   C26641804   1.613   2.662   0.935  0.8063  0.2431 -0.3761
  130MOL   H26741805   1.585   2.864   0.851 -0.2201 -0.0638  1.5180
  130MOL   H26841806   1.915   2.816   0.996  2.8828 -1.7229 -0.0436
  130MOL   H26941807   2.123   2.836   0.863 -0.0158  0.6160  0.1976
  130MOL   H27041808   1.883   2.897   0.510  1.0281  1.1487  0.1680
  130MOL   H27141809   1.686   2.866   0.633 -0.6899  2.1577  0.8935
  130MOL   H27241810   1.700   2.609   0.975  0.4094 -0.0103  0.1621
  130MOL   H27341811   1.542   2.647   1.017 -0.7662 -2.3227 -2.1512
  130MOL   C27441812   1.560   2.594   0.809 -0.1881 -0.5377  0.2755
  130MOL   C27541813   1.544   2.441   0.828 -0.2501 -0.1788 -0.2349
  130MOL   C27641814   1.451   2.397   0.925 -0.0268  0.2279 -0.0102
  130MOL   C27741815   1.418   2.258   0.931  0.5036 -0.2627 -0.2069
  130MOL   C27841816   1.496   2.169   0.856  0.0922 -0.1321  0.1799
  130MOL   F27941817   1.488   2.035   0.871 -0.5099 -0.1004 -0.2562
  130MOL   C28041818   1.587   2.214   0.756  0.7526 -0.7077 -0.6416
  130MOL   C28141819   1.611   2.353   0.746  0.1044 -0.1899  0.0849
  130MOL   C28241820   1.431   2.658   0.750 -0.0100 -0.0858 -0.3394
  130MOL   H28341821   1.638   2.607   0.734  0.0739 -1.3182  0.4057
  130MOL   H28441822   1.390   2.461   0.987  1.8636  2.3365 -0.2716
  130MOL   H28541823   1.337   2.216   0.989 -0.5067  0.4807 -1.0654
  130MOL   H28641824   1.641   2.140   0.700 -0.4615 -0.4262 -2.2171
  130MOL   H28741825   1.674   2.386   0.665  0.3113 -1.3359 -0.2221
  130MOL   H28841826   1.344   2.639   0.814  0.4954  2.2708  1.1134
  130MOL   H28941827   1.437   2.766   0.761 -0.1990 -0.1084  0.0202
  130MOL   C29041828   1.410   2.619   0.602  0.0192 -0.2308 -0.4111
  130MOL   C29141829   1.263   2.631   0.571 -0.5848 -0.2983 -0.0814
  130MOL   C29241830   1.187   2.755   0.596 -0.1826  0.1074 -0.1955
  130MOL   C29341831   1.051   2.761   0.561  0.1516  0.1454 -0.5996
  130MOL   C29441832   0.989   2.647   0.509 -0.2712  1.1148  0.4907
  130MOL   F29541833   0.859   2.658   0.473 -0.3035  0.1503 -0.4198
  130MOL   C29641834   1.060   2.527   0.487  0.2898 -0.0621 -0.4893
  130MOL   C29741835   1.195   2.519   0.515 -0.3203  0.2601  0.1252
  130MOL   C29841836   1.503   2.694   0.506 -0.0827 -0.1182 -0.2298
  130MOL   H29941837   1.434   2.515   0.582 -2.5486 -0.8674 -0.4104
  130MOL   H30041838   1.228   2.848   0.632  0.3533 -0.4420  0.6411
  130MOL   H30141839   0.993   2.850   0.575 -0.1890 -0.3588  1.4730
  130MOL   H30241840   1.009   2.443   0.442  0.1383  0.3405 -1.0725
  130MOL   H30341841   1.252   2.429   0.497  0.4591  0.5824  0.9173
  130MOL   H30441842   1.486   2.801   0.517 -2.2238 -0.4639  0.0610
  130MOL   H30541843   1.606   2.672   0.531 -1.2674 -2.9529  2.4049
  130MOL   C30641844   1.484   2.662   0.356 -0.8685 -0.0609  0.4393
  130MOL   C30741845   1.568   2.765   0.278 -1.0366  0.0836 -0.4979
  130MOL   C30841846   1.509   2.878   0.223  0.3358 -0.4652  0.5893
  130MOL   C30941847   1.580   2.981   0.167 -0.0674 -0.2966  0.3970
  130MOL   C31041848   1.717   2.974   0.168 -0.1560 -0.6703 -0.4639
  130MOL   F31141849   1.792   3.078   0.135 -0.2541 -0.1221 -0.3633
  130MOL   C31241850   1.781   2.856   0.208  0.1082  0.3819 -0.0654
  130MOL   C31341851   1.708   2.749   0.268  1.0727  0.2814  0.2524
  130MOL   C31441852   1.510   2.514   0.315  0.2414 -0.0051  0.6553
  130MOL   H31541853   1.379   2.678   0.329 -0.6078 -1.4625 -1.5151
  130MOL   H31641854   1.401   2.888   0.231  0.3313 -0.3612  0.3988
  130MOL   H31741855   1.531   3.071   0.134 -0.7962 -0.1551  1.8218
  130MOL   H31841856   1.889   2.846   0.208  0.2297  1.5280  0.5498
  130MOL   H31941857   1.749   2.657   0.304  1.4564  1.6750  3.5261
  130MOL   H32041858   1.490   2.496   0.210  1.4721  0.5553  0.3049
  130MOL   H32141859   1.617   2.499   0.333  0.4373 -0.5929 -0.9122
  130MOL   H32241860   1.453   2.442   0.374 -3.8171  1.8273 -0.8455
  131MOL     C141861   1.362   4.798   4.704 -0.0237 -0.3890  0.4279
  131MOL     C241862   1.411   4.884   4.593 -0.0754 -0.5030  0.2364
  131MOL     C341863   1.404   4.842   4.460  0.3628 -0.2527  0.3848
  131MOL     C441864   1.451   4.918   4.354  0.0662 -0.0800 -0.0868
  131MOL     C541865   1.533   5.028   4.377 -0.1018 -0.4423 -0.0602
  131MOL     F641866   1.591   5.095   4.275 -0.5157 -0.1704  0.3488
  131MOL     C741867   1.545   5.070   4.505 -0.0951 -0.2464 -0.8249
  131MOL     C841868   1.484   5.004   4.613 -0.5896 -0.6604 -0.4441
  131MOL     C941869   1.443   4.676   4.723  0.8603 -0.0860  0.4872
  131MOL    H1041870   1.259   4.766   4.689 -0.1991  0.4729 -0.2291
  131MOL    H1141871   1.352   4.749   4.442  1.2957 -0.8317  0.6397
  131MOL    H1241872   1.435   4.880   4.254 -3.2827 -1.4496  0.9015
  131MOL    H1341873   1.604   5.158   4.524  0.9264 -1.5562  2.5504
  131MOL    H1441874   1.512   5.040   4.711  1.3030 -1.8444 -0.5234
  131MOL    H1541875   1.449   4.628   4.626 -1.8691  0.5011  0.0032
  131MOL    H1641876   1.549   4.699   4.736  0.7194  0.9185 -0.0924
  131MOL    H1741877   1.365   4.843   4.803  1.6512  0.7955 -0.1390
  131MOL    C1841878   1.387   4.578   4.833  0.0870 -0.0615 -0.1405
  131MOL    C1941879   1.453   4.437   4.804 -0.2863 -0.5696 -1.3248
  131MOL    C2041880   1.380   4.322   4.776 -0.1039  1.0121 -0.2456
  131MOL    C2141881   1.442   4.195   4.771  0.2656 -0.3522 -0.8913
  131MOL    C2241882   1.579   4.188   4.775 -0.1153  0.7617 -0.3704
  131MOL    F2341883   1.638   4.069   4.765 -0.4577 -0.2065  0.8619
  131MOL    C2441884   1.657   4.306   4.791 -0.2954  0.0483  0.3207
  131MOL    C2541885   1.592   4.432   4.801 -0.3110  0.3045  0.1441
  131MOL    C2641886   1.421   4.629   4.973  0.6436  1.0801 -0.3075
  131MOL    H2741887   1.280   4.571   4.809 -0.0880  1.1414  0.2184
  131MOL    H2841888   1.272   4.319   4.781 -0.0311 -2.3881  1.4332
  131MOL    H2941889   1.395   4.099   4.777  0.4070 -0.3356  0.7040
  131MOL    H3041890   1.765   4.303   4.799 -0.3224  1.6131  1.4968
  131MOL    H3141891   1.665   4.510   4.811 -1.6015  1.3114  1.9759
  131MOL    H3241892   1.525   4.660   4.972  1.3504 -0.6747  4.6710
  131MOL    H3341893   1.348   4.708   4.986 -1.5901 -1.4028  3.1431
  131MOL    C3441894   1.386   4.541   5.100 -0.1928 -0.2004  0.3435
  131MOL    C3541895   1.427   4.608   5.232 -0.7750 -0.5736 -0.5247
  131MOL    C3641896   1.352   4.721   5.283 -0.4548  0.4574  0.2474
  131MOL    C3741897   1.386   4.778   5.408 -0.0333  0.2156 -0.6547
  131MOL    C3841898   1.490   4.718   5.483  0.5485 -0.2411  0.4992
  131MOL    F3941899   1.524   4.761   5.609  0.4558  0.2225  0.4918
  131MOL    C4041900   1.563   4.605   5.435 -0.2101 -0.5829  0.5270
  131MOL    C4141901   1.528   4.546   5.311 -0.2565  0.5194 -0.0598
  131MOL    C4241902   1.241   4.502   5.099 -0.9265  0.6115 -0.6677
  131MOL    H4341903   1.442   4.448   5.106  2.2820  1.3240  1.5378
  131MOL    H4441904   1.282   4.770   5.217 -0.9322 -1.2694 -0.5623
  131MOL    H4541905   1.337   4.867   5.444  0.6795  0.1104  0.5953
  131MOL    H4641906   1.647   4.565   5.490 -0.6317 -0.8107  1.0049
  131MOL    H4741907   1.582   4.458   5.280 -1.5460 -0.4189  0.2923
  131MOL    H4841908   1.174   4.583   5.069 -0.2217  1.6066  0.4595
  131MOL    H4941909   1.239   4.438   5.010 -2.0812 -0.4097  0.0801
  131MOL    C5041910   1.187   4.445   5.229  0.3519  1.1890  0.4839
  131MOL    C5141911   1.037   4.401   5.208  0.2596  0.0468  0.0823
  131MOL    C5241912   0.980   4.350   5.088  0.5359  0.0886  0.6500
  131MOL    C5341913   0.840   4.311   5.084 -0.7818  1.1403 -0.2772
  131MOL    C5441914   0.753   4.328   5.198 -0.4478  0.7199  0.0057
  131MOL    F5541915   0.626   4.284   5.193  0.3756  0.3616 -0.2546
  131MOL    C5641916   0.810   4.387   5.310  1.1510  0.0917  0.0679
  131MOL    C5741917   0.944   4.427   5.312 -0.3190 -0.6600  0.1842
  131MOL    C5841918   1.256   4.309   5.263 -0.1644  0.3215 -0.3595
  131MOL    H5941919   1.175   4.516   5.310  0.2736  1.0599  0.5848
  131MOL    H6041920   1.042   4.348   4.999  0.9975  1.9088  0.8932
  131MOL    H6141921   0.807   4.284   4.985  0.0453 -0.2668 -0.1792
  131MOL    H6241922   0.749   4.417   5.394  2.8694 -1.3917  1.8937
  131MOL    H6341923   0.971   4.469   5.408  0.2346  1.9192 -1.0657
  131MOL    H6441924   1.234   4.231   5.190 -0.1302 -0.8605  0.8685
  131MOL    H6541925   1.365   4.304   5.266 -0.1900  0.6265  2.0113
  131MOL    C6641926   1.209   4.243   5.402 -0.1127  0.4460  0.1495
  131MOL    C6741927   1.270   4.104   5.417  0.0891 -0.2305 -0.3164
  131MOL    C6841928   1.181   3.992   5.435 -0.4961  0.6812  0.4295
  131MOL    C6941929   1.238   3.862   5.450 -0.3313 -0.2889 -0.8662
  131MOL    C7041930   1.376   3.843   5.458  0.4590 -0.2693  0.9937
  131MOL    F7141931   1.428   3.717   5.476  0.7770 -0.9378  0.5945
  131MOL    C7241932   1.465   3.949   5.437  0.4841 -0.8859 -0.2033
  131MOL    C7341933   1.413   4.078   5.420  0.2717  0.6050  0.4691
  131MOL    C7441934   1.258   4.349   5.512  0.2174 -0.7837 -0.0656
  131MOL    H7541935   1.101   4.228   5.407  0.1125 -1.5665 -0.5354
  131MOL    H7641936   1.075   3.999   5.421 -0.2696 -0.8014 -2.3896
  131MOL    H7741937   1.180   3.771   5.449  0.8501 -1.0793 -0.1863
  131MOL    H7841938   1.572   3.933   5.436  0.7134  0.4712  1.7569
  131MOL    H7941939   1.479   4.159   5.394  1.7555 -0.3506  1.1825
  131MOL    H8041940   1.354   4.383   5.474 -0.6689  1.2597 -0.5319
  131MOL    H8141941   1.183   4.428   5.513 -0.4502 -1.4223  1.0502
  131MOL    C8241942   1.279   4.287   5.663 -0.1121 -0.6016 -0.2278
  131MOL    C8341943   1.402   4.347   5.732  0.3138  0.5995 -0.0280
  131MOL    C8441944   1.400   4.466   5.800 -0.4392  0.0515 -0.1980
  131MOL    C8541945   1.518   4.539   5.834 -0.5508 -0.0083 -0.1876
  131MOL    C8641946   1.648   4.481   5.805  0.4088  0.4132  0.5434
  131MOL    F8741947   1.762   4.544   5.853 -0.4344 -0.3479  0.1576
  131MOL    C8841948   1.647   4.366   5.731  0.2221  0.1650  0.1022
  131MOL    C8941949   1.528   4.298   5.695 -0.4967 -0.5742  0.1175
  131MOL    C9041950   1.156   4.304   5.741  0.4131 -0.3094 -0.2269
  131MOL    H9141951   1.297   4.180   5.652 -1.4027 -0.9760  1.2513
  131MOL    H9241952   1.306   4.507   5.835 -0.2502 -0.3683  0.8244
  131MOL    H9341953   1.510   4.631   5.892  0.0841  0.0402 -0.1776
  131MOL    H9441954   1.744   4.327   5.704  0.6507  0.5361  1.0888
  131MOL    H9541955   1.532   4.206   5.638  0.7584 -0.5442  0.1293
  131MOL    H9641956   1.152   4.412   5.755  0.6469 -0.5619  2.0490
  131MOL    H9741957   1.073   4.255   5.690 -0.5581  1.1513 -0.0737
  131MOL    C9841958   1.154   4.240   5.886  0.7056 -0.0550  0.2947
  131MOL    C9941959   1.020   4.262   5.958 -0.0944  0.6852 -0.3221
  131MOL   C10041960   0.901   4.193   5.920 -0.7143  0.5298  0.1751
  131MOL   C10141961   0.777   4.220   5.978  0.2299  0.3949  0.2579
  131MOL   C10241962   0.777   4.314   6.085  0.5500  0.8171  0.0449
  131MOL   F10341963   0.657   4.348   6.148  0.2357  0.2050  0.0641
  131MOL   C10441964   0.895   4.384   6.125 -0.1901  0.6074  0.2978
  131MOL   C10541965   1.017   4.353   6.065  0.0569  0.3523 -0.0716
  131MOL   C10641966   1.186   4.085   5.875  0.2302 -0.1868 -0.3473
  131MOL   H10741967   1.220   4.288   5.958 -0.4101  1.8250  0.1227
  131MOL   H10841968   0.891   4.123   5.838  2.1777 -1.9667  1.8586
  131MOL   H10941969   0.692   4.161   5.948  0.0160 -0.5145  2.5508
  131MOL   H11041970   0.882   4.452   6.209  0.5240  0.4710  0.5239
  131MOL   H11141971   1.105   4.400   6.106  0.2250 -1.2862  1.5086
  131MOL   H11241972   1.115   4.035   5.941 -1.1812  1.3275 -0.6783
  131MOL   H11341973   1.159   4.037   5.781 -0.9270 -0.0436 -0.0926
  131MOL   C11441974   1.329   4.030   5.910  0.6116 -1.0805  0.3539
  131MOL   C11541975   1.377   4.095   6.041  0.7277 -0.0264  0.3626
  131MOL   C11641976   1.308   4.072   6.164 -0.0995  0.0551 -0.2233
  131MOL   C11741977   1.339   4.142   6.285 -0.2009 -0.2459  0.0209
  131MOL   C11841978   1.442   4.242   6.286 -0.0843  0.2824 -0.6271
  131MOL   F11941979   1.481   4.298   6.409 -0.0213  0.8243 -0.1609
  131MOL   C12041980   1.508   4.265   6.163  0.1813  0.0716 -0.3631
  131MOL   C12141981   1.479   4.201   6.039  0.4307 -0.2037  0.0584
  131MOL   C12241982   1.339   3.883   5.907 -0.5787 -0.6580  0.5071
  131MOL   H12341983   1.397   4.075   5.836 -0.7245 -1.2479 -0.9989
  131MOL   H12441984   1.232   3.995   6.171 -0.9387  1.0410  1.8472
  131MOL   H12541985   1.284   4.117   6.375  4.2630 -2.3164  2.3206
  131MOL   H12641986   1.594   4.331   6.156 -1.3782  2.1705 -0.3674
  131MOL   H12741987   1.532   4.224   5.948  0.4563 -1.6162 -0.3046
  131MOL   H12841988   1.273   3.835   5.980 -2.2559 -0.6984 -1.0033
  131MOL   H12941989   1.293   3.856   5.812 -0.3828  0.5910  0.0510
  131MOL   C13041990   1.483   3.839   5.918 -0.0494  0.5828 -0.7451
  131MOL   C13141991   1.508   3.802   6.066  0.3730  0.0639 -0.0393
  131MOL   C13241992   1.609   3.870   6.133  0.4044 -0.1037 -0.0659
  131MOL   C13341993   1.621   3.853   6.272 -0.4923  0.1661  0.8857
  131MOL   C13441994   1.538   3.768   6.339 -0.0784  0.1556  0.2898
  131MOL   F13541995   1.543   3.754   6.474  0.3965 -0.6912  0.0561
  131MOL   C13641996   1.442   3.694   6.274 -0.1757  0.4720  0.5625
  131MOL   C13741997   1.423   3.709   6.134 -0.1405 -0.0400  0.5047
  131MOL   C13841998   1.508   3.723   5.822 -0.1521 -0.0271 -0.2313
  131MOL   H13941999   1.556   3.915   5.893 -0.3887  0.6463 -1.5648
  131MOL   H14042000   1.662   3.944   6.074 -1.4204  0.4645 -1.0324
  131MOL   H14142001   1.692   3.918   6.321 -0.7451  0.1379  1.2930
  131MOL   H14242002   1.371   3.628   6.321  1.0129 -1.3718 -0.1534
  131MOL   H14342003   1.350   3.653   6.078 -1.4062 -2.0978  4.0186
  131MOL   H14442004   1.432   3.654   5.857 -0.2983  1.9477  3.7085
  131MOL   H14542005   1.489   3.764   5.723  0.5363 -0.3453 -0.4974
  131MOL   C14642006   1.652   3.667   5.818  0.6674  0.4949 -0.1294
  131MOL   C14742007   1.640   3.520   5.766 -0.1917  0.5954  0.2253
  131MOL   C14842008   1.611   3.489   5.629  1.0658  0.1222 -0.4130
  131MOL   C14942009   1.598   3.351   5.597 -0.1338  0.1719  0.1005
  131MOL   C15042010   1.631   3.244   5.688  0.2199 -0.5062  0.6102
  131MOL   F15142011   1.621   3.111   5.646  0.1208  0.6032  0.5198
  131MOL   C15242012   1.655   3.277   5.817  0.0117 -0.4321  0.2909
  131MOL   C15342013   1.659   3.413   5.856  0.5435 -0.1395  0.0228
  131MOL   C15442014   1.741   3.758   5.726  0.0033 -0.3192 -0.3555
  131MOL   H15542015   1.680   3.665   5.924  0.1051  1.6755  0.0486
  131MOL   H15642016   1.589   3.572   5.565  1.2728 -0.7304 -1.6007
  131MOL   H15742017   1.570   3.315   5.499 -1.4993  0.7823  0.2629
  131MOL   H15842018   1.685   3.201   5.887 -0.9179  0.5921  1.8087
  131MOL   H15942019   1.676   3.449   5.957 -1.7434 -1.5513  0.9500
  131MOL   H16042020   1.709   3.749   5.623 -1.2559 -0.4254  0.0415
  131MOL   H16142021   1.744   3.863   5.754  2.4577 -0.3897 -0.2151
  131MOL   C16242022   1.895   3.717   5.713  0.4359  0.3063  0.2083
  131MOL   C16342023   1.967   3.803   5.610  0.4176  0.0903 -0.9688
  131MOL   C16442024   1.966   3.940   5.629 -0.0482  0.1028 -0.0075
  131MOL   C16542025   2.033   4.024   5.528 -0.4393  0.1010 -0.4498
  131MOL   C16642026   2.084   3.964   5.414  0.6430 -0.1107 -0.4076
  131MOL   F16742027   2.133   4.043   5.316 -0.1625  0.4650  0.0093
  131MOL   C16842028   2.089   3.828   5.405  0.0255  0.1602  0.7011
  131MOL   C16942029   2.034   3.746   5.501  0.1083  0.6153 -0.0121
  131MOL   C17042030   1.967   3.703   5.855  0.0259 -0.6018 -0.0633
  131MOL   H17142031   1.879   3.615   5.677 -1.6221  0.0783  1.6294
  131MOL   H17242032   1.916   3.987   5.712 -1.0880 -0.1240 -0.4987
  131MOL   H17342033   2.039   4.132   5.529  0.4105  0.0757 -1.4956
  131MOL   H17442034   2.133   3.776   5.321  0.8385  2.4099 -0.3223
  131MOL   H17542035   2.038   3.640   5.485  0.9037  0.9171 -1.9726
  131MOL   H17642036   2.039   3.784   5.865 -0.0645 -0.7771  2.4400
  131MOL   H17742037   1.892   3.731   5.928  0.6745  1.8804 -0.3123
  131MOL   C17842038   2.026   3.566   5.880 -0.0002 -0.2264  0.2306
  131MOL   C17942039   2.094   3.497   5.768  1.0518  0.8660 -0.3191
  131MOL   C18042040   2.207   3.547   5.696  0.7880 -0.8075 -0.2814
  131MOL   C18142041   2.261   3.478   5.586  0.2742 -0.5595  0.1068
  131MOL   C18242042   2.194   3.365   5.537  0.2950  0.1141 -0.7030
  131MOL   F18342043   2.240   3.297   5.431  0.4499  0.0200  0.4487
  131MOL   C18442044   2.071   3.323   5.599 -0.1367 -0.3655  0.1641
  131MOL   C18542045   2.030   3.379   5.719  0.6965  0.1844 -0.7016
  131MOL   C18642046   2.112   3.560   6.003 -0.2737 -0.7601  0.2869
  131MOL   H18742047   1.940   3.501   5.895 -1.6175  2.0555  1.2320
  131MOL   H18842048   2.258   3.636   5.731  0.9556 -0.2680 -1.8603
  131MOL   H18942049   2.350   3.514   5.536 -0.8850  3.3633  0.6539
  131MOL   H19042050   2.008   3.244   5.559 -1.8124 -0.2826  2.5580
  131MOL   H19142051   1.936   3.345   5.761  1.8441  0.6565  2.3445
  131MOL   H19242052   2.157   3.460   6.004 -1.5665 -1.3437  0.5897
  131MOL   H19342053   2.193   3.632   5.989  0.1867 -1.5445 -1.2565
  131MOL   C19442054   2.043   3.590   6.140  0.3643  0.3427 -0.4994
  131MOL   C19542055   1.925   3.504   6.172  0.3658  0.6069 -0.5922
  131MOL   C19642056   1.829   3.556   6.257 -0.7244  0.0358  0.0930
  131MOL   C19742057   1.713   3.477   6.276 -0.4827 -0.2807 -0.2581
  131MOL   C19842058   1.705   3.345   6.219 -0.0717 -0.4339 -0.3362
  131MOL   F19942059   1.590   3.272   6.248 -0.5842 -0.1901  0.4679
  131MOL   C20042060   1.809   3.292   6.143  0.4089 -0.5320  0.1145
  131MOL   C20142061   1.918   3.375   6.125 -0.0250 -0.1434  0.4246
  131MOL   C20242062   2.144   3.575   6.259 -0.2886  0.8544 -0.1336
  131MOL   H20342063   2.007   3.692   6.125  2.2836  1.6275  2.9753
  131MOL   H20442064   1.832   3.658   6.295  2.7384  0.1031 -0.2551
  131MOL   H20542065   1.637   3.504   6.347  1.0775 -1.1901  1.8004
  131MOL   H20642066   1.801   3.196   6.095 -2.0322  1.1363 -3.0886
  131MOL   H20742067   2.000   3.340   6.063  1.4985  0.3598  2.1050
  131MOL   H20842068   2.092   3.569   6.355 -1.3087 -2.5019 -0.8401
  131MOL   H20942069   2.186   3.475   6.256 -0.2495  0.8664 -0.0068
  131MOL   C21042070   2.246   3.695   6.270 -0.8250  0.0572  0.3420
  131MOL   C21142071   2.177   3.832   6.289  0.0923 -0.0783  0.1555
  131MOL   C21242072   2.214   3.942   6.208 -0.1029 -0.1066  0.8318
  131MOL   C21342073   2.146   4.062   6.218  0.0977  0.0078 -0.3118
  131MOL   C21442074   2.045   4.086   6.310 -0.0506 -0.7601 -0.0292
  131MOL   F21542075   1.982   4.211   6.325  0.6671 -0.3593  0.7214
  131MOL   C21642076   2.007   3.985   6.398 -0.7609  0.5285  0.1155
  131MOL   C21742077   2.074   3.855   6.386 -0.3182  0.2407  0.0598
  131MOL   C21842078   2.359   3.680   6.377  0.7241 -0.0479  0.3974
  131MOL   H21942079   2.300   3.704   6.176  0.4801 -2.1138  0.8577
  131MOL   H22042080   2.291   3.942   6.132 -1.1983 -1.1295 -0.2891
  131MOL   H22142081   2.180   4.148   6.162 -1.2283 -0.9136 -2.6265
  131MOL   H22242082   1.939   3.995   6.482  0.2912  0.4270  0.9901
  131MOL   H22342083   2.046   3.772   6.448  0.2643  0.4857  0.6520
  131MOL   H22442084   2.404   3.780   6.375  2.0055 -0.6416 -1.5261
  131MOL   H22542085   2.313   3.689   6.475  1.1796  0.4120  0.5688
  131MOL   C22642086   2.458   3.557   6.362  0.1541 -0.1455  0.5606
  131MOL   C22742087   2.498   3.534   6.218 -0.0048  0.8240 -0.3202
  131MOL   C22842088   2.585   3.621   6.155 -0.5843  1.0109 -0.2835
  131MOL   C22942089   2.637   3.595   6.026 -0.1767 -0.4222 -0.2542
  131MOL   C23042090   2.603   3.474   5.960  0.6083 -0.1780 -0.2714
  131MOL   F23142091   2.654   3.448   5.834  0.0357 -0.2825 -0.4200
  131MOL   C23242092   2.503   3.395   6.020  0.6918 -0.2516 -0.1196
  131MOL   C23342093   2.457   3.418   6.149  0.2916 -0.0977  0.3963
  131MOL   C23442094   2.570   3.552   6.477 -0.4184  0.7588  0.1885
  131MOL   H23542095   2.394   3.482   6.408 -1.5574  1.1345  0.3352
  131MOL   H23642096   2.613   3.704   6.218 -3.4434 -0.6420  3.3618
  131MOL   H23742097   2.718   3.654   5.985 -1.9686  1.9936 -0.4141
  131MOL   H23842098   2.471   3.304   5.970  0.9225 -0.8531  0.8068
  131MOL   H23942099   2.386   3.347   6.190 -0.0122  0.0670  0.1608
  131MOL   H24042100   2.657   3.612   6.451 -0.1163  0.2219 -0.0593
  131MOL   H24142101   2.522   3.595   6.565  0.6309  1.0041  0.6523
  131MOL   C24242102   2.627   3.409   6.493 -0.1189  0.1280  0.8549
  131MOL   C24342103   2.712   3.347   6.375 -0.2574 -0.0111  0.3026
  131MOL   C24442104   2.661   3.229   6.313  0.4238  0.3917  0.0620
  131MOL   C24542105   2.725   3.177   6.200 -0.1227 -0.2508  0.6182
  131MOL   C24642106   2.847   3.233   6.155  0.6300  0.3756  0.2588
  131MOL   F24742107   2.918   3.183   6.057 -0.2497  0.7490 -1.2534
  131MOL   C24842108   2.906   3.347   6.220  0.3437 -0.3075 -0.0274
  131MOL   C24942109   2.838   3.407   6.332  0.1819  1.2625  0.5039
  131MOL   C25042110   2.702   3.401   6.623 -0.4744 -0.1113 -0.4983
  131MOL   H25142111   2.547   3.336   6.506 -0.1396  0.0024  0.0879
  131MOL   H25242112   2.562   3.190   6.333 -0.0903  1.3055 -0.6430
  131MOL   H25342113   2.679   3.100   6.139 -0.7447  0.2030  0.5153
  131MOL   H25442114   2.993   3.396   6.180  0.2130 -1.2342 -1.4955
  131MOL   H25542115   2.880   3.490   6.388 -3.8627  2.7724  1.5564
  131MOL   H25642116   2.762   3.311   6.636  0.9742  0.8884 -0.1744
  131MOL   H25742117   2.785   3.472   6.630 -0.8319  0.4244 -1.5959
  131MOL   C25842118   2.609   3.413   6.744 -0.0866  0.3627 -0.6551
  131MOL   C25942119   2.582   3.281   6.812 -0.5470 -0.3508 -0.1843
  131MOL   C26042120   2.684   3.197   6.860 -0.0866  0.2199 -0.2238
  131MOL   C26142121   2.664   3.076   6.924 -0.3798 -0.0527 -0.5501
  131MOL   C26242122   2.530   3.042   6.946 -0.4146  0.8134  0.3692
  131MOL   F26342123   2.502   2.934   7.018 -0.1978 -0.4577 -0.2525
  131MOL   C26442124   2.423   3.122   6.899  0.1331 -0.1075  0.4614
  131MOL   C26542125   2.448   3.240   6.828 -0.2705  0.1840 -0.4922
  131MOL   C26642126   2.655   3.521   6.838  0.5490 -0.7750  0.1986
  131MOL   H26742127   2.511   3.437   6.702  1.2168 -0.5790 -4.4590
  131MOL   H26842128   2.786   3.219   6.833  0.2260 -0.9165  0.0401
  131MOL   H26942129   2.747   3.018   6.963 -0.1600 -0.3460 -1.4428
  131MOL   H27042130   2.323   3.086   6.916 -1.1038  2.9114  0.0350
  131MOL   H27142131   2.371   3.298   6.781 -2.3076 -0.8025  1.5520
  131MOL   H27242132   2.599   3.516   6.931 -0.5457  3.3892 -0.1563
  131MOL   H27342133   2.752   3.482   6.869  0.4754 -2.1736 -1.2641
  131MOL   C27442134   2.652   3.667   6.794 -0.3260  0.2802 -0.4092
  131MOL   C27542135   2.511   3.728   6.781 -0.3174 -0.4515 -0.6820
  131MOL   C27642136   2.404   3.693   6.862 -0.9327 -0.5439 -0.4001
  131MOL   C27742137   2.279   3.748   6.839  0.8705 -0.8715 -0.4171
  131MOL   C27842138   2.262   3.836   6.732  0.1274  0.0013 -0.5950
  131MOL   F27942139   2.135   3.885   6.708 -0.1704  0.6378 -0.2030
  131MOL   C28042140   2.373   3.880   6.655 -0.4273  0.1655  0.6588
  131MOL   C28142141   2.499   3.825   6.677  0.0760  0.0198  0.7642
  131MOL   C28242142   2.730   3.750   6.896  0.4709 -0.0463 -0.0075
  131MOL   H28342143   2.709   3.660   6.701  1.8378 -0.6100  0.9633
  131MOL   H28442144   2.424   3.632   6.948 -0.2411 -1.4411 -1.1917
  131MOL   H28542145   2.194   3.726   6.902  1.1255  2.7157  1.2700
  131MOL   H28642146   2.363   3.951   6.573 -0.0413 -0.4327  0.0898
  131MOL   H28742147   2.575   3.853   6.606  0.0213 -1.3558  0.1538
  131MOL   H28842148   2.722   3.845   6.843  3.3525  0.8863  1.1270
  131MOL   H28942149   2.672   3.762   6.987 -0.5222 -1.0513 -0.4921
  131MOL   C29042150   2.883   3.720   6.918  0.7839 -0.4553 -0.2869
  131MOL   C29142151   2.964   3.706   6.792  0.1189  0.3511  0.5316
  131MOL   C29242152   3.065   3.605   6.792  0.1374  0.3473  0.4091
  131MOL   C29342153   3.148   3.592   6.679 -0.2957 -0.0942  0.5108
  131MOL   C29442154   3.113   3.662   6.561  1.0621 -1.3203  0.1534
  131MOL   F29542155   3.192   3.645   6.455  0.4582  0.0579 -0.0358
  131MOL   C29642156   3.006   3.754   6.556 -0.4297  0.1092 -0.0510
  131MOL   C29742157   2.931   3.778   6.675 -0.1117 -0.1495  0.5709
  131MOL   C29842158   2.944   3.826   7.008  0.1312 -0.9308  0.8611
  131MOL   H29942159   2.887   3.619   6.961 -2.8911 -0.2258  0.7488
  131MOL   H30042160   3.085   3.543   6.878  2.2796 -2.8908 -2.3562
  131MOL   H30142161   3.227   3.518   6.676 -1.3456 -1.2071 -0.3440
  131MOL   H30242162   2.989   3.826   6.476  0.1512  0.9917  0.6144
  131MOL   H30342163   2.857   3.857   6.682 -2.2692 -2.0354 -0.3746
  131MOL   H30442164   2.934   3.923   6.958 -0.7793 -2.6789 -2.4528
  131MOL   H30542165   2.885   3.827   7.099  0.2415  1.8573  0.9644
  131MOL   C30642166   3.094   3.809   7.048  0.0248 -0.3204 -0.1281
  131MOL   C30742167   3.167   3.921   7.099  0.0425  0.1450  0.1867
  131MOL   C30842168   3.109   3.992   7.208 -0.5572 -0.1355  0.1463
  131MOL   C30942169   3.180   4.099   7.267 -0.0946  0.4907  0.2564
  131MOL   C31042170   3.311   4.125   7.220 -0.1247 -0.7037 -0.2632
  131MOL   F31142171   3.385   4.216   7.273  0.1338  0.7205  0.1188
  131MOL   C31242172   3.379   4.039   7.134  0.6559  0.1105  0.1623
  131MOL   C31342173   3.306   3.941   7.069 -0.1195  0.2903 -0.7248
  131MOL   C31442174   3.124   3.682   7.136  0.3420 -0.5564  0.0741
  131MOL   H31542175   3.147   3.792   6.954 -1.4495 -0.7964 -0.8896
  131MOL   H31642176   3.012   3.962   7.246 -0.1762  0.5328  1.6523
  131MOL   H31742177   3.137   4.167   7.340  1.2745  0.3786  1.1955
  131MOL   H31842178   3.484   4.050   7.109  0.5780 -0.0316 -0.2289
  131MOL   H31942179   3.363   3.875   7.006  0.7223 -0.6939  1.0469
  131MOL   H32042180   3.231   3.668   7.147  0.5048 -0.3295 -1.1774
  131MOL   H32142181   3.087   3.688   7.238 -2.3481  2.5041 -0.9844
  131MOL   H32242182   3.088   3.589   7.094  0.4569 -0.2928 -0.6134
  132MOL     C142183   1.959   5.301   5.627  0.6329 -0.3386  0.5956
  132MOL     C242184   1.818   5.314   5.679  0.3012  0.1375 -0.2475
  132MOL     C342185   1.763   5.437   5.719  0.1493  0.1470  0.4813
  132MOL     C442186   1.629   5.448   5.761  0.2048  0.2952 -0.3110
  132MOL     C542187   1.549   5.333   5.777 -0.6327 -0.5933 -0.9070
  132MOL     F642188   1.423   5.345   5.817  0.8051  0.5203 -0.3872
  132MOL     C742189   1.600   5.205   5.734 -0.1723  0.2511 -0.1440
  132MOL     C842190   1.732   5.201   5.684 -0.4527 -0.3877  0.1708
  132MOL     C942191   2.045   5.201   5.714  0.3068  0.0281  0.7038
  132MOL    H1042192   2.000   5.402   5.622 -2.3059  0.9326  1.0904
  132MOL    H1142193   1.830   5.521   5.724  1.5616 -0.7529 -2.3368
  132MOL    H1242194   1.595   5.538   5.811  0.8158  0.4738 -0.2203
  132MOL    H1342195   1.543   5.119   5.763  2.7711 -1.7365 -0.0297
  132MOL    H1442196   1.771   5.105   5.656 -1.4091 -0.6454 -0.3101
  132MOL    H1542197   2.053   5.245   5.814  1.3882 -0.6156  0.9077
  132MOL    H1642198   1.978   5.119   5.738 -0.1444  0.7125  1.8437
  132MOL    H1742199   1.957   5.272   5.522 -0.7379  0.7602  0.3021
  132MOL    C1842200   2.182   5.149   5.668  0.0179  0.3118  1.1710
  132MOL    C1942201   2.292   5.238   5.731  0.2733  0.9209  0.2512
  132MOL    C2042202   2.352   5.333   5.649 -0.3835  0.4866  0.1753
  132MOL    C2142203   2.454   5.414   5.695  0.4298 -0.3279 -0.7205
  132MOL    C2242204   2.492   5.417   5.831 -0.3236  0.2890  0.4862
  132MOL    F2342205   2.592   5.491   5.872 -0.3254 -0.0560 -0.2472
  132MOL    C2442206   2.435   5.320   5.912 -0.0155 -0.6949 -0.3380
  132MOL    C2542207   2.336   5.227   5.866  0.0497 -0.6261  0.6866
  132MOL    C2642208   2.201   5.005   5.710 -0.9113 -0.2874  0.3010
  132MOL    H2742209   2.193   5.149   5.559 -2.4040 -1.0618  0.8837
  132MOL    H2842210   2.324   5.340   5.545 -1.4036  1.2413  0.4979
  132MOL    H2942211   2.490   5.483   5.620 -1.4299  1.0395 -0.3896
  132MOL    H3042212   2.464   5.296   6.013  1.7596  1.0850 -0.4006
  132MOL    H3142213   2.292   5.144   5.919  1.7008 -1.0496  1.4400
  132MOL    H3242214   2.307   4.983   5.702 -0.7938  0.9213 -1.8897
  132MOL    H3342215   2.182   4.985   5.815  0.9407  0.7952  0.8500
  132MOL    C3442216   2.134   4.893   5.624  0.2239  0.2737  0.2771
  132MOL    C3542217   2.169   4.910   5.473  0.0103 -0.1919 -0.0269
  132MOL    C3642218   2.296   4.934   5.416  0.0282 -0.4921 -0.4046
  132MOL    C3742219   2.317   4.954   5.277  0.3022 -0.3697  0.1678
  132MOL    C3842220   2.210   4.948   5.191 -0.2124  0.7746  0.3838
  132MOL    F3942221   2.238   4.963   5.062 -0.1325  0.4706 -0.4272
  132MOL    C4042222   2.078   4.927   5.246 -0.2211 -0.3105  0.7989
  132MOL    C4142223   2.058   4.904   5.381 -0.8918  0.2045  0.3343
  132MOL    C4242224   2.157   4.748   5.671  0.3668 -0.4769  0.7082
  132MOL    H4342225   2.031   4.927   5.634  0.0224 -0.4696  0.7645
  132MOL    H4442226   2.375   4.922   5.489  0.2343  1.3595 -0.3009
  132MOL    H4542227   2.419   4.965   5.244  0.2091  0.7657  0.2458
  132MOL    H4642228   1.989   4.932   5.184  1.2818 -0.6919 -1.4489
  132MOL    H4742229   1.957   4.884   5.414 -0.5873 -3.9911 -0.9865
  132MOL    H4842230   2.102   4.691   5.596  0.9407  0.2008 -0.2344
  132MOL    H4942231   2.261   4.715   5.667  0.5243  0.1637 -0.6461
  132MOL    C5042232   2.098   4.715   5.815 -0.2644  0.2449 -0.7993
  132MOL    C5142233   1.979   4.803   5.865  0.0945 -0.1927 -0.2910
  132MOL    C5242234   1.848   4.793   5.807  0.6783  0.1974  0.4481
  132MOL    C5342235   1.741   4.870   5.860 -0.3963  0.2092  0.5635
  132MOL    C5442236   1.762   4.970   5.962  0.1309  0.2700  0.5454
  132MOL    F5542237   1.668   5.061   5.988  0.1658 -0.1071  0.7187
  132MOL    C5642238   1.894   4.990   6.012  0.9694 -0.3789  0.1042
  132MOL    C5742239   2.000   4.905   5.965 -0.1219  0.1050  0.3722
  132MOL    C5842240   2.076   4.571   5.828  0.7720 -0.1405  0.0036
  132MOL    H5942241   2.179   4.734   5.885 -2.4441  0.8789  1.6339
  132MOL    H6042242   1.838   4.725   5.724  2.3090  0.2636  0.1821
  132MOL    H6142243   1.645   4.851   5.815 -0.0053 -0.1867 -0.1084
  132MOL    H6242244   1.904   5.074   6.079 -3.0679  0.2203  0.0948
  132MOL    H6342245   2.097   4.919   6.011  0.5819  0.2308 -1.1048
  132MOL    H6442246   1.988   4.548   5.768  2.0791 -1.9160 -1.2730
  132MOL    H6542247   2.165   4.521   5.788  0.7383 -1.2360  1.2770
  132MOL    C6642248   2.062   4.518   5.979  0.2673  0.1296 -0.0520
  132MOL    C6742249   2.019   4.372   5.978 -1.1839 -0.3286 -0.5536
  132MOL    C6842250   1.888   4.334   6.017 -0.2337  0.6748 -0.0740
  132MOL    C6942251   1.842   4.199   6.010 -0.1585 -0.0318 -0.5887
  132MOL    C7042252   1.930   4.104   5.958  0.3160 -0.8582  0.5980
  132MOL    F7142253   1.893   3.970   5.945 -0.7231  0.1638  0.2193
  132MOL    C7242254   2.055   4.143   5.911  0.5127  0.6755  0.7833
  132MOL    C7342255   2.102   4.272   5.919 -0.3521 -0.5312 -0.0242
  132MOL    C7442256   2.193   4.526   6.062 -0.7931  0.3787 -0.0903
  132MOL    H7542257   1.985   4.585   6.019  0.8029 -0.0873  1.3617
  132MOL    H7642258   1.822   4.402   6.069 -0.8295 -0.3121  0.4768
  132MOL    H7742259   1.745   4.171   6.048 -0.1473 -0.9620 -1.2309
  132MOL    H7842260   2.113   4.063   5.868  1.5250  1.5021  0.6069
  132MOL    H7942261   2.200   4.292   5.879 -1.0759 -0.1016 -1.6142
  132MOL    H8042262   2.261   4.443   6.041 -0.3832  0.5092  0.7010
  132MOL    H8142263   2.245   4.621   6.048 -0.2503 -0.2066 -2.1484
  132MOL    C8242264   2.164   4.513   6.216  0.7241  0.4237  0.0622
  132MOL    C8342265   2.300   4.517   6.287 -0.0996 -0.2899 -0.1395
  132MOL    C8442266   2.336   4.392   6.354  0.3757 -0.0117  0.1690
  132MOL    C8542267   2.449   4.386   6.429  0.9610 -0.0334 -0.0726
  132MOL    C8642268   2.532   4.500   6.438 -0.6155 -0.7166  0.2875
  132MOL    F8742269   2.638   4.497   6.522  0.9548 -0.0438  0.1634
  132MOL    C8842270   2.507   4.621   6.372 -0.3032 -0.0574  0.2816
  132MOL    C8942271   2.395   4.622   6.287 -0.3709 -0.8301 -0.8290
  132MOL    C9042272   2.073   4.629   6.280 -0.2852 -0.0116 -0.5742
  132MOL    H9142273   2.116   4.416   6.221  0.2056  0.7851  2.4838
  132MOL    H9242274   2.274   4.305   6.343 -3.3232  2.3576  1.3804
  132MOL    H9342275   2.477   4.305   6.496  1.7915  0.4516  0.1692
  132MOL    H9442276   2.564   4.713   6.375  0.0016 -0.2720  1.2104
  132MOL    H9542277   2.370   4.711   6.232  2.0082 -0.5358 -1.4908
  132MOL    H9642278   2.120   4.724   6.257 -0.6552  0.2091 -0.4098
  132MOL    H9742279   1.973   4.643   6.240 -1.4109 -1.4783  1.5861
  132MOL    C9842280   2.068   4.625   6.438  0.4903  0.7409 -0.4088
  132MOL    C9942281   2.005   4.747   6.511  0.0269 -0.1195 -0.0149
  132MOL   C10042282   2.089   4.804   6.612  0.3076 -0.3412 -0.2922
  132MOL   C10142283   2.044   4.909   6.690  0.1755 -0.5377 -0.3235
  132MOL   C10242284   1.925   4.980   6.650  0.8431 -0.7579 -0.4488
  132MOL   F10342285   1.879   5.084   6.730  0.3696  0.3593  0.0711
  132MOL   C10442286   1.843   4.922   6.554 -0.5268 -0.1582 -0.1494
  132MOL   C10542287   1.884   4.808   6.482  0.2562 -0.2923 -0.2768
  132MOL   C10642288   1.987   4.502   6.492 -0.4620  0.1329  0.8197
  132MOL   H10742289   2.167   4.609   6.481  0.3258 -3.2249 -1.3518
  132MOL   H10842290   2.188   4.768   6.632  1.3459  2.4448 -0.2615
  132MOL   H10942291   2.100   4.948   6.773 -1.6619  1.0168  0.2412
  132MOL   H11042292   1.749   4.971   6.535 -1.5055 -1.7422  0.4572
  132MOL   H11142293   1.818   4.762   6.410 -1.0175  2.0418 -0.6338
  132MOL   H11242294   1.885   4.513   6.455 -0.5973 -0.8447  0.9025
  132MOL   H11342295   2.022   4.408   6.450 -0.1227  1.3901 -1.8515
  132MOL   C11442296   1.980   4.475   6.650 -0.3557 -0.1245 -0.1703
  132MOL   C11542297   1.864   4.385   6.674 -0.6272 -0.6441  0.0417
  132MOL   C11642298   1.742   4.448   6.721 -0.2117  0.0807 -0.1538
  132MOL   C11742299   1.626   4.366   6.728  0.0211 -0.0661  0.0946
  132MOL   C11842300   1.639   4.231   6.719 -0.0559 -0.0319  0.1607
  132MOL   F11942301   1.541   4.136   6.738 -0.4243  0.2633 -0.0543
  132MOL   C12042302   1.758   4.165   6.672  0.1597  0.1062  0.2197
  132MOL   C12142303   1.872   4.246   6.650  0.4561  0.3932 -0.1680
  132MOL   C12242304   2.113   4.418   6.706 -0.1164 -0.4921 -0.3277
  132MOL   H12342305   1.965   4.570   6.702  0.2022  0.6119 -1.3138
  132MOL   H12442306   1.731   4.556   6.728 -1.2461  0.2791 -3.7665
  132MOL   H12542307   1.530   4.406   6.756 -0.5145  0.4531 -2.4130
  132MOL   H12642308   1.753   4.060   6.649 -0.3179 -0.0847  1.1596
  132MOL   H12742309   1.961   4.195   6.619  1.6844  0.8081  2.5084
  132MOL   H12842310   2.139   4.332   6.643 -0.4216 -0.1278 -0.9566
  132MOL   H12942311   2.193   4.488   6.681  0.2821 -0.3727  1.2164
  132MOL   C13042312   2.134   4.388   6.861 -0.5889 -1.2398 -0.4180
  132MOL   C13142313   2.269   4.305   6.878 -0.8921  0.6946 -0.9897
  132MOL   C13242314   2.388   4.365   6.827 -0.2136  0.0293  0.5810
  132MOL   C13342315   2.511   4.288   6.830 -0.1269  0.2750 -0.7318
  132MOL   C13442316   2.504   4.155   6.883  0.2190  0.2774 -0.0758
  132MOL   F13542317   2.620   4.085   6.890 -0.0724 -0.1884  0.4428
  132MOL   C13642318   2.384   4.096   6.927 -0.4685 -0.5727  0.6617
  132MOL   C13742319   2.267   4.173   6.922  0.0657  0.0323 -0.0844
  132MOL   C13842320   2.116   4.519   6.941  0.5305  0.2175 -0.9862
  132MOL   H13942321   2.052   4.318   6.875 -1.2051 -0.4764 -0.1689
  132MOL   H14042322   2.383   4.460   6.776  2.5026  1.0627  2.1241
  132MOL   H14142323   2.605   4.315   6.785  0.3772 -0.0991  0.0685
  132MOL   H14242324   2.391   3.991   6.950 -0.2791 -0.3478  1.6411
  132MOL   H14342325   2.175   4.118   6.933  0.7319 -0.8135  1.5037
  132MOL   H14442326   2.216   4.561   6.951 -0.4474  2.7910 -1.6778
  132MOL   H14542327   2.041   4.587   6.900 -1.2085 -0.9274  0.2076
  132MOL   C14642328   2.044   4.497   7.081 -0.0653  0.2091  0.0921
  132MOL   C14742329   2.095   4.376   7.160  0.2989 -0.2203  0.2995
  132MOL   C14842330   2.010   4.263   7.161  0.0571  0.4615 -0.2062
  132MOL   C14942331   2.044   4.151   7.238  0.3105 -0.1490 -0.8264
  132MOL   C15042332   2.163   4.150   7.307  0.3559  0.3733 -0.1553
  132MOL   F15142333   2.193   4.041   7.382 -0.3875  0.2318 -0.0895
  132MOL   C15242334   2.248   4.262   7.307 -0.2526 -0.4014 -0.1844
  132MOL   C15342335   2.217   4.375   7.229 -0.7058 -0.2289  0.0778
  132MOL   C15442336   2.036   4.622   7.176 -0.0751 -0.2250  0.0534
  132MOL   H15542337   1.948   4.459   7.045 -0.4552  1.6729 -0.4093
  132MOL   H15642338   1.914   4.266   7.112 -0.4838  1.5556  0.9005
  132MOL   H15742339   1.973   4.071   7.225  0.1668 -0.0177 -0.8451
  132MOL   H15842340   2.343   4.248   7.356 -0.9660  1.2009  1.7332
  132MOL   H15942341   2.289   4.454   7.215 -0.4739 -0.8012 -2.1045
  132MOL   H16042342   1.997   4.583   7.270  1.1583  1.6103  1.3667
  132MOL   H16142343   2.138   4.653   7.198  0.3479  0.9998 -3.3362
  132MOL   C16242344   1.968   4.743   7.116  0.3321 -0.6061 -0.5517
  132MOL   C16342345   1.832   4.716   7.060  0.7365 -0.1414  0.0308
  132MOL   C16442346   1.740   4.636   7.125 -0.5149 -0.2157 -0.1760
  132MOL   C16542347   1.613   4.619   7.073  0.1546  0.1799  0.3461
  132MOL   C16642348   1.572   4.687   6.956 -0.0787  0.2383 -0.2034
  132MOL   F16742349   1.447   4.671   6.905 -0.0821  0.1173 -0.2165
  132MOL   C16842350   1.665   4.773   6.895 -0.8479 -0.7642 -0.5167
  132MOL   C16942351   1.792   4.789   6.951  0.0404 -0.1963 -0.2024
  132MOL   C17042352   1.974   4.860   7.219 -0.3041 -0.2924  0.2844
  132MOL   H17142353   2.030   4.779   7.034  2.0459  0.8657  1.3316
  132MOL   H17242354   1.766   4.572   7.207  0.7662  1.0497  0.4130
  132MOL   H17342355   1.533   4.562   7.119 -2.2039  1.4409 -2.0736
  132MOL   H17442356   1.648   4.825   6.801  1.6590 -0.1030 -0.6487
  132MOL   H17542357   1.858   4.865   6.910  0.4166 -0.1287  0.5192
  132MOL   H17642358   1.891   4.929   7.204  0.4271  0.7160  0.8971
  132MOL   H17742359   1.935   4.821   7.313  0.2210  0.4113  0.7941
  132MOL   C17842360   2.107   4.936   7.223  1.1787 -0.3345  0.0824
  132MOL   C17942361   2.136   5.006   7.091  0.0850 -0.1801 -0.0795
  132MOL   C18042362   2.271   4.989   7.042 -0.0352 -0.0720 -0.5304
  132MOL   C18142363   2.319   5.061   6.927  0.2124 -0.7384  0.4075
  132MOL   C18242364   2.228   5.151   6.867  0.6405  0.1120  0.8717
  132MOL   F18342365   2.264   5.213   6.754  0.3265 -0.1729 -0.1176
  132MOL   C18442366   2.100   5.183   6.920 -0.1950  0.7466 -0.4661
  132MOL   C18542367   2.051   5.099   7.028  0.1095  0.1163  0.7581
  132MOL   C18642368   2.097   5.035   7.341  0.3693 -0.5463  0.7655
  132MOL   H18742369   2.167   4.847   7.243 -1.4997 -2.3756 -0.5169
  132MOL   H18842370   2.339   4.927   7.097  0.8561  2.1019  0.8987
  132MOL   H18942371   2.419   5.043   6.890 -0.4250 -0.4579 -1.5206
  132MOL   H19042372   2.031   5.260   6.886  1.1562  1.4076 -1.7499
  132MOL   H19142373   1.950   5.105   7.065 -0.1812  2.1493 -0.2600
  132MOL   H19242374   1.999   5.080   7.353  0.0018 -1.5027  1.4485
  132MOL   H19342375   2.098   4.964   7.424  2.0244 -0.5764  0.7440
  132MOL   C19442376   2.223   5.130   7.357 -0.4226  0.1665  0.3907
  132MOL   C19542377   2.216   5.255   7.267 -0.5129 -0.4035  0.5884
  132MOL   C19642378   2.093   5.322   7.238 -0.8011 -0.3473 -0.7141
  132MOL   C19742379   2.091   5.435   7.154 -0.1465 -0.4698  0.5875
  132MOL   C19842380   2.205   5.475   7.088 -0.8904 -0.4525 -0.1594
  132MOL   F19942381   2.200   5.577   6.996  0.0765  0.1892 -0.2472
  132MOL   C20042382   2.330   5.415   7.124  0.1458 -0.6017 -0.2990
  132MOL   C20142383   2.332   5.302   7.210 -0.5406  0.2152 -0.0555
  132MOL   C20242384   2.229   5.173   7.509  0.4694  0.0961  0.5257
  132MOL   H20342385   2.315   5.073   7.349 -0.7816 -0.2467 -0.9584
  132MOL   H20442386   2.001   5.286   7.281  0.9397 -1.0338  2.6015
  132MOL   H20542387   1.999   5.490   7.135 -0.1861 -1.6553 -3.0386
  132MOL   H20642388   2.425   5.449   7.084 -0.2466  0.2024 -0.5474
  132MOL   H20742389   2.426   5.252   7.230 -0.4668  1.1101  1.9444
  132MOL   H20842390   2.236   5.281   7.525  1.0135  0.2708 -0.7825
  132MOL   H20942391   2.135   5.147   7.556 -0.0002  0.8833  0.0360
  132MOL   C21042392   2.345   5.101   7.590 -0.8116 -0.5163 -0.0290
  132MOL   C21142393   2.477   5.140   7.527 -0.4008  0.8256 -0.2507
  132MOL   C21242394   2.511   5.270   7.495  0.8612 -0.4778  0.8002
  132MOL   C21342395   2.644   5.311   7.463  0.4296 -0.1786  0.0046
  132MOL   C21442396   2.747   5.211   7.464 -0.6373 -0.2013  0.7544
  132MOL   F21542397   2.878   5.248   7.453 -0.0289 -0.0781 -0.2814
  132MOL   C21642398   2.712   5.081   7.500  0.6856 -0.8890  0.1205
  132MOL   C21742399   2.578   5.042   7.520  0.5399  0.9146 -0.1481
  132MOL   C21842400   2.348   5.137   7.739  0.3968  0.1084  0.5573
  132MOL   H21942401   2.335   4.992   7.580  1.4652 -0.8136  0.6911
  132MOL   H22042402   2.436   5.348   7.500  0.7011 -0.7410  2.9181
  132MOL   H22142403   2.674   5.408   7.429 -0.0185 -0.0434 -0.0149
  132MOL   H22242404   2.797   5.014   7.507  1.3865 -0.1010 -0.7046
  132MOL   H22342405   2.570   4.938   7.549 -0.3574  0.3769 -2.2687
  132MOL   H22442406   2.375   5.241   7.756 -0.8887  0.3523  1.1386
  132MOL   H22542407   2.248   5.125   7.780 -0.3685  1.7854 -0.7851
  132MOL   C22642408   2.439   5.038   7.817 -0.3030  0.0185  0.0301
  132MOL   C22742409   2.512   5.122   7.925 -0.2166 -0.4275 -0.2528
  132MOL   C22842410   2.442   5.183   8.030 -0.2319  0.1303 -0.2380
  132MOL   C22942411   2.512   5.251   8.138  0.1303  0.6609  0.1626
  132MOL   C23042412   2.647   5.282   8.121  0.5184 -0.2271  0.6798
  132MOL   F23142413   2.718   5.353   8.212  0.8142 -0.4152  0.0084
  132MOL   C23242414   2.716   5.225   8.010  0.1727  0.0004  0.0938
  132MOL   C23342415   2.650   5.143   7.915  0.5297 -0.2973  0.2017
  132MOL   C23442416   2.359   4.925   7.895  0.5675 -0.2989 -0.2087
  132MOL   H23542417   2.526   4.993   7.769  0.2146  1.1461 -0.1115
  132MOL   H23642418   2.334   5.178   8.028 -0.2380  0.4699 -1.1792
  132MOL   H23742419   2.457   5.298   8.218 -0.1514 -0.8808  0.8831
  132MOL   H23842420   2.820   5.251   7.998  0.5416 -0.9193  1.1672
  132MOL   H23942421   2.701   5.107   7.826  1.3122 -0.2108  0.6060
  132MOL   H24042422   2.431   4.869   7.957  1.1072 -0.9077 -1.3635
  132MOL   H24142423   2.287   4.964   7.967  0.3735  0.0747 -0.6113
  132MOL   C24242424   2.265   4.825   7.820 -0.8394  0.5519  0.4078
  132MOL   C24342425   2.343   4.734   7.720 -0.5025  0.1230  0.6505
  132MOL   C24442426   2.445   4.651   7.763 -0.0310 -0.0413  0.1262
  132MOL   C24542427   2.498   4.562   7.677  0.1631  0.2594 -0.2787
  132MOL   C24642428   2.462   4.557   7.543 -0.1412 -0.8241  0.1876
  132MOL   F24742429   2.515   4.463   7.468  0.2628 -0.5645  0.2181
  132MOL   C24842430   2.368   4.647   7.490 -0.1071 -0.3473 -1.0071
  132MOL   C24942431   2.312   4.741   7.582  0.8838 -0.2929  0.2741
  132MOL   C25042432   2.165   4.749   7.916 -0.2262 -0.3878  0.5326
  132MOL   H25142433   2.205   4.889   7.755  2.6862  1.6751 -1.8984
  132MOL   H25242434   2.486   4.648   7.863 -0.1217 -2.7880  0.1107
  132MOL   H25342435   2.580   4.501   7.711  0.8219  1.9544  1.2454
  132MOL   H25442436   2.346   4.660   7.385 -0.8108  1.1404 -0.6967
  132MOL   H25542437   2.243   4.805   7.529 -0.2591 -0.7809  1.1450
  132MOL   H25642438   2.196   4.645   7.922  1.4641  0.0642 -0.1970
  132MOL   H25742439   2.166   4.777   8.021 -1.1600 -1.1647  0.7494
  132MOL   C25842440   2.016   4.769   7.880  0.0465  0.7552  0.4584
  132MOL   C25942441   1.923   4.659   7.941 -0.4657 -0.6193 -0.4007
  132MOL   C26042442   1.849   4.577   7.854  0.0218  0.2848  0.0283
  132MOL   C26142443   1.773   4.468   7.897 -0.5355 -0.0164  0.5261
  132MOL   C26242444   1.766   4.442   8.035  0.1783 -0.2722 -0.0796
  132MOL   F26342445   1.686   4.348   8.083  0.4583 -0.1950  0.0168
  132MOL   C26442446   1.840   4.521   8.123  0.5168  0.2354 -0.1826
  132MOL   C26542447   1.919   4.630   8.079 -0.1945  0.5926 -0.6217
  132MOL   C26642448   1.964   4.918   7.910  0.3130 -0.1273  0.1611
  132MOL   H26742449   1.999   4.753   7.774  0.1201 -0.9289  0.6978
  132MOL   H26842450   1.855   4.597   7.748 -0.5511  1.6248  0.2348
  132MOL   H26942451   1.713   4.421   7.822  0.2461  0.6778 -0.5510
  132MOL   H27042452   1.824   4.508   8.229 -0.1663 -3.2728 -0.6700
  132MOL   H27142453   1.972   4.686   8.154 -1.2618  0.1236  0.4971
  132MOL   H27242454   2.007   4.962   7.999  0.9979 -0.8571  0.1935
  132MOL   H27342455   2.015   4.986   7.842 -1.6662  1.1290 -0.1039
  132MOL   C27442456   1.817   4.951   7.897  0.3460  0.4038  0.4015
  132MOL   C27542457   1.743   4.913   8.032 -0.0618 -0.2980 -0.0008
  132MOL   C27642458   1.632   4.824   8.037  0.2539 -1.4776  0.3149
  132MOL   C27742459   1.561   4.807   8.154  0.0457 -0.2573 -0.4250
  132MOL   C27842460   1.608   4.871   0.039  0.1667  0.7269 -0.7320
  132MOL   F27942461   1.522   4.874   0.146  0.4034 -0.3129 -0.7198
  132MOL   C28042462   1.713   4.959   0.042 -0.1939  0.1363  0.4869
  132MOL   C28142463   1.775   4.985   8.148 -0.5295 -0.1203 -0.1127
  132MOL   C28242464   1.792   5.102   7.866 -0.0330 -0.5095 -0.2474
  132MOL   H28342465   1.774   4.908   7.806  1.0242  1.0426 -0.2246
  132MOL   H28442466   1.601   4.768   7.950  0.1778  0.0959 -0.6749
  132MOL   H28542467   1.474   4.743   8.152  1.7901 -2.7645  1.2805
  132MOL   H28642468   1.741   5.014   0.130 -2.9034  0.8744  0.9473
  132MOL   H28742469   1.856   5.056   8.140 -0.1939 -0.3810  0.8514
  132MOL   H28842470   1.792   5.168   7.952 -2.2127  0.0736 -0.6771
  132MOL   H28942471   1.871   5.143   7.802 -1.7496  2.1015 -0.7625
  132MOL   C29042472   1.663   5.147   7.796  0.2683 -0.0783 -0.3175
  132MOL   C29142473   1.536   5.097   7.864 -0.6525 -1.0574 -0.0900
  132MOL   C29242474   1.462   4.987   7.799  0.6401 -0.3349 -0.3639
  132MOL   C29342475   1.362   4.926   7.873  0.3765  0.1164  0.1108
  132MOL   C29442476   1.329   4.966   8.002 -0.2075 -0.1979  0.0586
  132MOL   F29542477   1.226   4.903   8.067  0.4601 -0.0689 -0.4158
  132MOL   C29642478   1.401   5.075   8.063 -0.3159 -0.6573 -0.1370
  132MOL   C29742479   1.502   5.141   7.997  0.1995  0.6026  0.3026
  132MOL   C29842480   1.665   5.300   7.777 -0.1514  0.7549 -0.4758
  132MOL   H29942481   1.671   5.109   7.695  2.2082  1.0865 -0.6305
  132MOL   H30042482   1.488   4.949   7.701  0.7010 -0.4480 -0.3044
  132MOL   H30142483   1.314   4.842   7.826  0.5175  1.6230 -2.8504
  132MOL   H30242484   1.382   5.102   8.166  1.6333  1.2992 -0.2484
  132MOL   H30342485   1.559   5.216   8.049 -1.4566  0.3110  2.6598
  132MOL   H30442486   1.668   5.341   7.878  0.2177 -0.5497  0.0583
  132MOL   H30542487   1.761   5.316   7.727 -0.3914 -1.0102 -1.5620
  132MOL   C30642488   1.554   5.359   7.689  0.0917  0.3585 -0.4100
  132MOL   C30742489   1.495   5.487   7.741 -0.4607 -0.0169  0.0532
  132MOL   C30842490   1.577   5.596   7.777  0.1258 -0.2932  0.4734
  132MOL   C30942491   1.518   5.712   7.828  0.9535 -0.1408  0.2737
  132MOL   C31042492   1.379   5.722   7.851  0.2540  0.3032  1.2533
  132MOL   F31142493   1.319   5.830   7.906  0.2485  0.2904 -0.2596
  132MOL   C31242494   1.300   5.612   7.814  0.0156  0.3653  0.0838
  132MOL   C31342495   1.355   5.500   7.752  0.9659  0.7582  0.8243
  132MOL   C31442496   1.595   5.359   7.539 -0.1101 -0.1522  0.3872
  132MOL   H31542497   1.469   5.293   7.710  0.8370 -0.0581  1.3972
  132MOL   H31642498   1.684   5.578   7.769  0.5120  1.3902  1.5007
  132MOL   H31742499   1.581   5.796   7.852 -2.0630  1.7240  2.0403
  132MOL   H31842500   1.193   5.616   7.819  0.0411  2.2131 -0.4146
  132MOL   H31942501   1.287   5.420   7.728  1.9163 -0.2443  1.4300
  132MOL   H32042502   1.510   5.371   7.472 -1.6595  0.7966  2.4641
  132MOL   H32142503   1.671   5.434   7.519 -0.3298 -0.1224 -0.3376
  132MOL   H32242504   1.641   5.262   7.520  0.2653  0.1941 -0.4708
  133MOL     C142505   8.025   1.054   0.192  0.1169  0.1345  0.5608
  133MOL     C242506   7.974   1.181   0.126  0.2855  0.2165 -0.2210
  133MOL     C342507   8.032   1.232   0.011 -0.4346  0.6584 -0.1274
  133MOL     C442508   7.987   1.352   8.189 -0.2076 -0.4046 -0.4279
  133MOL     C542509   7.887   1.426   0.023  0.1550 -0.3035 -0.5073
  133MOL     F642510   7.857   1.552   8.223  0.5848 -0.2255 -0.3622
  133MOL     C742511   7.832   1.375   0.147  0.0820  0.1484 -0.0239
  133MOL     C842512   7.875   1.253   0.199 -0.1179 -0.0900  0.7339
  133MOL     C942513   7.919   0.940   0.213 -0.1005 -0.1308  0.1423
  133MOL    H1042514   8.055   1.089   0.291 -2.5018 -0.4056  1.6127
  133MOL    H1142515   8.110   1.185   8.189 -1.9513  1.0571 -2.6045
  133MOL    H1242516   8.031   1.397   8.101 -0.1897  1.3825  0.4690
  133MOL    H1342517   7.767   1.447   0.195  0.2718  1.2475 -1.4083
  133MOL    H1442518   7.835   1.208   0.289  0.2400  0.9842  1.4360
  133MOL    H1542519   7.982   0.861   0.254 -0.4315 -0.2986  0.3229
  133MOL    H1642520   7.844   0.957   0.290 -1.6147 -0.6675 -1.1929
  133MOL    H1742521   8.108   1.023   0.129  0.6264 -1.4157  1.9587
  133MOL    C1842522   7.843   0.899   0.094 -0.6301 -0.7369  0.4881
  133MOL    C1942523   7.924   0.862   8.202 -0.0176 -0.2970  0.1812
  133MOL    C2042524   8.042   0.788   8.214 -1.0613 -0.1489 -0.7464
  133MOL    C2142525   8.116   0.745   8.102 -0.4833  0.2405 -0.4824
  133MOL    C2242526   8.080   0.782   7.976 -0.2481  0.2586 -0.0578
  133MOL    F2342527   8.157   0.746   7.867 -0.2046  0.0650  0.1082
  133MOL    C2442528   7.965   0.860   7.959 -0.3450  0.0319  0.0259
  133MOL    C2542529   7.880   0.896   8.071 -0.3162  0.4013 -0.7562
  133MOL    C2642530   7.764   0.771   0.132  0.3939  0.5496  0.1700
  133MOL    H2742531   7.775   0.982   0.080  0.0361 -0.1799  0.5475
  133MOL    H2842532   8.083   0.766   0.077 -2.4466  1.2416  0.1725
  133MOL    H2942533   8.202   0.683   8.124  0.6355  2.0855  0.5042
  133MOL    H3042534   7.945   0.892   7.858 -1.5833  1.0022  0.5527
  133MOL    H3142535   7.786   0.944   8.049  0.4974  1.9794 -0.8691
  133MOL    H3242536   7.834   0.695   0.167 -0.3194  0.5718  1.6640
  133MOL    H3342537   7.701   0.790   0.219  1.5425 -0.9804  1.3595
  133MOL    C3442538   7.676   0.708   0.018  0.4040 -0.5575 -0.1167
  133MOL    C3542539   7.615   0.574   0.061  0.2830  0.5480  0.3580
  133MOL    C3642540   7.548   0.553   0.182  0.6606  0.6365  0.5304
  133MOL    C3742541   7.468   0.439   0.212  0.1346  0.5799  0.3867
  133MOL    C3842542   7.477   0.334   0.112  0.2387  0.7383 -0.4991
  133MOL    F3942543   7.437   0.205   0.137  0.0959  0.3716 -0.1656
  133MOL    C4042544   7.544   0.349   8.226 -0.0393  0.2350  0.4099
  133MOL    C4142545   7.614   0.467   8.203  1.0754  0.0807 -0.2717
  133MOL    C4242546   7.568   0.809   8.201  0.4352  0.2011 -0.0649
  133MOL    H4342547   7.729   0.690   8.159 -0.1234  0.3197 -0.5928
  133MOL    H4442548   7.552   0.633   0.254  0.6801  0.7626  0.3880
  133MOL    H4542549   7.428   0.419   0.310  1.9689 -0.5344  0.9158
  133MOL    H4642550   7.557   0.263   8.162 -0.9821 -0.5734  1.2708
  133MOL    H4742551   7.670   0.478   8.111  3.3101  0.0975  1.0521
  133MOL    H4842552   7.495   0.821   0.047 -0.8428  2.4759 -1.5172
  133MOL    H4942553   7.615   0.905   8.179  1.7527 -0.0971  1.3210
  133MOL    C5042554   7.486   0.743   8.079  0.2818 -0.1085  0.3104
  133MOL    C5142555   7.344   0.804   8.071 -0.6804  0.0295 -0.1256
  133MOL    C5242556   7.237   0.749   8.149  0.4099 -0.1003 -0.0257
  133MOL    C5342557   7.107   0.809   8.142 -0.2910 -1.1251 -1.1709
  133MOL    C5442558   7.084   0.909   8.047 -0.5166 -0.1615 -0.1406
  133MOL    F5542559   6.962   0.960   8.035 -0.2848 -0.3157 -0.0099
  133MOL    C5642560   7.181   0.955   7.960 -0.6499 -0.2081 -0.1461
  133MOL    C5742561   7.315   0.909   7.980  0.1349  0.8652 -0.5016
  133MOL    C5842562   7.572   0.753   7.951 -0.6834  0.7630  0.2938
  133MOL    H5942563   7.472   0.637   8.098  0.7919 -0.2062  0.1294
  133MOL    H6042564   7.251   0.662   8.212  0.6126 -0.6215 -0.7749
  133MOL    H6142565   7.018   0.776   8.195  0.9420  0.7919  2.2317
  133MOL    H6242566   7.157   1.036   7.893  0.9464  0.9953  0.7082
  133MOL    H6342567   7.388   0.950   7.911 -0.4701  0.6095 -1.2985
  133MOL    H6442568   7.598   0.857   7.933  1.7329  0.3901  1.3262
  133MOL    H6542569   7.668   0.708   7.977 -0.3647  1.1245 -0.2434
  133MOL    C6642570   7.513   0.673   7.827 -0.3558  0.0515 -0.4527
  133MOL    C6742571   7.579   0.708   7.700  0.1673 -0.2926 -0.5290
  133MOL    C6842572   7.502   0.735   7.585  0.2608  0.6791 -0.1622
  133MOL    C6942573   7.566   0.774   7.467 -0.6620 -0.1344 -0.3827
  133MOL    C7042574   7.713   0.778   7.462  0.3407 -0.1006 -0.0023
  133MOL    F7142575   7.767   0.824   7.344 -0.5118 -0.5930 -1.0080
  133MOL    C7242576   7.791   0.751   7.574  0.6493  0.7440  0.5453
  133MOL    C7342577   7.720   0.707   7.691 -0.1406 -0.1650  0.4174
  133MOL    C7442578   7.513   0.519   7.833  0.6731  0.5435 -0.6065
  133MOL    H7542579   7.412   0.715   7.821 -1.4093 -2.4592 -1.0332
  133MOL    H7642580   7.394   0.733   7.588  0.2883 -2.3855  0.4995
  133MOL    H7742581   7.502   0.796   7.384  0.5458 -0.5615 -1.4443
  133MOL    H7842582   7.898   0.760   7.574  0.5999  1.3844  0.7359
  133MOL    H7942583   7.787   0.662   7.762 -0.3413 -1.1454 -0.0007
  133MOL    H8042584   7.612   0.480   7.811  1.3668  1.3079  1.1129
  133MOL    H8142585   7.507   0.488   7.937  2.9027  1.2529 -0.2343
  133MOL    C8242586   7.396   0.448   7.757  0.2803 -0.0382 -0.3989
  133MOL    C8342587   7.425   0.304   7.722 -0.4228 -0.6579 -0.7980
  133MOL    C8442588   7.383   0.247   7.594 -0.2092  0.0647 -1.0994
  133MOL    C8542589   7.430   0.120   7.555  0.1377 -0.1906 -0.5255
  133MOL    C8642590   7.502   0.047   7.645 -0.5962 -0.2177 -0.0257
  133MOL    F8742591   7.544   8.161   7.593 -0.1184  0.1748 -0.1793
  133MOL    C8842592   7.537   0.093   7.769  0.0955  0.0728 -0.2031
  133MOL    C8942593   7.498   0.217   7.811 -0.4219 -0.7106 -0.5784
  133MOL    C9042594   7.269   0.461   7.835  0.6073  0.3691 -0.4628
  133MOL    H9142595   7.386   0.507   7.666  0.4976  0.5462 -0.0476
  133MOL    H9242596   7.333   0.313   7.525 -1.3090  1.3658  0.8714
  133MOL    H9342597   7.403   0.079   7.459  1.9227 -0.8994 -0.7452
  133MOL    H9442598   7.595   0.028   7.833 -1.8576 -1.5875 -0.0260
  133MOL    H9542599   7.534   0.258   7.904  0.6070 -0.1817 -1.1971
  133MOL    H9642600   7.272   0.390   7.919 -0.2467  1.8871  0.8734
  133MOL    H9742601   7.271   0.556   7.887  0.3847  0.4503 -0.6042
  133MOL    C9842602   7.145   0.473   7.750  0.0004  0.2313 -0.3954
  133MOL    C9942603   7.028   0.402   7.808  0.3370 -0.8208 -0.6082
  133MOL   C10042604   6.997   0.267   7.781 -0.5056  0.4301  0.5545
  133MOL   C10142605   6.881   0.205   7.832  0.6290  0.3474  0.4224
  133MOL   C10242606   6.795   0.283   7.916 -0.2182  0.2941  0.5246
  133MOL   F10342607   6.677   0.230   7.957 -0.2808 -0.1395 -0.0217
  133MOL   C10442608   6.843   0.409   7.965 -0.2978  0.4680 -0.3108
  133MOL   C10542609   6.962   0.470   7.912 -0.5740 -0.1273  0.0759
  133MOL   C10642610   7.116   0.617   7.697  0.2078 -0.3822  0.2064
  133MOL   H10742611   7.166   0.411   7.662 -1.4113 -0.5838 -0.1717
  133MOL   H10842612   7.068   0.198   7.739 -0.8963 -0.8992  2.0328
  133MOL   H10942613   6.864   0.101   7.810 -3.4352  0.5955  1.9790
  133MOL   H11042614   6.778   0.457   8.036 -0.5617 -1.4587  0.7852
  133MOL   H11142615   6.980   0.575   7.933 -0.7859  0.1230 -0.9847
  133MOL   H11242616   7.069   0.677   7.775  2.2473  0.1142  1.0739
  133MOL   H11342617   7.212   0.660   7.669  0.2911 -0.5849  0.1872
  133MOL   C11442618   7.030   0.629   7.568 -0.7549  0.3743 -0.5785
  133MOL   C11542619   7.098   0.573   7.439 -0.2864  0.0290 -0.4222
  133MOL   C11642620   7.174   0.657   7.355 -0.0486  0.5983 -0.3822
  133MOL   C11742621   7.231   0.613   7.236 -0.0373  0.1048  0.0027
  133MOL   C11842622   7.217   0.481   7.195 -0.1895  0.1476 -0.7432
  133MOL   F11942623   7.264   0.433   7.078 -0.1608  0.1186  0.2612
  133MOL   C12042624   7.144   0.393   7.278  0.1491  0.0905  0.5604
  133MOL   C12142625   7.073   0.438   7.392  0.7840 -0.1135 -0.5869
  133MOL   C12242626   6.876   0.597   7.576  0.0694 -0.2495 -0.4277
  133MOL   H12342627   7.035   0.737   7.554 -0.9163  0.5959  1.0244
  133MOL   H12442628   7.197   0.758   7.387  2.7695 -0.2843  0.5572
  133MOL   H12542629   7.280   0.681   7.168  0.5924 -0.8047 -0.4557
  133MOL   H12642630   7.134   0.291   7.244  2.5089  0.0655 -0.0859
  133MOL   H12742631   7.015   0.371   7.453 -0.4734  1.1623 -0.3704
  133MOL   H12842632   6.875   0.489   7.591 -1.5601 -0.0757  0.7223
  133MOL   H12942633   6.825   0.633   7.665 -0.2709 -2.5342  0.3271
  133MOL   C13042634   6.789   0.618   7.445 -0.9287  0.0774 -1.0165
  133MOL   C13142635   6.667   0.521   7.433 -0.3885 -0.5441 -0.0916
  133MOL   C13242636   6.671   0.422   7.334  0.1280 -0.6191  0.9977
  133MOL   C13342637   6.566   0.335   7.316 -0.6317  0.2895 -0.0597
  133MOL   C13442638   6.455   0.349   7.397  0.2581  0.0705  0.1952
  133MOL   F13542639   6.349   0.265   7.384  0.1006 -0.2205 -0.0078
  133MOL   C13642640   6.453   0.455   7.497  0.1654  0.1696 -0.5401
  133MOL   C13742641   6.558   0.541   7.517 -0.7198  0.3892  0.4223
  133MOL   C13842642   6.753   0.770   7.430  0.4296 -0.7318 -1.2301
  133MOL   H13942643   6.852   0.592   7.359 -3.3667 -1.3901 -2.4118
  133MOL   H14042644   6.759   0.422   7.271  0.4308  0.8403  1.4020
  133MOL   H14142645   6.561   0.253   7.246 -2.1302 -2.4234  3.1099
  133MOL   H14242646   6.362   0.462   7.555  1.0670 -1.0006  1.0509
  133MOL   H14342647   6.552   0.622   7.587  0.9363 -0.0597  1.1076
  133MOL   H14442648   6.699   0.801   7.520  3.6739  0.4844  0.3728
  133MOL   H14542649   6.848   0.823   7.444 -0.5747  1.3154 -1.9042
  133MOL   C14642650   6.683   0.809   7.303  0.1991 -0.4237 -0.1450
  133MOL   C14742651   6.529   0.786   7.304 -0.8639 -0.0907  0.5899
  133MOL   C14842652   6.450   0.849   7.400 -1.4499 -0.9673  0.1713
  133MOL   C14942653   6.307   0.831   7.387 -0.5085 -0.1445 -0.0139
  133MOL   C15042654   6.254   0.739   7.297 -0.1340  0.5401  0.5080
  133MOL   F15142655   6.126   0.702   7.299  0.1761 -0.0122 -0.4063
  133MOL   C15242656   6.336   0.672   7.200  0.3580 -0.3394 -0.4724
  133MOL   C15342657   6.475   0.706   7.201  0.6691  0.7250 -0.0343
  133MOL   C15442658   6.703   0.957   7.265 -0.0585 -0.7198  0.3916
  133MOL   H15542659   6.723   0.736   7.232 -0.0447 -0.3597 -0.3478
  133MOL   H15642660   6.494   0.917   7.473  0.3185  1.1663 -2.7617
  133MOL   H15742661   6.248   0.877   7.465 -0.7789 -0.8101  0.1817
  133MOL   H15842662   6.294   0.596   7.136 -1.1212 -0.4754  0.6359
  133MOL   H15942663   6.537   0.658   7.127  2.0554 -0.9734  2.1848
  133MOL   H16042664   6.636   0.993   7.187 -0.2569  0.4132  1.0654
  133MOL   H16142665   6.684   1.019   7.353  0.6832  0.3189 -0.1660
  133MOL   C16242666   6.858   0.985   7.225 -0.2826  0.7798 -0.1742
  133MOL   C16342667   6.900   0.922   7.094 -0.0403 -0.3408  0.0824
  133MOL   C16442668   6.961   0.796   7.092  0.0592  0.1514  0.0281
  133MOL   C16542669   7.010   0.747   6.966  0.0108  0.3744 -0.2316
  133MOL   C16642670   6.999   0.817   6.849 -0.1604 -0.0497 -0.5141
  133MOL   F16742671   7.047   0.771   6.732  0.5782  0.1911 -0.2013
  133MOL   C16842672   6.926   0.938   6.848 -0.2611 -0.0733  0.1623
  133MOL   C16942673   6.875   0.986   6.969 -0.3600 -0.1391 -0.2412
  133MOL   C17042674   6.870   1.143   7.225 -0.8114 -0.3524 -0.4145
  133MOL   H17142675   6.919   0.931   7.297 -2.7643  0.1833  1.5726
  133MOL   H17242676   6.971   0.738   7.183 -0.1929  0.8024  0.4755
  133MOL   H17342677   7.064   0.654   6.965 -0.5758  0.0215 -2.4151
  133MOL   H17442678   6.900   0.981   6.752  0.0594 -1.1767 -0.4185
  133MOL   H17542679   6.810   1.072   6.968  2.2782  1.9416  0.5057
  133MOL   H17642680   6.958   1.168   7.167 -0.5263 -0.5882 -0.0851
  133MOL   H17742681   6.793   1.187   7.162  0.7144 -2.1380 -3.5965
  133MOL   C17842682   6.891   1.217   7.356 -0.2743  0.8048  0.0116
  133MOL   C17942683   6.999   1.150   7.438  0.0067 -0.7044  0.2906
  133MOL   C18042684   7.132   1.152   7.394  0.3615  1.1980 -0.1386
  133MOL   C18142685   7.231   1.082   7.471 -0.0077 -0.0937 -0.1655
  133MOL   C18242686   7.192   1.002   7.584  0.1428 -0.3737  0.0485
  133MOL   F18342687   7.280   0.927   7.653 -0.3095  0.1078 -0.4513
  133MOL   C18442688   7.060   1.014   7.625 -0.0974 -0.9737 -0.3735
  133MOL   C18542689   6.958   1.083   7.558  0.4880 -0.0822 -0.2466
  133MOL   C18642690   6.914   1.375   7.346  0.7502 -0.0548  0.1143
  133MOL   H18742691   6.795   1.213   7.408 -0.4107  2.1594 -0.1296
  133MOL   H18842692   7.148   1.214   7.307  2.2224 -0.1446 -0.7844
  133MOL   H18942693   7.335   1.077   7.442 -0.4271  1.0774 -1.9587
  133MOL   H19042694   7.038   0.973   7.722 -1.7376 -0.1088 -0.3569
  133MOL   H19142695   6.852   1.087   7.575  0.8434 -0.1939  2.0731
  133MOL   H19242696   7.015   1.405   7.319  1.3464 -0.2852  1.9930
  133MOL   H19342697   6.854   1.408   7.261 -0.2053  0.4441  0.9617
  133MOL   C19442698   6.842   1.451   7.464 -0.6508  0.4388 -0.9061
  133MOL   C19542699   6.891   1.406   7.606  0.4324 -0.9565  0.0078
  133MOL   C19642700   7.031   1.399   7.631 -0.1645 -0.3567 -0.0067
  133MOL   C19742701   7.084   1.365   7.756  0.3254  0.2037  0.2317
  133MOL   C19842702   6.993   1.319   7.854  0.5402  0.4930 -0.4519
  133MOL   F19942703   7.046   1.276   7.970 -0.6699 -0.1708 -0.2654
  133MOL   C20042704   6.855   1.328   7.830  0.4890  0.2053  0.3438
  133MOL   C20142705   6.805   1.375   7.710  0.0506 -0.2901 -0.1918
  133MOL   C20242706   6.847   1.604   7.457  0.4789  0.3648  0.5104
  133MOL   H20342707   6.736   1.426   7.457 -0.6090  0.4855 -1.8366
  133MOL   H20442708   7.096   1.441   7.555  2.1081 -0.4906  1.8094
  133MOL   H20542709   7.192   1.365   7.762  0.2214 -0.2032  2.8094
  133MOL   H20642710   6.779   1.297   7.901 -0.7530 -1.2719 -1.5723
  133MOL   H20742711   6.703   1.379   7.674  0.5168 -1.4181 -1.7080
  133MOL   H20842712   6.891   1.638   7.550  2.3663 -0.3058 -0.1132
  133MOL   H20942713   6.919   1.633   7.380 -0.5267 -0.0325 -0.5878
  133MOL   C21042714   6.720   1.683   7.432 -0.2255 -0.3530  0.1971
  133MOL   C21142715   6.629   1.679   7.559 -0.3469 -0.2315  0.5018
  133MOL   C21242716   6.525   1.586   7.562  0.5642  0.0458 -0.5534
  133MOL   C21342717   6.454   1.575   7.683 -0.4400 -0.3149  0.6519
  133MOL   C21442718   6.479   1.652   7.796  0.2063 -0.8486 -0.9882
  133MOL   F21542719   6.405   1.635   7.903 -0.4035 -0.3223 -0.7032
  133MOL   C21642720   6.583   1.750   7.787 -0.0105  0.4260 -0.5507
  133MOL   C21742721   6.652   1.767   7.666 -0.7052  0.6574  0.3172
  133MOL   C21842722   6.754   1.832   7.397 -0.2522 -0.4407 -0.3549
  133MOL   H21942723   6.664   1.639   7.349  0.2787  1.0700 -0.9216
  133MOL   H22042724   6.493   1.516   7.487  1.2794 -1.7708  0.8133
  133MOL   H22142725   6.370   1.508   7.686 -1.9195  1.4492 -0.4903
  133MOL   H22242726   6.598   1.823   7.865 -0.3084  0.7418 -0.7869
  133MOL   H22342727   6.714   1.855   7.669  1.3793 -0.6462 -2.1027
  133MOL   H22442728   6.677   1.893   7.445 -1.8140 -1.1341 -1.9558
  133MOL   H22542729   6.838   1.874   7.454 -0.4067 -1.0723  0.3485
  133MOL   C22642730   6.750   1.880   7.249  0.3025 -0.1956 -0.1984
  133MOL   C22742731   6.618   1.841   7.180  0.3670 -0.4895  0.5872
  133MOL   C22842732   6.596   1.709   7.126  0.1735 -0.6016 -0.7149
  133MOL   C22942733   6.477   1.676   7.060 -0.0695  0.4622 -0.2111
  133MOL   C23042734   6.380   1.783   7.042  0.4844  0.6647 -1.0051
  133MOL   F23142735   6.263   1.739   6.985  0.4802  0.2687  0.0092
  133MOL   C23242736   6.398   1.905   7.100  0.5592  1.1083  0.3212
  133MOL   C23342737   6.514   1.937   7.173  0.0881  0.0543 -0.7948
  133MOL   C23442738   6.795   2.033   7.238  0.1345 -0.2189  0.3241
  133MOL   H23542739   6.818   1.817   7.191  0.5950  0.0582 -0.1291
  133MOL   H23642740   6.668   1.629   7.118 -0.8820 -1.4067 -2.5694
  133MOL   H23742741   6.463   1.581   7.010 -0.2201 -0.2299  1.1158
  133MOL   H23842742   6.329   1.986   7.081 -0.8249 -0.0121  0.4973
  133MOL   H23942743   6.537   2.038   7.201  1.2680 -0.9428  2.0006
  133MOL   H24042744   6.772   2.083   7.144  0.1793 -0.1004  0.3759
  133MOL   H24142745   6.730   2.083   7.311 -0.0681  0.5275 -0.3668
  133MOL   C24242746   6.946   2.063   7.263 -0.3388  0.1199  0.3811
  133MOL   C24342747   7.043   2.008   7.155 -0.3897 -0.0326  0.1527
  133MOL   C24442748   7.010   2.024   7.021  0.4087 -0.4590 -0.3476
  133MOL   C24542749   7.099   1.977   6.923  0.2496  0.5531  0.1992
  133MOL   C24642750   7.212   1.902   6.958 -0.1957 -0.0514 -0.2129
  133MOL   F24742751   7.293   1.844   6.857 -0.3743 -0.5583 -0.1251
  133MOL   C24842752   7.241   1.879   7.094 -0.6114 -0.1854  0.0756
  133MOL   C24942753   7.165   1.935   7.191  0.1264  0.7887  0.3003
  133MOL   C25042754   6.972   2.211   7.290 -0.1818 -0.3825 -0.4561
  133MOL   H25142755   6.975   2.009   7.353  1.1657  0.0833 -0.0968
  133MOL   H25242756   6.923   2.078   6.986  0.4195  0.8838  1.6309
  133MOL   H25342757   7.069   1.979   6.819 -0.8533  0.1630  0.5032
  133MOL   H25442758   7.320   1.811   7.122 -1.0159  0.0221  1.7663
  133MOL   H25542759   7.205   1.915   7.289  1.1990  0.2414 -0.2458
  133MOL   H25642760   7.080   2.225   7.282 -0.1144 -0.7693 -0.2313
  133MOL   H25742761   6.917   2.270   7.216 -0.5646  0.3943  0.4298
  133MOL   C25842762   6.932   2.276   7.425  0.3616  0.1817 -0.5774
  133MOL   C25942763   6.971   2.192   7.548  0.3091 -0.0709 -0.0202
  133MOL   C26042764   6.869   2.164   7.647 -0.4825 -0.6693 -0.2251
  133MOL   C26142765   6.898   2.090   7.760 -0.1577  0.4220 -0.7581
  133MOL   C26242766   7.027   2.030   7.767  0.4337 -0.0088  0.3537
  133MOL   F26342767   7.038   1.938   7.867 -0.1183  0.0374 -0.1589
  133MOL   C26442768   7.123   2.056   7.667  0.4227 -0.3314 -0.8224
  133MOL   C26542769   7.098   2.139   7.564 -0.0902 -0.1403  0.4139
  133MOL   C26642770   6.988   2.423   7.439 -0.6124  0.5692  0.7253
  133MOL   H26742771   6.824   2.281   7.421  0.4036  1.0448 -0.6583
  133MOL   H26842772   6.767   2.198   7.630  0.2399  1.4017 -0.5749
  133MOL   H26942773   6.828   2.074   7.841  0.1682  0.4613 -0.4661
  133MOL   H27042774   7.218   2.005   7.669  0.1993 -0.7915 -1.7355
  133MOL   H27142775   7.174   2.152   7.488  1.2807  0.1618  1.8198
  133MOL   H27242776   6.955   2.463   7.534 -1.9716  1.7758 -0.2223
  133MOL   H27342777   7.097   2.428   7.441 -0.4831 -0.7173 -1.3969
  133MOL   C27442778   6.933   2.517   7.331 -0.3964 -0.0886 -0.5454
  133MOL   C27542779   6.783   2.508   7.318  0.7477 -0.1736 -0.6023
  133MOL   C27642780   6.720   2.460   7.199 -0.3507 -0.2143 -0.4088
  133MOL   C27742781   6.581   2.463   7.184 -0.8616  0.3332 -0.2686
  133MOL   C27842782   6.503   2.509   7.289 -0.2726  0.5505  0.2641
  133MOL   F27942783   6.375   2.493   7.273 -0.1249 -0.0744 -0.0872
  133MOL   C28042784   6.563   2.537   7.417  0.0640  0.5669  0.2355
  133MOL   C28142785   6.702   2.529   7.434  0.8428  0.0248  0.3168
  133MOL   C28242786   6.970   2.661   7.370  0.0535 -0.9693 -0.0735
  133MOL   H28342787   6.977   2.488   7.235 -0.4933 -2.0422 -0.0337
  133MOL   H28442788   6.778   2.442   7.109 -1.2124  1.2808 -1.2766
  133MOL   H28542789   6.536   2.442   7.088 -3.1876  3.0072  0.1669
  133MOL   H28642790   6.497   2.564   7.498 -1.9249 -0.8803 -0.8293
  133MOL   H28742791   6.749   2.565   7.524 -0.1274  0.7287  0.5511
  133MOL   H28842792   6.918   2.731   7.304 -2.4012 -0.5111  2.2424
  133MOL   H28942793   6.926   2.692   7.465  1.2133  3.1495 -0.7844
  133MOL   C29042794   7.120   2.696   7.368 -0.1661  0.2918 -0.0191
  133MOL   C29142795   7.197   2.661   7.241 -0.1697 -1.2202  0.2836
  133MOL   C29242796   7.165   2.726   7.124 -0.0097  0.1363  0.1502
  133MOL   C29342797   7.235   2.714   7.008  0.1814 -0.0927  0.3514
  133MOL   C29442798   7.340   2.620   7.004  0.5801 -0.0785 -0.0621
  133MOL   F29542799   7.410   2.603   6.894  0.1932 -0.3799 -0.1251
  133MOL   C29642800   7.366   2.535   7.114  0.5623  0.2351 -1.0811
  133MOL   C29742801   7.299   2.563   7.235 -0.2466 -0.3666 -0.6453
  133MOL   C29842802   7.137   2.843   7.415 -0.2875 -0.3057 -0.4375
  133MOL   H29942803   7.165   2.641   7.451  0.9175 -0.0908 -0.8553
  133MOL   H30042804   7.082   2.796   7.123  0.2464  0.4663  1.0211
  133MOL   H30142805   7.214   2.782   6.926  2.3812 -0.2255 -0.3833
  133MOL   H30242806   7.445   2.461   7.119 -0.0075 -0.2678  1.4443
  133MOL   H30342807   7.325   2.504   7.322 -0.1134 -2.0850 -1.8445
  133MOL   H30442808   7.235   2.880   7.382 -0.5966 -0.5402 -1.6420
  133MOL   H30542809   7.074   2.900   7.348  0.4132 -0.7586 -1.4956
  133MOL   C30642810   7.099   2.885   7.560 -0.3032  0.8335  0.6323
  133MOL   C30742811   7.176   2.821   7.669 -0.1038  0.6118 -0.4445
  133MOL   C30842812   7.304   2.773   7.633  0.6622  0.4145 -0.1521
  133MOL   C30942813   7.388   2.718   7.727  0.6744  0.7469 -0.1052
  133MOL   C31042814   7.352   2.716   7.867 -0.4668  0.5432  0.2348
  133MOL   F31142815   7.434   2.663   7.965 -0.0607 -0.0037 -0.2024
  133MOL   C31242816   7.231   2.771   7.902 -0.1158  0.0280  0.7171
  133MOL   C31342817   7.144   2.826   7.808  0.3668  0.6786 -0.4845
  133MOL   C31442818   7.094   3.035   7.569 -0.1100  0.1865  0.3428
  133MOL   H31542819   7.001   2.847   7.586 -0.3842 -0.3634 -1.3298
  133MOL   H31642820   7.333   2.785   7.530 -0.0106  2.4260 -0.1369
  133MOL   H31742821   7.484   2.671   7.712 -0.5791 -1.4448 -1.7461
  133MOL   H31842822   7.205   2.775   8.006  0.1778  0.1372  0.7851
  133MOL   H31942823   7.050   2.869   7.838 -1.1347 -3.5442  1.3036
  133MOL   H32042824   7.055   3.071   7.664 -0.8666 -2.6752  1.1603
  133MOL   H32142825   7.198   3.068   7.565  0.2120 -0.9749 -1.2388
  133MOL   H32242826   7.050   3.081   7.480  0.4565  0.1274  0.0262
  134MOL     C142827   6.698   1.830   3.289 -0.0863  0.4871 -0.0157
  134MOL     C242828   6.747   1.872   3.147  0.4142 -0.3385 -0.5691
  134MOL     C342829   6.704   1.998   3.096  0.7998  0.6096  0.0688
  134MOL     C442830   6.749   2.042   2.970  0.5431 -0.3052  0.3355
  134MOL     C542831   6.852   1.978   2.906 -0.5632  0.2094 -0.8281
  134MOL     F642832   6.898   2.035   2.795  0.0483  0.3658  0.7694
  134MOL     C742833   6.891   1.851   2.958 -0.5503 -0.1415 -0.5134
  134MOL     C842834   6.834   1.798   3.074 -0.2380 -0.3426  0.1666
  134MOL     C942835   6.676   1.934   3.395 -0.2864  0.0527  0.5365
  134MOL    H1042836   6.761   1.748   3.321 -1.5552 -1.5705 -2.2155
  134MOL    H1142837   6.629   2.052   3.152 -0.1774 -1.8995  1.2669
  134MOL    H1242838   6.706   2.134   2.933  0.6625 -0.1981  0.4663
  134MOL    H1342839   6.967   1.799   2.902 -0.0211  2.0238 -1.8880
  134MOL    H1442840   6.878   1.705   3.104  1.7305  0.5427  0.0842
  134MOL    H1542841   6.777   1.969   3.416 -0.4060 -0.1167  1.3958
  134MOL    H1642842   6.629   2.026   3.361 -0.0137 -0.1529 -0.4188
  134MOL    H1742843   6.601   1.783   3.271 -1.0339  2.0757  0.8143
  134MOL    C1842844   6.612   1.879   3.524 -0.6325 -0.2365 -0.2619
  134MOL    C1942845   6.669   1.744   3.575  0.2703 -0.3273 -0.0772
  134MOL    C2042846   6.802   1.720   3.598 -0.3592 -0.5522 -0.1163
  134MOL    C2142847   6.855   1.597   3.638 -0.2597 -0.5340 -0.4549
  134MOL    C2242848   6.765   1.499   3.676 -0.0602  0.4797  0.3857
  134MOL    F2342849   6.807   1.376   3.712 -0.0832  0.1397  0.1816
  134MOL    C2442850   6.628   1.518   3.653 -0.0953  0.4016  0.4752
  134MOL    C2542851   6.575   1.638   3.602 -0.6586 -0.5277 -0.0481
  134MOL    C2642852   6.626   1.993   3.626 -0.2177 -0.6034 -0.1435
  134MOL    H2742853   6.507   1.854   3.514 -0.3952 -1.5323  0.3229
  134MOL    H2842854   6.869   1.804   3.591 -0.3524 -0.2735  2.8296
  134MOL    H2942855   6.962   1.588   3.646 -0.2707  1.0419  1.9463
  134MOL    H3042856   6.573   1.432   3.689  1.2956 -0.3534  0.8411
  134MOL    H3142857   6.468   1.640   3.590 -0.6752 -3.3785 -0.6019
  134MOL    H3242858   6.572   1.957   3.714 -0.4643  0.7881  0.2913
  134MOL    H3342859   6.724   2.012   3.668  0.3084 -4.0751  0.3197
  134MOL    C3442860   6.554   2.127   3.590  0.3705 -0.3898  0.0046
  134MOL    C3542861   6.422   2.113   3.516  0.4548  0.2848  0.7930
  134MOL    C3642862   6.409   2.143   3.379  0.1684 -0.7281  0.5490
  134MOL    C3742863   6.283   2.130   3.312  0.7590  0.9481 -0.8809
  134MOL    C3842864   6.172   2.075   3.383  0.5453  0.0093 -0.3981
  134MOL    F3942865   6.050   2.064   3.324  0.5502  0.1020 -0.4808
  134MOL    C4042866   6.185   2.052   3.519  0.0661  0.3189  0.1213
  134MOL    C4142867   6.310   2.061   3.577 -0.3739 -0.2642 -0.2283
  134MOL    C4242868   6.549   2.214   3.714 -0.2751 -1.1711 -0.4192
  134MOL    H4342869   6.622   2.183   3.526 -0.7816 -0.9665 -1.7507
  134MOL    H4442870   6.490   2.195   3.330  0.2108 -0.7053  0.6434
  134MOL    H4542871   6.265   2.173   3.214 -0.8722  0.6501 -0.7171
  134MOL    H4642872   6.102   2.008   3.572  1.3482  0.4801  2.3611
  134MOL    H4742873   6.319   2.036   3.682 -1.8524  1.7899  0.4218
  134MOL    H4842874   6.500   2.147   3.785 -0.9571 -1.6349 -1.3208
  134MOL    H4942875   6.649   2.242   3.748 -0.1190 -1.1374 -0.9034
  134MOL    C5042876   6.463   2.341   3.697 -0.1352  0.2735 -0.1981
  134MOL    C5142877   6.383   2.381   3.816 -0.1445 -1.3540 -0.0839
  134MOL    C5242878   6.399   2.499   3.892  0.3572 -0.1043 -0.1829
  134MOL    C5342879   6.312   2.532   4.003 -0.0485  0.0507  0.4075
  134MOL    C5442880   6.220   2.435   4.041  0.0077  0.0250  0.1264
  134MOL    F5542881   6.160   2.454   4.159 -0.5194 -0.9094 -0.5230
  134MOL    C5642882   6.195   2.323   3.960 -0.6831  0.7695 -0.0614
  134MOL    C5742883   6.277   2.304   3.846  0.5066 -0.2046  0.7494
  134MOL    C5842884   6.535   2.452   3.625 -0.1922  0.6037 -0.1170
  134MOL    H5942885   6.386   2.310   3.626  1.1752 -0.4985 -1.2988
  134MOL    H6042886   6.482   2.561   3.861 -1.6117  1.4881 -2.4806
  134MOL    H6142887   6.326   2.615   4.071  1.4564 -0.3931  0.6579
  134MOL    H6242888   6.114   2.256   3.983  0.8861 -1.5574 -1.0946
  134MOL    H6342889   6.237   2.224   3.787  0.6045 -1.8353  2.8269
  134MOL    H6442890   6.628   2.471   3.678 -0.1284  0.9897 -0.3676
  134MOL    H6542891   6.569   2.406   3.532 -1.8789 -1.5142  0.2682
  134MOL    C6642892   6.458   2.572   3.577 -0.0399  0.4095  1.0872
  134MOL    C6742893   6.552   2.693   3.552 -0.3424  0.3197  0.3245
  134MOL    C6842894   6.561   2.788   3.651  0.1308 -0.0489 -0.1388
  134MOL    C6942895   6.643   2.902   3.633 -0.0106 -0.6160  0.0094
  134MOL    C7042896   6.713   2.920   3.513 -0.4267  0.0542 -0.5581
  134MOL    F7142897   6.794   3.026   3.489 -0.0822  0.0432 -0.0016
  134MOL    C7242898   6.698   2.821   3.412 -0.3878  0.6352  0.0472
  134MOL    C7342899   6.618   2.708   3.432 -0.6806  0.3126 -0.1052
  134MOL    C7442900   6.360   2.534   3.462  0.4147  0.0128  0.4561
  134MOL    H7542901   6.391   2.596   3.660 -0.5107 -2.3132  1.5408
  134MOL    H7642902   6.513   2.776   3.746  1.8480  2.7582  1.1342
  134MOL    H7742903   6.649   2.979   3.709  0.7184 -0.6710  0.0102
  134MOL    H7842904   6.757   2.847   3.325 -1.5131  1.3330 -0.5157
  134MOL    H7942905   6.614   2.634   3.354  1.1028 -2.0236  1.9542
  134MOL    H8042906   6.419   2.491   3.381  0.8661  0.2596  0.6516
  134MOL    H8142907   6.293   2.462   3.508  1.3071 -0.8451  0.4328
  134MOL    C8242908   6.288   2.646   3.389  0.3752 -0.3999 -0.1604
  134MOL    C8342909   6.198   2.589   3.279  0.2087 -0.0397  0.3357
  134MOL    C8442910   6.104   2.496   3.321 -0.1354  0.0786  0.2349
  134MOL    C8542911   6.025   2.434   3.224 -0.1581  0.6468 -0.2671
  134MOL    C8642912   6.039   2.456   3.088  0.3198 -1.1149 -0.8491
  134MOL    F8742913   5.965   2.381   2.998 -0.0589 -0.0334  0.4380
  134MOL    C8842914   6.138   2.547   3.041  0.3424 -0.6822 -0.0498
  134MOL    C8942915   6.219   2.612   3.140 -0.3684 -0.0033  0.1923
  134MOL    C9042916   6.210   2.748   3.469 -0.2834  0.1672  0.4430
  134MOL    H9142917   6.368   2.692   3.332  0.5832  0.0253  0.4658
  134MOL    H9242918   6.086   2.476   3.425  0.6264  0.2031  0.3879
  134MOL    H9342919   5.959   2.359   3.264  2.0800 -0.3110  1.7416
  134MOL    H9442920   6.148   2.570   2.936  0.9283 -2.2921 -0.3560
  134MOL    H9542921   6.291   2.686   3.109 -0.6510  2.0703  4.1164
  134MOL    H9642922   6.118   2.702   3.503 -0.5008 -1.2742 -1.9877
  134MOL    H9742923   6.266   2.767   3.561  0.3815 -1.1645  0.3219
  134MOL    C9842924   6.169   2.889   3.403  0.0367  0.3228  0.4119
  134MOL    C9942925   6.098   2.973   3.518 -0.3952 -0.5678  0.5412
  134MOL   C10042926   5.962   2.978   3.522 -0.1037  0.2669 -0.3368
  134MOL   C10142927   5.898   3.067   3.613  0.3303  0.4413  0.3225
  134MOL   C10242928   5.974   3.150   3.701  0.6865  0.4997  0.9295
  134MOL   F10342929   5.916   3.243   3.773  0.0307 -0.4608  0.1646
  134MOL   C10442930   6.115   3.144   3.689  0.0772  0.0464 -0.2226
  134MOL   C10542931   6.178   3.059   3.599 -0.6814  0.3693  0.0175
  134MOL   C10642932   6.295   2.952   3.334 -0.0028  0.0596  0.3128
  134MOL   H10742933   6.093   2.861   3.330  0.2370 -0.8845  0.6466
  134MOL   H10842934   5.897   2.930   3.451 -0.7513  1.2760 -0.4405
  134MOL   H10942935   5.791   3.074   3.608  0.1212 -0.9614  2.3959
  134MOL   H11042936   6.169   3.219   3.745  2.3205 -2.2103  0.7011
  134MOL   H11142937   6.284   3.064   3.579 -0.9422  0.6013 -1.3808
  134MOL   H11242938   6.372   2.959   3.410  3.7139  0.4306 -3.2805
  134MOL   H11342939   6.328   2.890   3.250  0.1227  0.3803  0.1218
  134MOL   C11442940   6.267   3.092   3.272  0.3218 -0.0260 -0.0792
  134MOL   C11542941   6.374   3.190   3.296  0.0057  0.7938  0.4727
  134MOL   C11642942   6.514   3.159   3.283 -0.4126 -0.7268 -0.6181
  134MOL   C11742943   6.613   3.262   3.304  0.5866  0.7001 -0.0724
  134MOL   C11842944   6.568   3.394   3.329 -0.0101  0.0820 -0.4045
  134MOL   F11942945   6.660   3.484   3.362  1.0539  0.0864  0.3903
  134MOL   C12042946   6.433   3.430   3.341 -0.1849  0.3504  0.2479
  134MOL   C12142947   6.336   3.324   3.329 -0.0001  0.4634 -1.3031
  134MOL   C12242948   6.242   3.081   3.114 -0.1132  0.4600  0.1605
  134MOL   H12342949   6.178   3.135   3.317 -0.1489 -0.2728 -0.7729
  134MOL   H12442950   6.553   3.060   3.266  0.2625 -0.6614  0.4651
  134MOL   H12542951   6.718   3.242   3.314  0.1171 -1.5781  0.6120
  134MOL   H12642952   6.409   3.532   3.367 -0.7524  0.5451 -1.0028
  134MOL   H12742953   6.231   3.345   3.340 -0.0435  0.3159 -1.4408
  134MOL   H12842954   6.287   3.173   3.077 -2.4895  2.0458  1.1216
  134MOL   H12942955   6.305   2.998   3.081  0.2466  0.6350  0.3967
  134MOL   C13042956   6.097   3.055   3.073  0.0078  0.4809 -0.5261
  134MOL   C13142957   5.998   3.158   3.123  0.5124  0.7813 -0.5930
  134MOL   C13242958   6.016   3.292   3.079 -0.3725  0.2592  0.0845
  134MOL   C13342959   5.932   3.393   3.123  0.4637  0.3598  0.6187
  134MOL   C13442960   5.827   3.365   3.213  0.5200  0.5358  0.6334
  134MOL   F13542961   5.755   3.472   3.263 -0.1462  0.1837  0.6832
  134MOL   C13642962   5.808   3.233   3.259  0.0467  0.1905 -0.3915
  134MOL   C13742963   5.888   3.127   3.207 -0.3960 -1.1108 -0.4162
  134MOL   C13842964   6.087   3.037   2.919  0.0494  0.3770 -0.5038
  134MOL   H13942965   6.061   2.969   3.131  2.1257 -1.2556 -1.7131
  134MOL   H14042966   6.105   3.306   3.019  0.1871  1.5432  1.1941
  134MOL   H14142967   5.957   3.493   3.091 -0.2105  0.8136  1.4822
  134MOL   H14242968   5.729   3.202   3.326  0.4055 -1.1961 -0.5815
  134MOL   H14342969   5.873   3.022   3.226  1.0808 -0.9322  1.8526
  134MOL   H14442970   6.121   3.124   2.862  0.6188  1.4446  1.4123
  134MOL   H14542971   6.146   2.952   2.887 -0.1652 -0.2566  0.7375
  134MOL   C14642972   5.944   3.004   2.864 -1.3545  0.4245 -0.3262
  134MOL   C14742973   5.921   3.043   2.719  0.2374  0.1226 -0.4226
  134MOL   C14842974   5.973   2.971   2.610 -0.2299  0.0661 -0.3318
  134MOL   C14942975   5.953   3.014   2.485  0.2580 -0.2164 -0.3378
  134MOL   C15042976   5.871   3.127   2.460  0.3093  0.4494  0.7586
  134MOL   F15142977   5.815   3.157   2.336 -0.4083 -0.1584 -0.2734
  134MOL   C15242978   5.818   3.203   2.561  0.4656  0.3077 -0.3187
  134MOL   C15342979   5.848   3.164   2.691  0.2452  0.5433 -0.4422
  134MOL   C15442980   5.894   2.857   2.890  0.2896 -0.1252 -0.0507
  134MOL   H15542981   5.876   3.071   2.916 -1.3207  0.6861 -0.6179
  134MOL   H15642982   6.027   2.879   2.623  0.5443  0.7176  1.2206
  134MOL   H15742983   5.980   2.959   2.397 -1.3630  0.1691 -1.1022
  134MOL   H15842984   5.766   3.294   2.536  0.1555  0.2725  0.1940
  134MOL   H15942985   5.809   3.226   2.770 -3.0850 -0.0221 -1.5625
  134MOL   H16042986   5.951   2.791   2.824 -0.3956 -0.5378 -0.2293
  134MOL   H16142987   5.914   2.812   2.987  1.0439 -0.1345 -0.2017
  134MOL   C16242988   5.748   2.824   2.854  0.2688 -0.2597  0.1017
  134MOL   C16342989   5.715   2.687   2.815  1.1394  0.4234 -0.6554
  134MOL   C16442990   5.658   2.658   2.688  0.0885  0.7713  0.8559
  134MOL   C16542991   5.622   2.524   2.659 -0.3697  0.7345 -0.2176
  134MOL   C16642992   5.644   2.421   2.746  0.3103 -0.1958 -0.0565
  134MOL   F16742993   5.617   2.292   2.719  0.0580 -0.1104 -0.4016
  134MOL   C16842994   5.713   2.448   2.863  0.4655 -0.1637 -0.4813
  134MOL   C16942995   5.740   2.577   2.904 -0.1316 -0.9550  0.1152
  134MOL   C17042996   5.658   2.904   2.949 -0.5218  0.2578 -0.1184
  134MOL   H17142997   5.729   2.877   2.761  0.2994 -0.0124  0.2345
  134MOL   H17242998   5.635   2.728   2.608 -0.7835  1.6371  1.8535
  134MOL   H17342999   5.576   2.505   2.563  1.5416  0.4894 -1.0970
  134MOL   H17443000   5.742   2.361   2.920 -2.0068 -1.1208 -0.5946
  134MOL   H17543001   5.797   2.587   2.996 -0.9796 -0.8311  0.6357
  134MOL   H17643002   5.698   2.885   3.048 -0.8387 -0.0062 -0.0376
  134MOL   H17743003   5.677   3.010   2.935  2.7282 -0.2905 -0.0998
  134MOL   C17843004   5.508   2.880   2.970 -1.1082  0.3885  0.2559
  134MOL   C17943005   5.462   2.947   3.096 -0.2831  0.1951  0.0654
  134MOL   C18043006   5.398   2.873   3.194 -0.7084 -0.2670  0.3601
  134MOL   C18143007   5.332   2.935   3.301 -0.5062  0.3826  0.7750
  134MOL   C18243008   5.344   3.075   3.325 -0.4571  0.6070 -0.1077
  134MOL   F18343009   5.283   3.130   3.426  0.1992  0.0915  0.0466
  134MOL   C18443010   5.413   3.153   3.226  0.7321 -0.2963 -0.3739
  134MOL   C18543011   5.470   3.085   3.113  0.1385  0.5127 -0.1047
  134MOL   C18643012   5.417   2.913   2.851 -0.3331  0.3287 -0.3136
  134MOL   H18743013   5.506   2.772   2.985  0.0426  0.4906  1.2267
  134MOL   H18843014   5.381   2.766   3.188 -0.5477 -0.4755  3.2028
  134MOL   H18943015   5.285   2.877   3.380  1.7938  0.9768  2.6332
  134MOL   H19043016   5.411   3.261   3.229  1.6215 -0.1838 -2.7496
  134MOL   H19143017   5.518   3.149   3.040  0.4478  0.3440 -0.0517
  134MOL   H19243018   5.386   3.017   2.862 -0.1574  0.2572  0.8270
  134MOL   H19343019   5.473   2.922   2.757 -1.0993  0.7875 -0.7296
  134MOL   C19443020   5.296   2.824   2.838 -0.0302  0.1427  0.6960
  134MOL   C19543021   5.196   2.884   2.736 -0.1737 -0.1713 -0.0854
  134MOL   C19643022   5.238   2.944   2.613  0.5734 -0.2738 -0.3820
  134MOL   C19743023   5.138   3.010   2.535 -0.0320 -0.4307 -0.1840
  134MOL   C19843024   5.002   2.997   2.563  0.1668 -0.3056  0.2478
  134MOL   F19943025   4.906   3.059   2.491  0.0108  0.0077 -0.1542
  134MOL   C20043026   4.962   2.928   2.681  0.3487  0.0428 -0.1668
  134MOL   C20143027   5.061   2.882   2.769  0.2460 -0.0895  0.3795
  134MOL   C20243028   5.336   2.683   2.795  0.5464 -0.3883 -0.2050
  134MOL   H20343029   5.253   2.816   2.938  3.5127 -1.9437  2.1518
  134MOL   H20443030   5.344   2.948   2.593  0.7929 -1.0251  0.5816
  134MOL   H20543031   5.173   3.067   2.450 -0.5189  0.9032  0.4954
  134MOL   H20643032   4.857   2.923   2.705  0.7920 -0.9674  1.6758
  134MOL   H20743033   5.028   2.837   2.861  1.5131 -0.6144  0.5892
  134MOL   H20843034   5.369   2.683   2.691  0.0655 -0.2948 -0.3580
  134MOL   H20943035   5.431   2.641   2.827  0.2879 -1.3986 -0.7429
  134MOL   C21043036   5.226   2.578   2.797 -0.0439 -0.1911 -0.5017
  134MOL   C21143037   5.209   2.521   2.653  0.3635 -0.0900  0.1516
  134MOL   C21243038   5.282   2.404   2.611  0.5625 -0.0214 -0.2934
  134MOL   C21343039   5.269   2.350   2.482 -0.7203 -0.0858  0.0548
  134MOL   C21443040   5.191   2.417   2.387 -0.2943  0.3224 -0.3695
  134MOL   F21543041   5.186   2.364   2.257  0.3174  0.2540  0.2324
  134MOL   C21643042   5.128   2.537   2.422  0.2379  0.4352 -0.0438
  134MOL   C21743043   5.133   2.583   2.554 -0.2333  0.5463 -0.6860
  134MOL   C21843044   5.247   2.471   2.914 -0.0240 -0.3121 -0.0954
  134MOL   H21943045   5.130   2.627   2.811  0.4466  1.5507 -2.8367
  134MOL   H22043046   5.350   2.361   2.683 -0.1485  0.0453  0.4230
  134MOL   H22143047   5.334   2.272   2.444 -1.5332  0.2405 -2.0852
  134MOL   H22243048   5.065   2.581   2.347 -0.9374 -0.2050  0.5462
  134MOL   H22343049   5.076   2.670   2.581  0.1430 -0.0092  2.0594
  134MOL   H22443050   5.180   2.385   2.910  1.2559 -1.3039 -0.4362
  134MOL   H22543051   5.351   2.439   2.907  0.3518  0.7940  0.4393
  134MOL   C22643052   5.227   2.537   3.049 -0.0358  0.1096 -0.0657
  134MOL   C22743053   5.087   2.595   3.060 -0.1820 -0.2585 -0.4900
  134MOL   C22843054   5.068   2.723   3.118  0.0522 -0.0723  0.0961
  134MOL   C22943055   4.934   2.767   3.136  0.1160  0.7521 -0.2351
  134MOL   C23043056   4.822   2.688   3.106  0.3195 -0.3744  0.0213
  134MOL   F23143057   4.695   2.740   3.137 -0.4089  0.4197  0.1354
  134MOL   C23243058   4.835   2.567   3.042 -0.8351 -0.1538 -0.5663
  134MOL   C23343059   4.971   2.515   3.027 -0.5036 -0.7313  0.3070
  134MOL   C23443060   5.235   2.443   3.176 -0.9724  0.8280  1.0648
  134MOL   H23543061   5.291   2.626   3.047 -1.1961  0.9353 -0.7750
  134MOL   H23643062   5.151   2.784   3.149 -1.4196  1.8516  0.3705
  134MOL   H23743063   4.925   2.862   3.187  0.7725  1.3642 -1.2467
  134MOL   H23843064   4.753   2.501   3.021 -1.1504  0.0775 -0.0510
  134MOL   H23943065   4.973   2.418   2.979 -0.9914  0.1277 -1.4756
  134MOL   H24043066   5.180   2.480   3.262  0.2350  3.9542  0.5636
  134MOL   H24143067   5.183   2.351   3.151  1.6407 -0.7702  1.2699
  134MOL   C24243068   5.373   2.385   3.222  0.5728  0.3480  0.0927
  134MOL   C24343069   5.480   2.484   3.271 -0.0459 -0.2999  0.6963
  134MOL   C24443070   5.446   2.565   3.381  0.2730 -0.9097  0.0410
  134MOL   C24543071   5.537   2.670   3.415 -0.3374  0.3079  0.0783
  134MOL   C24643072   5.658   2.689   3.349 -0.3052  0.5856 -0.1855
  134MOL   F24743073   5.735   2.793   3.390 -0.4635  0.1662 -0.2147
  134MOL   C24843074   5.689   2.600   3.239 -0.6384 -0.0692 -0.0795
  134MOL   C24943075   5.603   2.497   3.200  0.6890 -0.7499 -0.4944
  134MOL   C25043076   5.363   2.273   3.330 -0.2571 -0.0259  0.3016
  134MOL   H25143077   5.421   2.345   3.133  1.3494  0.3911  0.4928
  134MOL   H25243078   5.358   2.539   3.437 -1.0167  1.6568 -0.7028
  134MOL   H25343079   5.518   2.726   3.506 -0.2050  0.0256  0.2829
  134MOL   H25443080   5.779   2.626   3.185  0.0495 -0.5102  0.8412
  134MOL   H25543081   5.633   2.438   3.116  1.7461  2.5454 -2.5302
  134MOL   H25643082   5.459   2.273   3.382 -0.3317  1.6006  0.4415
  134MOL   H25743083   5.277   2.298   3.392 -1.0958  0.2161 -0.9436
  134MOL   C25843084   5.347   2.134   3.268  0.0108  0.0184  0.3843
  134MOL   C25943085   5.463   2.087   3.166 -0.0719 -0.1623  0.2947
  134MOL   C26043086   5.579   2.033   3.219 -0.4806 -0.8289 -0.8655
  134MOL   C26143087   5.688   1.991   3.131 -0.3188 -0.3803  0.4184
  134MOL   C26243088   5.666   2.003   2.989 -0.1698  0.3357 -0.3636
  134MOL   F26343089   5.762   1.970   2.905 -0.2719 -0.3267 -0.0623
  134MOL   C26443090   5.547   2.054   2.937  0.2176 -0.1015  0.1491
  134MOL   C26543091   5.452   2.101   3.030  0.2205  0.5855  0.3431
  134MOL   C26643092   5.306   2.026   3.362  0.2693  0.0044 -0.7205
  134MOL   H26743093   5.258   2.141   3.206  0.5920  1.6654 -0.2797
  134MOL   H26843094   5.597   2.029   3.325 -0.5707 -0.9108 -0.8541
  134MOL   H26943095   5.783   1.953   3.165 -1.0995 -1.0234  1.9086
  134MOL   H27043096   5.540   2.054   2.829 -0.9047 -2.3075  0.1991
  134MOL   H27143097   5.366   2.141   2.978  1.3381 -0.8120 -2.6910
  134MOL   H27243098   5.313   1.929   3.311  1.9836 -1.2657  1.8391
  134MOL   H27343099   5.381   2.010   3.439  1.2589 -0.9514 -1.8613
  134MOL   C27443100   5.167   2.043   3.429 -0.0414 -0.1994 -0.0494
  134MOL   C27543101   5.058   2.090   3.335  1.0712  0.3046  0.4839
  134MOL   C27643102   4.999   2.215   3.350  0.2392 -0.6779 -0.2499
  134MOL   C27743103   4.898   2.253   3.266 -0.2656 -0.2892  0.4397
  134MOL   C27843104   4.858   2.167   3.157  0.0637 -0.3969 -0.4179
  134MOL   F27943105   4.756   2.200   3.071 -0.0919 -0.2465  0.2102
  134MOL   C28043106   4.918   2.043   3.135  0.4661 -0.0112 -0.1958
  134MOL   C28143107   5.017   2.001   3.228  0.0816  0.1048 -0.0144
  134MOL   C28243108   5.126   1.922   3.513 -0.1995  0.0063 -0.3069
  134MOL   H28343109   5.177   2.123   3.502 -1.9172 -0.0060  0.0031
  134MOL   H28443110   5.030   2.278   3.432  2.5085 -3.1846  0.9162
  134MOL   H28543111   4.842   2.343   3.282 -2.1369 -1.6653  1.9013
  134MOL   H28643112   4.892   1.989   3.045  4.5481  1.7457 -2.5586
  134MOL   H28743113   5.066   1.907   3.204  0.1417  0.0303  0.3967
  134MOL   H28843114   5.111   1.837   3.446 -1.2305 -1.5377  1.8645
  134MOL   H28943115   5.220   1.907   3.566  0.9152  0.4711 -2.1028
  134MOL   C29043116   5.004   1.948   3.607  0.3999  0.9544 -0.9309
  134MOL   C29143117   4.882   1.882   3.550  0.0695  0.0311  0.0431
  134MOL   C29243118   4.883   1.741   3.529  1.2189 -0.3190  0.3622
  134MOL   C29343119   4.766   1.670   3.481 -0.1470  0.5602  0.8125
  134MOL   C29443120   4.656   1.740   3.431  0.4470  0.0747 -0.4071
  134MOL   F29543121   4.538   1.680   3.390 -0.9060 -0.0759 -0.3467
  134MOL   C29643122   4.652   1.885   3.442 -0.3303 -0.3279 -0.0454
  134MOL   C29743123   4.767   1.949   3.502 -0.4697 -0.1041  0.2718
  134MOL   C29843124   5.035   1.911   3.756 -0.5778  0.7787 -0.5366
  134MOL   H29943125   4.989   2.056   3.608 -1.5240  0.6983 -0.5209
  134MOL   H30043126   4.959   1.678   3.572  2.3432  0.8192  0.0701
  134MOL   H30143127   4.750   1.564   3.468  2.5873  0.1299  0.5637
  134MOL   H30243128   4.566   1.943   3.413  0.1864  0.2751 -0.3767
  134MOL   H30343129   4.751   2.055   3.488 -0.4345  0.0183  1.1451
  134MOL   H30443130   4.955   1.944   3.822 -0.0156 -0.6707  0.9172
  134MOL   H30543131   5.040   1.802   3.761  2.3890  0.9287  0.6911
  134MOL   C30643132   5.164   1.969   3.825  0.6557  0.0500  0.6093
  134MOL   C30743133   5.202   2.113   3.792  0.4781 -0.3125  0.4622
  134MOL   C30843134   5.335   2.150   3.768  0.6949 -0.8246  1.0833
  134MOL   C30943135   5.371   2.282   3.746 -0.2371 -0.6031 -0.4934
  134MOL   C31043136   5.275   2.382   3.739 -0.2123  0.2023  0.4131
  134MOL   F31143137   5.327   2.506   3.700  0.1474  0.2599 -0.2006
  134MOL   C31243138   5.137   2.356   3.768 -0.1618 -0.7465 -0.6043
  134MOL   C31343139   5.104   2.220   3.802  0.8917 -0.5334 -0.2113
  134MOL   C31443140   5.159   1.951   3.977  0.0163 -0.3966  0.0054
  134MOL   H31543141   5.243   1.901   3.792 -0.1572  0.2249 -1.7465
  134MOL   H31643142   5.416   2.079   3.767 -0.3188 -2.0328 -2.0284
  134MOL   H31743143   5.473   2.311   3.724 -0.0628 -0.9380 -0.1241
  134MOL   H31843144   5.070   2.438   3.790  2.8943  1.6188  0.3564
  134MOL   H31943145   5.001   2.202   3.827  0.3826 -1.0224 -2.5833
  134MOL   H32043146   5.094   1.866   3.996 -0.7281  0.1872  0.0941
  134MOL   H32143147   5.260   1.943   4.018  1.2293  1.8688 -2.3749
  134MOL   H32243148   5.122   2.040   4.029  1.1334  1.5330 -2.3632
  135MOL     C143149   8.200   7.727   1.004  0.0503  0.1747 -0.0218
  135MOL     C243150   8.099   7.819   0.952 -0.5392 -0.0245  0.1316
  135MOL     C343151   8.114   7.962   0.958 -0.2478 -0.5986  0.3683
  135MOL     C443152   8.021   8.044   0.890  0.4690  0.0494 -0.0270
  135MOL     C543153   7.896   7.993   0.849  1.0450 -0.1306 -0.3734
  135MOL     F643154   7.800   8.081   0.796  0.8850  0.0720 -0.6030
  135MOL     C743155   7.863   7.851   0.856  0.0563 -0.2105  0.3532
  135MOL     C843156   7.971   7.771   0.904 -0.1559  0.2057 -0.0017
  135MOL     C943157   0.086   7.786   1.073  0.5766  0.0627  0.3984
  135MOL    H1043158   0.005   7.687   0.911 -2.1630 -2.5480  0.1583
  135MOL    H1143159   8.209   7.996   0.997 -0.3298  1.6012 -1.2464
  135MOL    H1243160   8.036   8.150   0.877  1.3918 -0.1321 -0.5287
  135MOL    H1343161   7.764   7.811   0.841 -0.2726  0.0837  1.6941
  135MOL    H1443162   7.959   7.665   0.923  2.2601  0.0165  0.6597
  135MOL    H1543163   0.155   7.834   1.003  0.9375 -1.3775 -0.2534
  135MOL    H1643164   0.068   7.855   1.155 -1.6510  0.2150 -0.1821
  135MOL    H1743165   8.147   7.649   1.059 -0.1932 -0.8600 -1.7113
  135MOL    C1843166   0.183   7.681   1.134 -0.4698  0.1269 -0.5194
  135MOL    C1943167   0.237   7.588   1.026 -0.2561 -0.8188 -0.0477
  135MOL    C2043168   0.349   7.630   0.951  0.7504 -0.3265  0.9317
  135MOL    C2143169   0.390   7.549   0.844  0.1401  0.4409 -0.0300
  135MOL    C2243170   0.321   7.427   0.816 -0.0814 -0.1022  0.2776
  135MOL    F2343171   0.358   7.355   0.708 -0.1916 -0.0846 -0.4623
  135MOL    C2443172   0.217   7.384   0.897  0.0134  0.4737 -0.5653
  135MOL    C2543173   0.184   7.456   1.008 -0.7131 -0.2762  0.2875
  135MOL    C2643174   0.296   7.740   1.223 -0.2580  0.4379  0.2177
  135MOL    H2743175   0.122   7.616   1.198  0.0939  0.9256  0.8609
  135MOL    H2843176   0.391   7.730   0.954  2.9402 -1.1151 -1.8343
  135MOL    H2943177   0.460   7.592   0.774  0.8898 -0.6485  0.0443
  135MOL    H3043178   0.171   7.288   0.883  0.7263  0.2515 -1.4509
  135MOL    H3143179   0.108   7.417   1.074 -0.3258 -3.9032 -1.3007
  135MOL    H3243180   0.351   7.800   1.150 -0.0987 -0.7794 -0.6759
  135MOL    H3343181   0.252   7.806   1.298 -1.2622  0.8186 -0.7039
  135MOL    C3443182   0.397   7.640   1.287 -0.4309  0.0568  0.6159
  135MOL    C3543183   0.536   7.704   1.283 -0.2653 -0.0019 -0.1569
  135MOL    C3643184   0.619   7.676   1.173  0.2829  0.5299  0.1109
  135MOL    C3743185   0.751   7.721   1.168 -0.7748 -0.3102  0.0836
  135MOL    C3843186   0.805   7.800   1.271  0.3834 -0.7836  0.0475
  135MOL    F3943187   0.933   7.844   1.272  0.3909  0.6129  0.9860
  135MOL    C4043188   0.719   7.837   1.377 -0.2141  0.3483 -0.3921
  135MOL    C4143189   0.585   7.792   1.378 -0.0833  0.2897 -0.0324
  135MOL    C4243190   0.360   7.579   1.421  0.1090  0.3502 -0.2356
  135MOL    H4343191   0.397   7.556   1.218  0.7717  2.5064 -2.4794
  135MOL    H4443192   0.577   7.620   1.091 -0.4319  1.0401  0.1226
  135MOL    H4543193   0.808   7.697   1.079 -0.5783 -1.3800  0.4893
  135MOL    H4643194   0.752   7.909   1.451 -0.0067  0.9844 -1.0983
  135MOL    H4743195   0.519   7.823   1.459 -0.6344  1.4712 -0.9151
  135MOL    H4843196   0.352   7.658   1.496  0.6336 -0.4258  0.6642
  135MOL    H4943197   0.261   7.534   1.414 -0.2575  1.1751 -0.3790
  135MOL    C5043198   0.456   7.473   1.480  0.2072 -0.4383  0.3686
  135MOL    C5143199   0.504   7.514   1.621  0.2213 -0.2939  0.3348
  135MOL    C5243200   0.413   7.532   1.727  0.5750 -0.2418  0.1855
  135MOL    C5343201   0.472   7.568   1.854 -0.0446 -0.4944 -0.4864
  135MOL    C5443202   0.610   7.602   1.873 -0.2431  1.4655  0.4364
  135MOL    F5543203   0.668   7.618   2.001  0.2347 -0.3047 -0.2887
  135MOL    C5643204   0.693   7.601   1.761  0.1093 -0.4056  0.2466
  135MOL    C5743205   0.643   7.558   1.635  0.6337  0.5595  0.0159
  135MOL    C5843206   0.402   7.328   1.491 -0.0541 -0.3176  0.2026
  135MOL    H5943207   0.555   7.476   1.435  0.4527  0.6581  0.9554
  135MOL    H6043208   0.310   7.503   1.714  0.2455 -0.1618  2.3384
  135MOL    H6143209   0.407   7.569   1.940  3.0551  1.2348  1.9343
  135MOL    H6243210   0.793   7.643   1.763  1.0381 -2.4975 -0.3125
  135MOL    H6343211   0.702   7.571   1.546  1.0320  1.4562  0.4067
  135MOL    H6443212   0.475   7.264   1.542  2.7811  1.4456 -1.5369
  135MOL    H6543213   0.310   7.325   1.550  0.6459  2.6521  1.5426
  135MOL    C6643214   0.371   7.261   1.358 -0.0886  0.5942  0.3312
  135MOL    C6743215   0.494   7.267   1.269 -0.8589  0.6746  0.3614
  135MOL    C6843216   0.624   7.230   1.318  0.2698 -0.2124  0.4309
  135MOL    C6943217   0.731   7.209   1.224 -0.0374 -0.3400 -0.3244
  135MOL    C7043218   0.707   7.215   1.090 -0.3640  0.6983 -0.2981
  135MOL    F7143219   0.807   7.197   1.003 -0.3284  0.0227  0.1228
  135MOL    C7243220   0.582   7.253   1.039 -0.3189 -0.1144  0.4896
  135MOL    C7343221   0.476   7.276   1.130 -0.0610 -0.4752  0.5747
  135MOL    C7443222   0.330   7.112   1.378 -0.1323 -0.0415  0.3663
  135MOL    H7543223   0.289   7.315   1.310  0.7515  0.9773 -0.6861
  135MOL    H7643224   0.656   7.218   1.420  1.2355 -0.3231  0.1195
  135MOL    H7743225   0.831   7.195   1.261  0.1364 -1.3115 -1.1521
  135MOL    H7843226   0.575   7.249   0.931 -0.1249 -0.2733  0.4817
  135MOL    H7943227   0.383   7.310   1.086 -0.3311  1.3251  2.4787
  135MOL    H8043228   0.361   7.047   1.296 -1.1514  0.6468 -0.5808
  135MOL    H8143229   0.381   7.073   1.466  0.8051 -0.0974 -0.2029
  135MOL    C8243230   0.177   7.086   1.386 -0.1890 -0.5241  0.4165
  135MOL    C8343231   0.110   7.165   1.496  0.6647  0.1054 -0.1487
  135MOL    C8443232   0.054   7.293   1.470 -0.7047 -0.0390 -0.0470
  135MOL    C8543233   0.010   7.376   1.578  0.0557 -0.5807 -0.7814
  135MOL    C8643234   0.022   7.328   1.706  0.2794  0.2235 -0.1390
  135MOL    F8743235   8.225   7.415   1.803  0.2501 -0.1394 -0.1960
  135MOL    C8843236   0.069   7.201   1.729 -0.0349  0.0026 -0.0381
  135MOL    C8943237   0.119   7.120   1.624  0.3355  0.4585  0.7279
  135MOL    C9043238   0.112   7.101   1.239  0.2366  0.0255 -0.9935
  135MOL    H9143239   0.164   6.979   1.403 -1.0859 -0.2532  1.4565
  135MOL    H9243240   0.043   7.332   1.370  2.3710  0.6549 -0.1784
  135MOL    H9343241   8.214   7.478   1.555 -1.0487 -0.9443 -0.9486
  135MOL    H9443242   0.068   7.164   1.830  1.8027  1.6168  0.6015
  135MOL    H9543243   0.161   7.023   1.647  1.2920  0.8144  0.4851
  135MOL    H9643244   0.127   7.204   1.205 -0.7517  0.9573  1.2640
  135MOL    H9743245   0.171   7.052   1.162  0.2495 -0.7094 -0.5263
  135MOL    C9843246   8.193   7.069   1.229  0.1658  0.0716  0.0118
  135MOL    C9943247   8.121   7.185   1.158  0.5432  0.0469 -0.3361
  135MOL   C10043248   8.127   7.210   1.018  0.1460 -0.1941 -0.4951
  135MOL   C10143249   8.047   7.313   0.960  0.4703  0.0063  0.3765
  135MOL   C10243250   7.955   7.380   1.046  0.4307 -0.1780 -0.5450
  135MOL   F10343251   7.866   7.469   0.998  0.6172  0.3332  0.2505
  135MOL   C10443252   7.957   7.363   1.183 -0.1630 -0.2793  0.5634
  135MOL   C10543253   8.042   7.270   1.242 -0.2016  0.6244 -0.0583
  135MOL   C10643254   8.159   6.931   1.171  0.0542  0.3177  0.0471
  135MOL   H10743255   8.144   7.054   1.325 -1.1115 -0.4963 -0.7171
  135MOL   H10843256   8.189   7.152   0.951 -0.6304 -0.7283 -0.7513
  135MOL   H10943257   8.042   7.336   0.855 -0.8444 -0.6681  0.2689
  135MOL   H11043258   7.907   7.437   1.244 -0.8236  0.0169 -0.3369
  135MOL   H11143259   8.034   7.251   1.348  1.9757 -0.2361 -0.0184
  135MOL   H11243260   8.052   6.924   1.155 -0.1550  2.8766  0.1975
  135MOL   H11343261   8.202   6.919   1.071  0.2215 -1.4031  0.3161
  135MOL   C11443262   8.207   6.808   1.246  0.3168  0.1683 -0.2322
  135MOL   C11543263   8.126   6.787   1.376  0.1951 -0.1890  0.8338
  135MOL   C11643264   7.988   6.745   1.363 -0.6513  0.0940  0.5569
  135MOL   C11743265   7.914   6.708   1.482 -0.0187 -0.0479  0.3266
  135MOL   C11843266   7.969   6.726   1.613  0.1428 -0.3072  0.4868
  135MOL   F11943267   7.903   6.696   1.727  0.4678  0.2489  0.5311
  135MOL   C12043268   8.103   6.771   1.623 -0.5891 -0.1668  0.5585
  135MOL   C12143269   8.171   6.806   1.506 -0.3366  0.0327  0.1381
  135MOL   C12243270   8.207   6.684   1.161 -0.6241 -0.3330 -0.4628
  135MOL   H12343271   0.071   6.833   1.284  0.7521  1.4639 -2.1506
  135MOL   H12443272   7.945   6.734   1.265  1.9275 -0.7866 -0.5245
  135MOL   H12543273   7.811   6.674   1.477  0.7729 -2.6703  1.6585
  135MOL   H12643274   8.145   6.767   1.722  1.6691  0.9650 -0.3186
  135MOL   H12743275   0.039   6.839   1.515  1.2170 -4.0864 -1.1079
  135MOL   H12843276   8.113   6.671   1.107 -0.0128 -1.7706 -1.2253
  135MOL   H12943277   0.041   6.703   1.077  0.6518 -0.2856  0.5685
  135MOL   C13043278   0.010   6.550   1.229  0.4639 -0.1239  0.1383
  135MOL   C13143279   8.123   6.457   1.245  0.6100 -0.2804  0.1980
  135MOL   C13243280   8.038   6.421   1.136  0.1918  0.0051 -0.3430
  135MOL   C13343281   7.914   6.362   1.164  0.3051 -0.3842  0.5091
  135MOL   C13443282   7.870   6.331   1.293  0.2796 -0.0204 -0.1134
  135MOL   F13543283   7.746   6.289   1.311  0.2297 -0.4591 -0.1446
  135MOL   C13643284   7.954   6.365   1.397 -0.5460 -0.2626  0.7762
  135MOL   C13743285   8.073   6.430   1.373 -0.3167  0.9344 -0.0226
  135MOL   C13843286   0.130   6.486   1.161  0.2699 -0.4141 -0.2407
  135MOL   H13943287   0.032   6.565   1.334 -0.7900 -1.7010  0.6452
  135MOL   H14043288   8.066   6.425   1.032 -0.5708 -0.7857 -0.5756
  135MOL   H14143289   7.849   6.350   1.079  1.4856  0.2334 -0.4991
  135MOL   H14243290   7.912   6.358   1.496 -4.2347  0.1408 -0.6574
  135MOL   H14343291   8.131   6.463   1.458  1.7919  0.9014 -1.4081
  135MOL   H14443292   0.138   6.384   1.198  1.9591  0.2950  1.4503
  135MOL   H14543293   0.114   6.481   1.054  1.0518 -1.2601 -0.3306
  135MOL   C14643294   0.263   6.562   1.189  0.5437 -0.4372  0.5210
  135MOL   C14743295   0.292   6.572   1.338  0.3136 -0.2923 -0.2463
  135MOL   C14843296   0.310   6.460   1.416 -0.7456  0.5139 -0.7916
  135MOL   C14943297   0.355   6.465   1.547  0.2941 -0.1990  0.5488
  135MOL   C15043298   0.377   6.592   1.605 -0.0129 -0.1759 -0.2066
  135MOL   F15143299   0.422   6.611   1.728  0.1477  0.1119  0.1066
  135MOL   C15243300   0.352   6.707   1.529  0.2434 -0.3446 -0.0984
  135MOL   C15343301   0.306   6.699   1.395  0.4678  0.3882  0.4631
  135MOL   C15443302   0.383   6.488   1.111  0.6554 -0.5115 -0.2325
  135MOL   H15543303   0.260   6.663   1.149 -0.8061 -1.1122 -1.1220
  135MOL   H15643304   0.302   6.359   1.379  0.2674 -0.0791  0.5556
  135MOL   H15743305   0.379   6.371   1.594 -0.2624 -1.3839 -1.5144
  135MOL   H15843306   0.381   6.799   1.576  1.2875 -1.8511  2.2924
  135MOL   H15943307   0.298   6.791   1.338  1.8971 -0.2787 -0.8757
  135MOL   H16043308   0.472   6.523   1.163  0.9386 -2.2117  0.4384
  135MOL   H16143309   0.365   6.382   1.127  0.8024 -0.3940  0.7231
  135MOL   C16243310   0.407   6.526   0.957 -0.0687 -0.0980 -0.1673
  135MOL   C16343311   0.387   6.675   0.937 -0.0621 -0.3621  0.0492
  135MOL   C16443312   0.274   6.733   0.873  0.1976 -0.4106  0.4363
  135MOL   C16543313   0.271   6.874   0.856 -0.3778 -0.2000 -0.0954
  135MOL   C16643314   0.369   6.965   0.907  0.6102  0.6102 -0.5043
  135MOL   F16743315   0.362   7.095   0.886 -0.2165 -0.3892  0.2059
  135MOL   C16843316   0.484   6.905   0.974  0.6165  0.9557 -0.3116
  135MOL   C16943317   0.493   6.761   0.990  0.3772 -0.4671 -0.3035
  135MOL   C17043318   0.538   6.466   0.897  0.1378  0.2544 -0.3292
  135MOL   H17143319   0.326   6.480   0.900  1.3458 -1.6178 -1.0257
  135MOL   H17243320   0.196   6.666   0.842  1.1345 -2.6494  2.6875
  135MOL   H17343321   0.188   6.927   0.809  0.5043  1.3269  0.0155
  135MOL   H17443322   0.556   6.965   1.027 -0.7377  0.8074  1.7652
  135MOL   H17543323   0.581   6.724   1.040  0.6259  2.1401  1.2586
  135MOL   H17643324   0.620   6.525   0.937  0.1639 -1.2852  1.9396
  135MOL   H17743325   0.541   6.368   0.944 -2.6221  0.1838 -0.1884
  135MOL   C17843326   0.552   6.454   0.742 -0.4593  0.8009  0.4765
  135MOL   C17943327   0.506   6.582   0.672  0.9312  0.0999  0.4565
  135MOL   C18043328   0.577   6.706   0.684  0.1628  0.1173  0.4911
  135MOL   C18143329   0.527   6.815   0.612  0.2709 -0.3858  0.1836
  135MOL   C18243330   0.408   6.802   0.534 -0.0329 -0.5356 -0.1118
  135MOL   F18343331   0.352   6.914   0.476 -0.7157 -0.4045 -0.7312
  135MOL   C18443332   0.345   6.676   0.520 -0.2112 -0.7927 -0.0093
  135MOL   C18543333   0.405   6.566   0.579  1.0781 -0.0929 -0.1534
  135MOL   C18643334   0.694   6.397   0.701  0.0365  0.9908 -0.0086
  135MOL   H18743335   0.481   6.373   0.729 -0.4522  0.9252 -0.4032
  135MOL   H18843336   0.658   6.715   0.755  0.4624 -0.2588  0.2008
  135MOL   H18943337   0.569   6.914   0.622  1.3854 -1.0761  2.8222
  135MOL   H19043338   0.259   6.659   0.457 -2.2631 -1.4920  2.8424
  135MOL   H19143339   0.360   6.470   0.556  1.6047 -1.0275  2.5335
  135MOL   H19243340   0.759   6.481   0.723 -0.4717  1.8731 -1.7656
  135MOL   H19343341   0.732   6.309   0.754  0.3894 -2.3046 -5.3224
  135MOL   C19443342   0.701   6.370   0.552  0.1893  0.2235 -0.0900
  135MOL   C19543343   0.788   6.477   0.475 -0.4082 -1.3262  0.9033
  135MOL   C19643344   0.928   6.475   0.480  0.2450  0.8431  0.0496
  135MOL   C19743345   1.003   6.572   0.414  0.0287 -0.1814 -0.0819
  135MOL   C19843346   0.938   6.676   0.345 -0.2202  0.5799  0.2850
  135MOL   F19943347   1.003   6.779   0.289  0.1240 -0.0122 -0.1201
  135MOL   C20043348   0.798   6.674   0.330  0.6976  0.1533 -0.0305
  135MOL   C20143349   0.721   6.576   0.399  0.6051  0.4008 -0.2642
  135MOL   C20243350   0.748   6.228   0.512  0.4794  0.7845 -0.4453
  135MOL   H20343351   0.600   6.381   0.512 -0.0909  0.6224  0.7206
  135MOL   H20443352   0.987   6.399   0.529  1.1981  0.1249 -2.1026
  135MOL   H20543353   1.111   6.565   0.423  0.1149  0.9076 -0.0899
  135MOL   H20643354   0.759   6.758   0.276  0.6750  1.2285  1.6198
  135MOL   H20743355   0.614   6.590   0.399  0.8815  2.8495  0.8776
  135MOL   H20843356   0.749   6.219   0.404  1.1511  0.4720 -0.4149
  135MOL   H20943357   0.854   6.202   0.521  0.7564  1.5520 -1.4005
  135MOL   C21043358   0.670   6.110   0.570 -0.4415 -0.4330 -0.3881
  135MOL   C21143359   0.522   6.117   0.520  0.1874  0.3930 -0.3458
  135MOL   C21243360   0.417   6.135   0.606 -0.0256 -0.5855  0.3469
  135MOL   C21343361   0.288   6.161   0.545 -0.7102 -1.2514 -0.5476
  135MOL   C21443362   0.270   6.142   0.409  0.0174  0.2703 -0.1746
  135MOL   F21543363   0.148   6.163   0.359  0.3647 -0.0258  0.2013
  135MOL   C21643364   0.375   6.099   0.328  0.1888  0.3143 -0.2212
  135MOL   C21743365   0.504   6.097   0.378 -0.0831 -0.3072 -0.4434
  135MOL   C21843366   0.747   5.979   0.549  0.9964 -0.4037 -1.0256
  135MOL   H21943367   0.656   6.133   0.676 -2.0829  1.8021 -1.0598
  135MOL   H22043368   0.426   6.127   0.713  1.1503 -1.7796  0.1675
  135MOL   H22143369   0.203   6.169   0.611  1.4350  3.1968  1.8792
  135MOL   H22243370   0.364   6.094   0.221  0.3771 -1.7103 -0.1507
  135MOL   H22343371   0.592   6.069   0.322  0.0451 -2.9078  0.9950
  135MOL   H22443372   0.777   5.973   0.445 -1.1008 -0.2435 -1.6570
  135MOL   H22543373   0.836   5.985   0.612  0.9938 -0.8109 -0.9816
  135MOL   C22643374   0.674   5.850   0.596 -0.4354 -0.4229  0.7319
  135MOL   C22743375   0.743   5.734   0.521  0.4308  0.2182  0.4629
  135MOL   C22843376   0.845   5.655   0.582  0.0671  1.1159 -0.2698
  135MOL   C22943377   0.905   5.551   0.515  0.0447 -0.2896  0.0108
  135MOL   C23043378   0.872   5.511   0.385 -0.4223  0.1560  0.1156
  135MOL   F23143379   0.937   5.409   0.322  0.0088 -0.1499 -0.3313
  135MOL   C23243380   0.775   5.590   0.316 -0.0227 -0.2555 -0.2448
  135MOL   C23343381   0.720   5.703   0.385 -0.0605  0.4005  0.3604
  135MOL   C23443382   0.658   5.843   0.750 -0.3769  0.2379  0.2569
  135MOL   H23543383   0.571   5.856   0.561 -0.1034  4.1123  0.2423
  135MOL   H23643384   0.881   5.678   0.682  1.6379  0.4419 -0.6559
  135MOL   H23743385   0.991   5.502   0.559  0.8519  0.6258 -0.5459
  135MOL   H23843386   0.755   5.566   0.213  1.4719  0.6114 -0.7671
  135MOL   H23943387   0.674   5.776   0.321  0.2497  1.6252  1.5065
  135MOL   H24043388   0.757   5.860   0.791  0.2397  1.1995 -1.5678
  135MOL   H24143389   0.598   5.928   0.783  0.7108  1.3515 -0.5873
  135MOL   C24243390   0.598   5.710   0.800 -0.2421 -0.4693 -0.0214
  135MOL   C24343391   0.621   5.713   0.948  0.5378 -0.0004  0.0446
  135MOL   C24443392   0.742   5.674   1.002  0.2887  0.3444 -0.4267
  135MOL   C24543393   0.779   5.694   1.136  0.2311 -0.6265 -0.2904
  135MOL   C24643394   0.678   5.729   1.227 -0.4033 -0.0571  0.4477
  135MOL   F24743395   0.704   5.742   1.359 -0.0551 -0.0342  0.5048
  135MOL   C24843396   0.544   5.755   1.180 -0.6352 -0.7256  0.2296
  135MOL   C24943397   0.521   5.757   1.043 -0.2079  0.0343  0.9512
  135MOL   C25043398   0.452   5.683   0.754 -0.0200  0.1719  0.1051
  135MOL   H25143399   0.666   5.633   0.764 -1.4736 -1.5906  0.0207
  135MOL   H25243400   0.824   5.644   0.937 -0.9814  0.4507 -2.1082
  135MOL   H25343401   0.875   5.676   1.182  0.2482  1.9113  0.7511
  135MOL   H25443402   0.469   5.786   1.251  1.1000 -0.0528  1.7916
  135MOL   H25543403   0.420   5.770   1.008  0.0254  1.8091  0.8579
  135MOL   H25643404   0.389   5.767   0.784 -2.6234 -0.7280 -2.5567
  135MOL   H25743405   0.454   5.678   0.645 -2.9298 -1.8689  0.0694
  135MOL   C25843406   0.388   5.547   0.803 -0.0910 -0.4133  0.4926
  135MOL   C25943407   0.232   5.566   0.787 -0.0798  0.2226  0.1808
  135MOL   C26043408   0.168   5.576   0.664  0.1402  0.5160  0.3497
  135MOL   C26143409   0.031   5.583   0.660  0.1100  0.4797  0.1102
  135MOL   C26243410   8.187   5.585   0.771 -0.2564  0.4749  0.0091
  135MOL   F26343411   8.054   5.592   0.758  0.0907 -0.6934 -0.3592
  135MOL   C26443412   0.011   5.594   0.903 -0.9975 -0.0867 -0.0712
  135MOL   C26543413   0.155   5.571   0.903  0.5412  0.0287  0.3631
  135MOL   C26643414   0.439   5.420   0.734  0.4976  0.6736 -0.1976
  135MOL   H26743415   0.412   5.537   0.908  2.1368 -1.0079 -0.0433
  135MOL   H26843416   0.222   5.573   0.571 -0.7284  1.4910 -0.2041
  135MOL   H26943417   8.215   5.585   0.565 -0.1254 -0.3076  0.2156
  135MOL   H27043418   8.181   5.599   0.990  1.0597  0.5992  1.4441
  135MOL   H27143419   0.200   5.569   1.001  0.1453  1.4323  0.5825
  135MOL   H27243420   0.425   5.433   0.626  1.8379  3.5199 -0.0844
  135MOL   H27343421   0.547   5.411   0.733  0.4834  0.5119 -0.2025
  135MOL   C27443422   0.360   5.282   0.765 -0.2616 -0.2852  0.0045
  135MOL   C27543423   0.371   5.168   0.660 -0.2052  0.9182 -0.1095
  135MOL   C27643424   0.263   5.080   0.645  0.1481 -0.0529 -0.5472
  135MOL   C27743425   0.264   4.983   0.542  0.6119 -0.4486  0.7533
  135MOL   C27843426   0.374   4.976   0.457 -0.3301  0.5344  0.2002
  135MOL   F27943427   0.381   4.886   0.357 -0.0634  0.0741 -0.8163
  135MOL   C28043428   0.482   5.067   0.475 -0.3401  0.5704  0.1264
  135MOL   C28143429   0.484   5.158   0.582 -0.4307 -0.2107  0.1502
  135MOL   C28243430   0.372   5.223   0.902 -0.1099  0.9716 -0.1702
  135MOL   H28343431   0.254   5.305   0.760  0.0637  1.3182  0.1606
  135MOL   H28443432   0.177   5.095   0.708  0.0752  1.9480 -1.1044
  135MOL   H28543433   0.176   4.925   0.520 -0.4277  1.1148  0.7743
  135MOL   H28643434   0.562   5.052   0.404 -0.7659 -0.8829 -0.0538
  135MOL   H28743435   0.571   5.221   0.590 -0.8052  0.1152  1.9205
  135MOL   H28843436   0.394   5.307   0.968 -1.5469  0.6743  0.7174
  135MOL   H28943437   0.278   5.184   0.940  1.4065 -0.5581  2.1339
  135MOL   C29043438   0.479   5.104   0.925 -0.2369 -0.3397  0.8870
  135MOL   C29143439   0.628   5.156   0.912 -0.1110  0.0971  0.6037
  135MOL   C29243440   0.677   5.266   0.987  0.4709 -0.5498 -0.3206
  135MOL   C29343441   0.801   5.317   0.957 -0.2514  0.2724 -0.3278
  135MOL   C29443442   0.889   5.248   0.872 -0.2295  0.8304  0.0369
  135MOL   F29543443   1.007   5.311   0.846  0.3304  0.2550 -0.6419
  135MOL   C29643444   0.848   5.132   0.808 -0.1924  0.2140 -0.0957
  135MOL   C29743445   0.719   5.082   0.824 -0.0972  0.6721  0.9952
  135MOL   C29843446   0.461   5.032   1.059 -0.1395 -0.0626  0.3936
  135MOL   H29943447   0.474   5.024   0.851 -0.8265  0.3471  0.1748
  135MOL   H30043448   0.613   5.309   1.063  2.1701 -0.0427  0.8465
  135MOL   H30143449   0.835   5.406   1.007  0.5558  0.4261 -1.1285
  135MOL   H30243450   0.914   5.076   0.742 -0.5034  0.8663 -0.9792
  135MOL   H30343451   0.696   5.002   0.755 -1.2107  1.6594  0.2013
  135MOL   H30443452   0.471   5.110   1.134 -1.0584 -0.3346  0.8142
  135MOL   H30543453   0.357   5.000   1.070 -0.0608  0.1990  2.0607
  135MOL   C30643454   0.549   4.910   1.102  0.6859 -0.0755  0.1548
  135MOL   C30743455   0.497   4.842   1.230  0.1129 -0.0945  0.2588
  135MOL   C30843456   0.588   4.831   1.343  0.1591  0.0022 -0.0116
  135MOL   C30943457   0.540   4.768   1.458  0.4754  0.2743 -0.3019
  135MOL   C31043458   0.410   4.713   1.473  1.1151 -0.4379  0.2405
  135MOL   F31143459   0.380   4.645   1.586 -0.6429  0.0739  0.3171
  135MOL   C31243460   0.327   4.715   1.355 -0.2692 -0.6611 -0.2326
  135MOL   C31343461   0.365   4.781   1.238 -0.2345 -0.6481  0.7049
  135MOL   C31443462   0.537   4.804   0.993 -0.0801 -0.3716 -0.4436
  135MOL   H31543463   0.648   4.953   1.118  0.9186 -0.2780 -0.6773
  135MOL   H31643464   0.687   4.872   1.329 -0.2852  0.2859 -2.6929
  135MOL   H31743465   0.600   4.762   1.548  0.8995  0.2492 -0.5848
  135MOL   H31843466   0.234   4.665   1.374 -0.9568  1.3050  1.7058
  135MOL   H31943467   0.302   4.794   1.151  0.7165 -0.4859  0.0317
  135MOL   H32043468   0.560   4.700   1.014 -1.1343 -0.9463 -2.0564
  135MOL   H32143469   0.429   4.802   0.975 -0.1615  0.6914 -0.1444
  135MOL   H32243470   0.574   4.827   0.893 -1.3844 -1.9129 -1.3123
  136MOL     C143471   7.958   1.425   4.046  0.5237 -0.0940  0.1935
  136MOL     C243472   8.085   1.397   3.969  0.0874 -0.0041 -0.3759
  136MOL     C343473   8.112   1.467   3.850 -0.6240 -0.0929 -0.2287
  136MOL     C443474   8.218   1.427   3.770  0.3875 -0.4578 -0.2719
  136MOL     C543475   0.065   1.324   3.809 -0.5233 -0.2280  0.1224
  136MOL     F643476   0.175   1.288   3.735  0.4735 -0.0110 -0.2332
  136MOL     C743477   0.038   1.246   3.925 -0.0933 -0.8227  0.1065
  136MOL     C843478   8.163   1.279   4.004  0.2161  0.9407  0.2681
  136MOL     C943479   7.999   1.480   4.179  0.4826  0.3964  0.1572
  136MOL    H1043480   7.900   1.333   4.060 -1.4644  1.1332  0.1411
  136MOL    H1143481   8.044   1.547   3.822 -0.3370  1.3902  3.0279
  136MOL    H1243482   0.003   1.489   3.684  1.4958 -0.4930 -0.0635
  136MOL    H1343483   0.090   1.152   3.938  1.1395 -0.2157 -0.2796
  136MOL    H1443484   8.141   1.215   4.088  2.4165 -0.6713 -0.3103
  136MOL    H1543485   8.075   1.422   4.231  0.3643  0.5944  0.5532
  136MOL    H1643486   8.062   1.568   4.163 -3.5049  2.7899 -3.3549
  136MOL    H1743487   7.894   1.496   3.994 -0.6544  1.6710  3.9187
  136MOL    C1843488   7.877   1.496   4.282  0.1211 -0.1545  0.5238
  136MOL    C1943489   7.813   1.366   4.311  0.0136 -0.1991  0.5047
  136MOL    C2043490   7.678   1.353   4.274 -0.8641 -0.1887 -0.7233
  136MOL    C2143491   7.608   1.237   4.311  0.1132  0.0585 -0.0030
  136MOL    C2243492   7.675   1.129   4.378  0.5421 -0.4461 -0.4331
  136MOL    F2343493   7.615   1.011   4.404  0.6088  0.2631  0.2977
  136MOL    C2443494   7.814   1.145   4.404 -0.1922  0.5144 -0.7045
  136MOL    C2543495   7.887   1.260   4.364  0.7455  0.4544 -0.0715
  136MOL    C2643496   7.928   1.569   4.404 -0.2945  0.2035  0.5406
  136MOL    H2743497   7.810   1.566   4.231  1.2628  0.6654  0.1154
  136MOL    H2843498   7.631   1.436   4.223 -0.6960  0.2655 -0.1380
  136MOL    H2943499   7.503   1.232   4.287  0.2824  1.0198 -0.9750
  136MOL    H3043500   7.857   1.056   4.448 -0.4187  0.6540 -0.2110
  136MOL    H3143501   7.993   1.264   4.384  0.6407 -2.6225  1.3988
  136MOL    H3243502   7.996   1.498   4.452 -0.9847 -1.6478 -1.1710
  136MOL    H3343503   7.994   1.648   4.368  0.2483  0.1864  1.4800
  136MOL    C3443504   7.819   1.613   4.509 -0.2484 -0.6082 -0.4091
  136MOL    C3543505   7.890   1.650   4.636  0.8621 -0.4200 -0.2587
  136MOL    C3643506   7.945   1.777   4.652 -0.2393  0.5865  0.2372
  136MOL    C3743507   8.020   1.807   4.762 -0.3368 -0.1186  0.0812
  136MOL    C3843508   8.038   1.709   4.862  0.1018 -0.5409 -0.3611
  136MOL    F3943509   8.125   1.745   4.960 -0.5596  0.1191 -0.2129
  136MOL    C4043510   7.971   1.590   4.852 -1.4262  0.3343 -0.1540
  136MOL    C4143511   7.900   1.553   4.736  0.3486  0.3347 -0.3657
  136MOL    C4243512   7.721   1.720   4.463  0.0140  0.2884  0.2635
  136MOL    H4343513   7.750   1.531   4.528 -0.5431 -0.3178 -0.2197
  136MOL    H4443514   7.933   1.854   4.576 -0.2373 -1.1129 -1.5364
  136MOL    H4543515   8.060   1.907   4.771 -0.6141 -0.2145  2.5008
  136MOL    H4643516   7.996   1.517   4.928 -2.5038  0.7417  0.5985
  136MOL    H4743517   7.857   1.454   4.734  3.1492 -0.9842  1.2973
  136MOL    H4843518   7.768   1.813   4.429  2.0979  0.5270  3.6414
  136MOL    H4943519   7.682   1.697   4.364 -2.2174 -0.0002  1.1866
  136MOL    C5043520   7.599   1.750   4.551 -0.3696  0.1387 -0.5467
  136MOL    C5143521   7.529   1.869   4.488  0.2811 -0.4835  0.2986
  136MOL    C5243522   7.440   1.852   4.374  0.4590  0.1232  0.6561
  136MOL    C5343523   7.366   1.964   4.337 -0.4922  0.2206 -0.1137
  136MOL    C5443524   7.402   2.093   4.383 -0.5593  0.1433  0.5046
  136MOL    F5543525   7.354   2.197   4.314 -0.1965 -0.0172  0.1629
  136MOL    C5643526   7.486   2.107   4.489 -0.1072  0.1638 -0.2705
  136MOL    C5743527   7.551   2.000   4.544  0.0196 -1.1711 -0.2932
  136MOL    C5843528   7.501   1.623   4.587 -0.0018  0.5239  0.6569
  136MOL    H5943529   7.644   1.788   4.643 -0.9638 -0.8206  0.1539
  136MOL    H6043530   7.421   1.754   4.333 -2.6616  0.3666  1.4040
  136MOL    H6143531   7.296   1.947   4.256  0.1981  0.4430 -0.7669
  136MOL    H6243532   7.505   2.204   4.533  3.1294 -1.8638  3.1353
  136MOL    H6343533   7.629   2.020   4.616 -1.3069  1.2461  0.5092
  136MOL    H6443534   7.414   1.611   4.522  0.6078 -0.2802 -0.0178
  136MOL    H6543535   7.546   1.530   4.553 -2.2843  0.0086 -1.1256
  136MOL    C6643536   7.453   1.621   4.737  0.0638  1.1439  0.6721
  136MOL    C6743537   7.315   1.558   4.739 -0.1055 -0.4878  0.0785
  136MOL    C6843538   7.204   1.643   4.745  0.4167 -0.7025  0.2845
  136MOL    C6943539   7.074   1.598   4.724 -0.2390  0.5666  0.0858
  136MOL    C7043540   7.056   1.462   4.705  0.1514  1.1075  0.1443
  136MOL    F7143541   6.931   1.414   4.671 -0.1045 -0.2177 -0.1826
  136MOL    C7243542   7.165   1.373   4.708 -0.0602 -0.4789  0.0251
  136MOL    C7343543   7.299   1.416   4.714 -0.2375  0.6707 -0.4725
  136MOL    C7443544   7.560   1.553   4.825  0.5979 -0.2541  0.2296
  136MOL    H7543545   7.436   1.724   4.768 -2.4438  1.0941 -0.4319
  136MOL    H7643546   7.213   1.751   4.743 -0.2908 -0.6481 -0.7319
  136MOL    H7743547   6.994   1.670   4.724 -0.5136  0.2635 -0.4570
  136MOL    H7843548   7.139   1.271   4.688  2.3678 -1.2070  0.3934
  136MOL    H7943549   7.383   1.348   4.711 -0.0636  0.7718  1.5041
  136MOL    H8043550   7.572   1.449   4.795 -0.4898 -0.5060  0.6397
  136MOL    H8143551   7.646   1.615   4.801  1.1609 -0.7054  1.0497
  136MOL    C8243552   7.545   1.548   4.978 -0.1765  0.8125  0.0254
  136MOL    C8343553   7.527   1.681   5.041 -0.4159  0.5511  0.6572
  136MOL    C8443554   7.640   1.761   5.065  0.1870 -0.2382  0.1955
  136MOL    C8543555   7.632   1.896   5.114 -0.3412  0.2258  0.0250
  136MOL    C8643556   7.505   1.948   5.134  1.1140 -0.5963 -0.0097
  136MOL    F8743557   7.477   2.074   5.184  0.2615  0.0416  0.2017
  136MOL    C8843558   7.392   1.874   5.103  0.0103  0.2417  0.2196
  136MOL    C8943559   7.402   1.742   5.057 -0.4421  1.1282  0.0843
  136MOL    C9043560   7.452   1.437   5.041 -0.3433  0.5547 -0.6175
  136MOL    H9143561   7.640   1.510   5.015 -0.7612 -0.5267  0.1894
  136MOL    H9243562   7.738   1.731   5.030  0.6935  1.4164  0.1179
  136MOL    H9343563   7.714   1.966   5.130  0.1024  0.5304 -3.3154
  136MOL    H9443564   7.290   1.908   5.116 -0.0430  0.2119 -0.1086
  136MOL    H9543565   7.314   1.688   5.025  0.4312  0.7513 -1.7331
  136MOL    H9643566   7.440   1.455   5.148 -2.9347 -0.2842 -0.7299
  136MOL    H9743567   7.356   1.463   4.996  0.0656  1.2563 -1.1008
  136MOL    C9843568   7.490   1.286   5.030 -0.2113 -0.3614 -0.0947
  136MOL    C9943569   7.613   1.259   5.107 -0.7187 -0.7230 -0.7066
  136MOL   C10043570   7.734   1.264   5.039 -0.0483  0.1228 -0.0649
  136MOL   C10143571   7.853   1.227   5.106 -0.5661  0.1266 -0.0433
  136MOL   C10243572   7.856   1.203   5.244 -0.2259  0.4906  0.4004
  136MOL   F10343573   7.975   1.190   5.307  1.0354  0.8452 -0.1574
  136MOL   C10443574   7.732   1.208   5.316  0.6292 -0.5545 -0.1672
  136MOL   C10543575   7.610   1.227   5.245  0.1563  0.5003  0.6126
  136MOL   C10643576   7.363   1.193   5.073 -1.0307 -0.5835 -0.2781
  136MOL   H10743577   7.512   1.272   4.924 -1.2006  0.4463 -0.4114
  136MOL   H10843578   7.732   1.291   4.935  0.9906 -2.5566 -0.8210
  136MOL   H10943579   7.943   1.218   5.047  0.7796 -4.1360  2.4280
  136MOL   H11043580   7.719   1.200   5.423  0.4527 -1.0458 -0.2213
  136MOL   H11143581   7.524   1.219   5.309 -0.1599 -2.3659 -0.0724
  136MOL   H11243582   7.335   1.223   5.174  0.9709  1.7798 -0.3812
  136MOL   H11343583   7.272   1.216   5.017 -1.1308 -0.4487 -0.0598
  136MOL   C11443584   7.383   1.041   5.060 -0.0703  0.0734  0.3795
  136MOL   C11543585   7.295   0.962   5.160 -0.4325  0.1090 -0.6347
  136MOL   C11643586   7.156   0.941   5.151  0.4514 -0.3282 -0.0989
  136MOL   C11743587   7.086   0.861   5.248 -0.3840 -0.2871 -0.4149
  136MOL   C11843588   7.158   0.815   5.358  0.3102 -0.0825  0.1259
  136MOL   F11943589   7.083   0.747   5.455  0.0974  0.0410 -0.0626
  136MOL   C12043590   7.295   0.840   5.374  0.1816 -0.7845  0.0577
  136MOL   C12143591   7.367   0.916   5.276  1.0842  0.6305 -0.5099
  136MOL   C12243592   7.360   1.002   4.912 -0.0019 -0.5170 -1.0457
  136MOL   H12343593   7.485   1.016   5.089 -0.1835  0.5037  1.1455
  136MOL   H12443594   7.106   0.978   5.062  1.2966  0.5968 -0.1976
  136MOL   H12543595   6.979   0.851   5.250 -0.3266 -0.5877  1.3065
  136MOL   H12643596   7.341   0.802   5.464 -0.4093 -0.1092  0.6484
  136MOL   H12743597   7.474   0.930   5.286  1.0553  2.1415 -2.0624
  136MOL   H12843598   7.281   1.066   4.873  0.1664  0.6429  0.4546
  136MOL   H12943599   7.441   1.047   4.855 -0.9181  1.3293 -0.9561
  136MOL   C13043600   7.332   0.855   4.872  0.0520 -0.5487 -0.2938
  136MOL   C13143601   7.261   0.850   4.731  0.3188 -0.5797  0.8102
  136MOL   C13243602   7.318   0.911   4.619 -0.0848  0.3201  0.3372
  136MOL   C13343603   7.247   0.910   4.492  0.1182 -0.4451  0.1772
  136MOL   C13443604   7.121   0.848   4.480  0.4498 -0.0036 -0.2916
  136MOL   F13543605   7.059   0.824   4.363 -0.2182 -0.2370  0.4397
  136MOL   C13643606   7.073   0.779   4.591 -0.7482 -0.0673  0.2651
  136MOL   C13743607   7.134   0.783   4.720 -0.0071  0.8935 -0.1295
  136MOL   C13843608   7.458   0.769   4.874 -0.4156  0.0915  0.1274
  136MOL   H13943609   7.268   0.808   4.947  0.7883 -0.7659  0.2134
  136MOL   H14043610   7.410   0.967   4.627  1.3138 -1.7762 -0.7087
  136MOL   H14143611   7.278   0.960   4.402 -1.5937  1.4147  0.5777
  136MOL   H14243612   6.985   0.718   4.579 -2.1325  2.1492 -1.1849
  136MOL   H14343613   7.092   0.736   4.808  0.3355 -0.1400 -0.5051
  136MOL   H14443614   7.522   0.780   4.786  0.9065 -0.9726  0.9288
  136MOL   H14543615   7.520   0.796   4.960 -0.3950 -1.0818  0.4952
  136MOL   C14643616   7.430   0.618   4.902  0.0780 -0.0076 -0.1410
  136MOL   C14743617   7.542   0.529   4.843 -0.5573  0.4358 -0.2189
  136MOL   C14843618   7.505   0.426   4.754  0.2857  0.4068  0.4884
  136MOL   C14943619   7.605   0.335   4.701  0.6576 -0.0849 -0.8442
  136MOL   C15043620   7.734   0.341   4.760  0.3290 -0.0601  0.1786
  136MOL   F15143621   7.828   0.251   4.717  0.0901 -0.1230  0.1718
  136MOL   C15243622   7.775   0.453   4.836  0.3894  0.5878  0.0055
  136MOL   C15343623   7.677   0.539   4.888 -0.1283  0.2879  0.1828
  136MOL   C15443624   7.393   0.585   5.048 -0.5787 -0.0578  0.7083
  136MOL   H15543625   7.342   0.594   4.842  0.4296  0.7043 -0.9600
  136MOL   H15643626   7.407   0.406   4.713  0.5029 -1.0603  0.6467
  136MOL   H15743627   7.567   0.259   4.634 -0.3886  0.7428 -1.1866
  136MOL   H15843628   7.880   0.458   4.862  0.4285 -1.9068  0.4229
  136MOL   H15943629   7.702   0.609   4.966  1.2986 -0.8642  0.7819
  136MOL   H16043630   7.491   0.553   5.083 -0.2458 -1.0624 -1.0795
  136MOL   H16143631   7.356   0.669   5.107  0.9592  0.8069  0.4743
  136MOL   C16243632   7.296   0.471   5.065 -0.3441  0.4544  0.2919
  136MOL   C16343633   7.330   0.403   5.195  0.3128  0.2368  0.0451
  136MOL   C16443634   7.374   0.480   5.307 -0.6374 -0.0353  0.7427
  136MOL   C16543635   7.413   0.412   5.425  0.2416 -1.0556 -0.5231
  136MOL   C16643636   7.395   0.277   5.440  0.0128 -0.5066 -0.1764
  136MOL   F16743637   7.412   0.221   5.560 -0.3529 -0.4218 -0.2944
  136MOL   C16843638   7.342   0.204   5.331  0.2979  0.1061 -0.6166
  136MOL   C16943639   7.319   0.260   5.206 -0.2175 -0.1376  0.3858
  136MOL   C17043640   7.149   0.530   5.063  0.1789  0.4738 -0.3239
  136MOL   H17143641   7.312   0.404   4.980  1.3388  0.0604  0.9057
  136MOL   H17243642   7.377   0.588   5.308 -0.2338 -0.0473  0.6927
  136MOL   H17343643   7.441   0.470   5.512  1.1119  0.6950 -1.9508
  136MOL   H17443644   7.333   0.097   5.330  0.2322  0.1051 -2.4623
  136MOL   H17543645   7.291   0.200   5.121 -1.3956 -1.6639  1.8159
  136MOL   H17643646   7.133   0.594   5.150  0.3994  1.7017 -1.1625
  136MOL   H17743647   7.140   0.590   4.972  0.2130 -0.1375 -0.7319
  136MOL   C17843648   7.047   0.413   5.052 -0.4727 -0.3322 -0.3652
  136MOL   C17943649   6.932   0.450   5.147  0.3408 -1.0943  0.0566
  136MOL   C18043650   6.940   0.436   5.286  0.5536 -0.1821 -0.2691
  136MOL   C18143651   6.834   0.462   5.368  0.6579  0.5879 -0.6122
  136MOL   C18243652   6.710   0.501   5.318 -0.9436  0.3554 -0.2093
  136MOL   F18343653   6.606   0.519   5.403  0.0331 -0.2107 -0.4212
  136MOL   C18443654   6.694   0.517   5.182  0.2693 -0.1632 -0.4140
  136MOL   C18543655   6.804   0.494   5.098  0.3083  0.5661  0.1393
  136MOL   C18643656   6.994   0.394   4.904 -0.3577 -0.2809 -0.8787
  136MOL   H18743657   7.083   0.320   5.097 -4.0682  0.1005  3.7862
  136MOL   H18843658   7.025   0.401   5.342 -0.3480  1.9814  2.5773
  136MOL   H18943659   6.845   0.447   5.475  2.4609 -0.6684 -0.9498
  136MOL   H19043660   6.597   0.541   5.140 -0.9786 -0.3803  2.2631
  136MOL   H19143661   6.792   0.507   4.991 -2.0601  0.9979  0.4346
  136MOL   H19243662   6.897   0.343   4.902 -0.6195  0.1858 -0.1061
  136MOL   H19343663   6.967   0.489   4.858 -1.5298 -0.9130 -1.5265
  136MOL   C19443664   7.081   0.326   4.796  0.5689  0.8932 -0.0909
  136MOL   C19543665   7.144   0.201   4.851 -0.1502 -0.0855  0.6560
  136MOL   C19643666   7.272   0.160   4.805 -0.6528  0.4555 -0.3919
  136MOL   C19743667   7.322   0.031   4.837  0.6939  0.4054  0.1101
  136MOL   C19843668   7.248   8.173   4.918 -0.5214  0.6648 -0.0907
  136MOL   F19943669   7.299   8.049   4.954 -0.1700  0.8420  0.2354
  136MOL   C20043670   7.123   8.223   4.969  0.2796 -0.1917 -0.0259
  136MOL   C20143671   7.072   0.114   4.931 -0.2536  0.5671 -0.0853
  136MOL   C20243672   7.017   0.313   4.653 -0.2966 -0.2038  0.0552
  136MOL   H20343673   7.165   0.394   4.788  2.4188 -0.6405  4.3784
  136MOL   H20443674   7.323   0.226   4.736 -2.6065  0.3813 -1.9834
  136MOL   H20543675   7.417   8.232   4.797  1.6593 -0.8483  3.2759
  136MOL   H20643676   7.050   8.165   5.023  0.2532 -0.2631 -0.1394
  136MOL   H20743677   6.967   0.137   4.944 -0.2807  1.0151 -1.0626
  136MOL   H20843678   7.017   0.412   4.607  2.2225 -0.5160 -0.6386
  136MOL   H20943679   7.088   0.255   4.595 -1.5378 -2.2242  0.5100
  136MOL   C21043680   6.884   0.250   4.622 -0.1354 -0.2077  0.2044
  136MOL   C21143681   6.768   0.332   4.673  0.2648  0.0406 -0.0035
  136MOL   C21243682   6.673   0.263   4.748  0.0174 -0.5119 -0.6214
  136MOL   C21343683   6.569   0.336   4.809  0.7519 -0.2728 -0.0542
  136MOL   C21443684   6.561   0.475   4.800 -0.6506 -0.1759 -0.7192
  136MOL   F21543685   6.461   0.543   4.854  0.1109 -0.1913 -0.3843
  136MOL   C21643686   6.654   0.544   4.719  0.6915  0.1874  0.1515
  136MOL   C21743687   6.756   0.473   4.656 -0.3692  0.0199 -0.1616
  136MOL   C21843688   6.865   0.201   4.477 -0.1972 -0.7992  0.7119
  136MOL   H21943689   6.885   0.161   4.686 -0.2453 -0.4113 -0.0792
  136MOL   H22043690   6.679   0.155   4.753 -1.2294 -0.5863 -0.5578
  136MOL   H22143691   6.485   0.284   4.852 -0.4516  1.5777 -0.1117
  136MOL   H22243692   6.634   0.647   4.692 -0.3527  0.2938  1.2767
  136MOL   H22343693   6.835   0.533   4.612  0.7679 -2.0702 -1.0614
  136MOL   H22443694   6.759   0.207   4.457  0.4623  1.2867 -2.5358
  136MOL   H22543695   6.918   0.262   4.404  0.8075 -0.0908  1.9912
  136MOL   C22643696   6.925   0.059   4.457  0.3047  0.1594 -0.5370
  136MOL   C22743697   6.867   8.185   4.547 -0.4781  0.2540 -0.7135
  136MOL   C22843698   6.956   8.105   4.627  0.2855  0.6502 -0.7920
  136MOL   C22943699   6.900   8.003   4.716  0.2160 -0.8734 -0.4903
  136MOL   C23043700   6.764   7.984   4.725 -0.1663  0.6741 -0.4929
  136MOL   F23143701   6.714   7.877   4.803  0.1052  0.0333 -0.0648
  136MOL   C23243702   6.677   8.060   4.641  0.2704 -0.0707 -0.1015
  136MOL   C23343703   6.729   8.162   4.554  0.0852  0.3178  0.2764
  136MOL   C23443704   6.917   0.014   4.303 -0.4055 -0.2823 -0.3985
  136MOL   H23543705   7.030   0.070   4.485  0.0647  0.0889  0.4103
  136MOL   H23643706   7.063   8.121   4.631  0.5194 -1.0264  0.3012
  136MOL   H23743707   6.966   7.954   4.787 -0.6744 -2.3469 -0.6481
  136MOL   H23843708   6.571   8.043   4.634  0.3487 -0.7627  0.3059
  136MOL   H23943709   6.664   8.220   4.490 -0.7367 -1.3506 -0.4184
  136MOL   H24043710   6.920   8.140   4.294  0.3289 -0.1307 -2.3889
  136MOL   H24143711   6.821   0.046   4.264 -0.3135 -3.5416 -3.5297
  136MOL   C24243712   7.026   0.061   4.199 -0.8629 -0.1778 -0.4769
  136MOL   C24343713   7.162   0.053   4.267  0.0141 -0.0196  0.1296
  136MOL   C24443714   7.229   8.167   4.284 -0.4686 -0.0729 -0.3291
  136MOL   C24543715   7.353   8.161   4.349  0.2144 -0.5788 -0.7131
  136MOL   C24643716   7.405   0.049   4.399  1.1169  0.0921 -0.3777
  136MOL   F24743717   7.514   0.056   4.478 -0.0325 -0.3404 -0.2870
  136MOL   C24843718   7.339   0.169   4.382  0.1795  0.2196  0.5843
  136MOL   C24943719   7.221   0.178   4.316 -0.2866 -0.2614 -0.0963
  136MOL   C25043720   7.019   8.225   4.062 -0.5596  0.0587  0.3724
  136MOL   H25143721   7.011   0.167   4.183  0.3640 -0.0837 -1.0330
  136MOL   H25243722   7.184   8.071   4.261  1.2544 -0.4889 -2.0532
  136MOL   H25343723   7.401   8.069   4.381  0.6872 -0.0001  0.2727
  136MOL   H25443724   7.377   0.265   4.412  0.8110  0.1305  0.1014
  136MOL   H25543725   7.171   0.273   4.305  1.4838  0.7942  0.9283
  136MOL   H25643726   7.111   0.011   4.008 -0.7584  1.5643  0.5827
  136MOL   H25743727   7.023   8.116   4.072  1.6276 -0.1407 -2.1454
  136MOL   C25843728   6.902   0.015   3.964 -0.1644 -0.0340  0.4198
  136MOL   C25943729   6.890   0.157   3.920  0.0937 -0.1054 -0.1300
  136MOL   C26043730   6.776   0.243   3.952 -0.1943 -0.2291  0.9851
  136MOL   C26143731   6.780   0.383   3.933 -0.0723 -0.2565  0.0055
  136MOL   C26243732   6.896   0.440   3.881  0.8124  0.2864  0.8376
  136MOL   F26343733   6.897   0.571   3.843 -0.5912  0.7470  0.2644
  136MOL   C26443734   7.005   0.355   3.853 -0.2556 -0.0413  0.0799
  136MOL   C26543735   7.003   0.217   3.867  0.2449 -0.5116 -0.1362
  136MOL   C26643736   6.918   8.160   3.831  0.5256 -0.3010 -0.0477
  136MOL   H26743737   6.808   8.231   4.017 -0.2060 -0.5162  0.1865
  136MOL   H26843738   6.683   0.212   3.997 -0.5270  2.5746  2.3528
  136MOL   H26943739   6.694   0.436   3.971 -0.2864 -0.7854  0.2648
  136MOL   H27043740   7.095   0.404   3.819 -1.1050 -0.3629 -2.7627
  136MOL   H27143741   7.095   0.169   3.838  2.1559  1.1985  2.7615
  136MOL   H27243742   7.009   8.198   3.784  0.5897  1.3826  1.4207
  136MOL   H27343743   6.942   8.060   3.867  4.5137  0.4229 -0.4929
  136MOL   C27443744   6.801   8.165   3.731 -0.6448 -0.7875  0.2307
  136MOL   C27543745   6.828   8.107   3.597 -0.7658  0.0501  1.0708
  136MOL   C27643746   6.813   8.182   3.475  0.3354 -0.4147 -0.2838
  136MOL   C27743747   6.860   8.130   3.359 -0.1197 -0.4865  0.4415
  136MOL   C27843748   6.909   7.998   3.347  0.3480  0.1366 -0.5403
  136MOL   F27943749   6.952   7.955   3.225 -0.2571  0.2832 -0.6090
  136MOL   C28043750   6.914   7.921   3.463 -0.5767  0.0865 -0.1467
  136MOL   C28143751   6.883   7.977   3.589 -0.8504  0.4110  0.6507
  136MOL   C28243752   6.674   8.110   3.798 -0.1869 -0.3155  0.0487
  136MOL   H28343753   6.777   0.033   3.701  1.8581 -0.3042 -0.2306
  136MOL   H28443754   6.757   0.040   3.467 -2.3245 -2.0241 -1.2368
  136MOL   H28543755   6.842   8.184   3.267  0.6555 -0.7640  0.1168
  136MOL   H28643756   6.955   7.822   3.456 -0.6367  0.0441  0.1079
  136MOL   H28743757   6.904   7.920   3.678 -3.1736  1.5164  1.9645
  136MOL   H28843758   6.695   8.012   3.840  0.3340 -0.6206 -0.9202
  136MOL   H28943759   6.653   8.173   3.885 -0.8287 -1.3085  0.6257
  136MOL   C29043760   6.542   8.087   3.717 -0.1773  0.2817  0.5335
  136MOL   C29143761   6.454   7.974   3.772  0.2534  0.2237  0.1828
  136MOL   C29243762   6.445   7.967   3.912 -0.8663 -0.4396 -0.0917
  136MOL   C29343763   6.377   7.861   3.972 -0.0472 -0.5750  0.2473
  136MOL   C29443764   6.311   7.765   3.891  0.3526 -0.3673 -0.2660
  136MOL   F29543765   6.269   7.648   3.951 -0.2224 -0.1518 -0.0405
  136MOL   C29643766   6.320   7.773   3.748 -1.2602  0.3224  0.2498
  136MOL   C29743767   6.391   7.877   3.689  0.1810 -0.8275  0.1289
  136MOL   C29843768   6.460   8.214   3.691  0.4481 -0.5087 -0.4084
  136MOL   H29943769   6.565   8.038   3.622  0.6576  0.8358  0.4460
  136MOL   H30043770   6.484   8.043   3.978  1.5808 -0.7748 -1.1290
  136MOL   H30143771   6.370   7.864   4.080  1.4970  1.6874  0.3279
  136MOL   H30243772   6.285   7.693   3.685 -0.3369 -0.6123  0.9071
  136MOL   H30343773   6.412   7.872   3.583 -1.4332 -1.1718 -0.1864
  136MOL   H30443774   6.428   0.023   3.786  2.8287 -0.8669  0.5836
  136MOL   H30543775   6.529   0.054   3.651 -1.7205  3.2260  2.5101
  136MOL   C30643776   6.334   8.209   3.593 -0.0274  0.1228  0.2373
  136MOL   C30743777   6.236   0.088   3.617 -0.2194 -0.2419  0.1697
  136MOL   C30843778   6.275   0.219   3.584  0.5706  0.1322  0.8536
  136MOL   C30943779   6.190   0.327   3.599 -0.3955  0.1346 -0.2428
  136MOL   C31043780   6.062   0.307   3.662 -0.6521 -0.1043  0.1792
  136MOL   F31143781   5.990   0.411   3.700  0.3640  0.5322  0.6472
  136MOL   C31243782   6.026   0.180   3.708 -0.0983  0.7128 -0.5754
  136MOL   C31343783   6.114   0.069   3.685  0.8341 -0.3882 -0.0530
  136MOL   C31443784   6.372   8.191   3.448  0.8859 -0.2454  0.1358
  136MOL   H31543785   6.281   8.117   3.617  0.7027  0.3177  2.6935
  136MOL   H31643786   6.372   0.237   3.540  0.5603 -0.8410  0.4178
  136MOL   H31743787   6.227   0.416   3.551  0.9066 -1.3734 -2.1288
  136MOL   H31843788   5.935   0.169   3.766 -0.0825  0.5728 -0.5750
  136MOL   H31943789   6.084   8.203   3.714 -1.0253 -0.0740 -0.8306
  136MOL   H32043790   6.431   8.100   3.447 -2.2001 -2.4223 -4.4539
  136MOL   H32143791   6.280   8.178   3.390  0.4340  1.3820  0.4365
  136MOL   H32243792   6.432   0.041   3.412  1.1820 -1.2108 -1.6930
  137MOL     C143793   4.921   8.200   6.362  0.4001  0.0644  0.1976
  137MOL     C243794   4.805   8.115   6.327 -0.2401  1.2172  0.1472
  137MOL     C343795   4.710   8.165   6.231 -0.0002  0.6275  0.7009
  137MOL     C443796   4.601   8.088   6.195  0.1633 -0.3225  1.5597
  137MOL     C543797   4.582   7.958   6.248  0.2773  0.0510 -0.4024
  137MOL     F643798   4.485   7.878   6.198  0.5092 -0.0806 -0.2304
  137MOL     C743799   4.668   7.911   6.346  0.0018 -0.2382 -0.7690
  137MOL     C843800   4.786   7.988   6.385  1.1030  0.6098 -0.2416
  137MOL     C943801   4.911   0.000   6.509 -0.2605 -0.4065  0.7464
  137MOL    H1043802   4.938   0.046   6.290  0.7391  0.1456  0.3693
  137MOL    H1143803   4.721   0.029   6.188  3.9565 -0.4325 -0.9952
  137MOL    H1243804   4.532   8.125   6.120  1.3195 -0.7321  0.2616
  137MOL    H1343805   4.646   7.813   6.387 -0.4775  0.1350 -0.1220
  137MOL    H1443806   4.859   7.949   6.455  0.6713 -1.1326 -0.7423
  137MOL    H1543807   4.812   0.045   6.521 -0.3878  0.3356 -2.4413
  137MOL    H1643808   4.900   8.145   6.570 -0.3756  0.2388  1.6807
  137MOL    H1743809   5.004   8.130   6.351 -0.8720 -1.3806 -0.5745
  137MOL    C1843810   5.026   0.085   6.565 -0.4325 -0.7709 -0.5698
  137MOL    C1943811   5.056   0.210   6.479 -0.5490  0.3315 -0.0761
  137MOL    C2043812   4.942   0.292   6.443 -0.5165  0.2132  0.2070
  137MOL    C2143813   4.964   0.403   6.355 -0.2961 -0.1708  0.4965
  137MOL    C2243814   5.095   0.435   6.321 -0.5490  0.3082 -0.1829
  137MOL    F2343815   5.105   0.515   6.218  0.5199  0.2648 -0.3139
  137MOL    C2443816   5.211   0.364   6.368  0.1709  0.4044 -0.0788
  137MOL    C2543817   5.191   0.243   6.441 -0.7421  0.4552 -0.6589
  137MOL    C2643818   5.008   0.122   6.710  0.4718 -0.3161 -0.6521
  137MOL    H2743819   5.122   0.032   6.562  0.1634  0.2761 -0.1748
  137MOL    H2843820   4.843   0.260   6.469 -0.5074 -0.7867 -0.9649
  137MOL    H2943821   4.888   0.466   6.310 -0.7896 -1.4248 -0.4808
  137MOL    H3043822   5.310   0.390   6.332  0.2505  0.7929  0.4097
  137MOL    H3143823   5.269   0.177   6.477 -1.8783 -0.7554 -0.3577
  137MOL    H3243824   5.093   0.190   6.718  0.1366 -0.1054  1.3652
  137MOL    H3343825   4.914   0.177   6.705 -0.7257 -2.4188 -1.5810
  137MOL    C3443826   5.016   0.012   6.814  0.5263 -0.2234  0.1797
  137MOL    C3543827   5.161   0.003   6.858  0.9678 -0.6658 -0.1669
  137MOL    C3643828   5.245   8.131   6.797  0.3195  0.0408 -0.0549
  137MOL    C3743829   5.381   8.119   6.820  0.0080  0.0096 -0.6448
  137MOL    C3843830   5.443   8.208   6.904  0.4835 -0.1005  0.2856
  137MOL    F3943831   5.579   8.208   6.928 -0.7644 -0.0799 -0.4274
  137MOL    C4043832   5.365   0.067   6.976  0.4668 -0.0725 -0.1807
  137MOL    C4143833   5.226   0.082   6.957  0.1111 -0.5190 -0.0224
  137MOL    C4243834   4.924   0.026   6.939 -0.0864  0.2354  0.4607
  137MOL    H4343835   4.982   8.153   6.771 -1.4380  0.4371  0.2506
  137MOL    H4443836   5.201   8.064   6.725  1.8325  0.9968 -1.9139
  137MOL    H4543837   5.445   8.051   6.766  1.8952  1.0011  0.3020
  137MOL    H4643838   5.418   0.143   7.031  0.7070 -2.2585  2.7590
  137MOL    H4743839   5.173   0.155   7.017  0.7034  0.8794 -1.1621
  137MOL    H4843840   4.953   8.180   7.006  2.1709  1.5609  1.1141
  137MOL    H4943841   4.955   0.114   6.996 -1.4064  0.1068  1.3988
  137MOL    C5043842   4.769   0.019   6.914 -0.4214 -0.8371  0.1220
  137MOL    C5143843   4.722   8.117   6.858  0.2714 -0.1301 -0.1710
  137MOL    C5243844   4.647   8.102   6.735 -0.6905  0.2666  0.7587
  137MOL    C5343845   4.618   7.974   6.684 -0.1144 -0.1797 -0.1498
  137MOL    C5443846   4.665   7.860   6.750  0.2457  0.2879  0.7209
  137MOL    F5543847   4.667   7.738   6.694  0.1121 -0.2566 -0.1410
  137MOL    C5643848   4.736   7.873   6.875 -0.0463 -0.3776  0.3061
  137MOL    C5743849   4.753   7.999   6.929 -0.4705 -0.2219  0.3677
  137MOL    C5843850   4.700   0.049   7.039  0.1350 -0.4861  0.1722
  137MOL    H5943851   4.734   0.090   6.839 -0.2453 -0.7534  0.1168
  137MOL    H6043852   4.612   8.191   6.685  1.7318  1.0473  0.4036
  137MOL    H6143853   4.552   7.983   6.598 -2.6562  1.0787  1.8515
  137MOL    H6243854   4.749   7.791   6.944  1.5665 -0.0891  0.3775
  137MOL    H6343855   4.821   7.999   7.013 -2.2347  0.1544  1.8130
  137MOL    H6443856   4.601   0.004   7.044 -0.1999  0.2783  0.4151
  137MOL    H6543857   4.744   8.230   7.123 -0.9368  2.8572  2.9570
  137MOL    C6643858   4.687   0.199   7.084  0.3108 -0.1191  0.2205
  137MOL    C6743859   4.607   0.290   6.989  0.8660  0.0991 -0.7880
  137MOL    C6843860   4.477   0.271   6.947 -0.2275 -0.0253  0.2833
  137MOL    C6943861   4.411   0.353   6.849 -0.2364 -0.4129 -0.7430
  137MOL    C7043862   4.478   0.460   6.795 -0.0133 -0.0339  0.3531
  137MOL    F7143863   4.410   0.544   6.718  0.0550 -0.1535 -0.1516
  137MOL    C7243864   4.609   0.491   6.842  0.5644  0.0277 -0.4429
  137MOL    C7343865   4.676   0.402   6.935  0.1819  0.5736 -1.5797
  137MOL    C7443866   4.630   0.224   7.232 -0.1337 -0.4587  0.1047
  137MOL    H7543867   4.783   0.250   7.085  1.2771 -1.9183  1.0607
  137MOL    H7643868   4.430   0.177   6.973 -0.9364 -0.1796 -1.4580
  137MOL    H7743869   4.309   0.336   6.817 -0.8504 -0.5696  1.2406
  137MOL    H7843870   4.662   0.579   6.811  0.1046  0.8466  1.0435
  137MOL    H7943871   4.773   0.424   6.976  0.5650 -0.0256 -2.1460
  137MOL    H8043872   4.616   0.332   7.240  2.2661  0.1017 -2.4252
  137MOL    H8143873   4.533   0.174   7.231 -0.1691 -0.4014  0.6253
  137MOL    C8243874   4.717   0.173   7.350  0.0014 -0.4299 -0.3899
  137MOL    C8343875   4.805   0.281   7.417  0.2469 -0.4611  0.2704
  137MOL    C8443876   4.940   0.254   7.450 -0.4255  0.5086 -0.0058
  137MOL    C8543877   5.021   0.347   7.514  0.1789  0.0932 -0.9502
  137MOL    C8643878   4.970   0.473   7.552  0.2103 -0.2033  0.6264
  137MOL    F8743879   5.042   0.572   7.614  0.3162 -0.1636  0.5133
  137MOL    C8843880   4.837   0.499   7.514  0.3893  0.2629  0.0639
  137MOL    C8943881   4.750   0.407   7.449 -0.1392 -0.4894 -0.3133
  137MOL    C9043882   4.635   0.112   7.469  0.1909  0.5052  0.3007
  137MOL    H9143883   4.791   0.096   7.328  1.1670 -0.3219  2.9616
  137MOL    H9243884   4.974   0.153   7.439 -2.5633 -0.4241  1.5964
  137MOL    H9343885   5.125   0.322   7.527  0.1964 -0.0257 -1.3077
  137MOL    H9443886   4.794   0.591   7.551 -0.6758  0.4807 -1.6870
  137MOL    H9543887   4.647   0.432   7.430 -1.0475 -3.6589  0.1747
  137MOL    H9643888   4.692   0.107   7.561 -1.4231  1.0424  1.3538
  137MOL    H9743889   4.561   0.188   7.491  1.1553  2.0197 -1.5791
  137MOL    C9843890   4.554   8.220   7.440 -0.2465  0.1646  0.3045
  137MOL    C9943891   4.651   8.110   7.406  0.0391 -0.5290 -0.4713
  137MOL   C10043892   4.636   8.044   7.277  0.0043 -0.7469 -0.4394
  137MOL   C10143893   4.680   7.915   7.256  0.6246  0.1682  0.2898
  137MOL   C10243894   4.754   7.851   7.356  0.3917 -0.5967  0.2663
  137MOL   F10343895   4.804   7.727   7.331  0.0157 -0.0288 -0.3814
  137MOL   C10443896   4.791   7.919   7.472  0.2403  0.5824  0.7842
  137MOL   C10543897   4.736   8.048   7.502 -1.1107 -0.0117  0.0893
  137MOL   C10643898   4.471   8.167   7.558 -0.5112 -0.2450 -0.4403
  137MOL   H10743899   4.483   8.230   7.357  0.7247  1.9830 -0.3544
  137MOL   H10843900   4.574   8.096   7.205 -0.9811  2.3761  2.5103
  137MOL   H10943901   4.649   7.868   7.164 -2.3670 -0.4563  1.5702
  137MOL   H11043902   4.851   7.870   7.547 -0.6064 -0.9408  0.4763
  137MOL   H11143903   4.749   8.078   7.605  1.5539  1.6342 -0.6760
  137MOL   H11243904   4.539   8.135   7.637  0.4851 -4.0252 -2.7168
  137MOL   H11343905   4.422   0.015   7.610 -0.9475 -1.6746  1.4456
  137MOL   C11443906   4.395   8.032   7.532  0.4233  0.0255 -0.4845
  137MOL   C11543907   4.340   7.984   7.661 -0.2598  0.3520 -0.2581
  137MOL   C11643908   4.219   8.041   7.705 -0.0083 -0.0222 -0.0307
  137MOL   C11743909   4.162   7.976   7.818  0.0775 -0.4737 -0.7830
  137MOL   C11843910   4.223   7.869   7.891  0.3947 -0.7735 -1.2028
  137MOL   F11943911   4.160   7.807   7.997 -0.0100  0.4731 -0.6189
  137MOL   C12043912   4.338   7.810   7.844  0.4038 -0.3964  0.3629
  137MOL   C12143913   4.401   7.873   7.732 -0.0297  0.7937  0.5173
  137MOL   C12243914   4.298   8.026   7.413  0.0546  0.1490 -0.5898
  137MOL   H12343915   4.481   7.970   7.507  1.9237  1.5892  0.6413
  137MOL   H12443916   4.168   8.127   7.663 -1.5860 -0.6380  0.5600
  137MOL   H12543917   4.074   8.017   7.865 -0.8019 -0.0463 -2.7581
  137MOL   H12643918   4.383   7.719   7.879 -1.2217 -1.4714 -0.2680
  137MOL   H12743919   4.494   7.831   7.696  0.7632  1.2029  2.0665
  137MOL   H12843920   4.200   8.064   7.442 -0.0194  0.3055 -1.0435
  137MOL   H12943921   4.330   8.089   7.330  0.8745  1.6771  0.8521
  137MOL   C13043922   4.261   7.888   7.362  0.8431 -0.2096  0.9135
  137MOL   C13143923   4.156   7.905   7.254 -0.4387 -0.4971 -0.5786
  137MOL   C13243924   4.024   7.870   7.283 -0.7002 -0.8503 -0.3200
  137MOL   C13343925   3.918   7.911   7.198 -0.7755  0.6054 -0.5851
  137MOL   C13443926   3.950   7.977   7.078  0.6095  0.1822  0.0636
  137MOL   F13543927   3.853   8.009   6.990  0.2839  0.1535 -0.2022
  137MOL   C13643928   4.085   8.003   7.039  0.4845  0.1222 -0.1209
  137MOL   C13743929   4.188   7.970   7.127 -0.2895  0.2533 -0.2499
  137MOL   C13843930   4.389   7.810   7.301  0.4587 -0.5332 -1.0482
  137MOL   H13943931   4.222   7.830   7.445  0.9672 -0.0620  1.0763
  137MOL   H14043932   4.003   7.835   7.383 -0.0409 -1.2078 -0.3029
  137MOL   H14143933   3.820   7.880   7.231  0.6181 -1.3101  1.9588
  137MOL   H14243934   4.119   8.050   6.949  2.0705 -1.7877 -0.5574
  137MOL   H14343935   4.280   8.023   7.112 -1.1874  1.4901 -1.4561
  137MOL   H14443936   4.420   7.867   7.213  0.2535 -0.0658 -0.8194
  137MOL   H14543937   4.466   7.819   7.377  0.6699 -1.4654 -1.1501
  137MOL   C14643938   4.354   7.660   7.273  0.0575 -0.9928 -0.9887
  137MOL   C14743939   4.461   7.608   7.182  0.1275 -0.3223 -0.3625
  137MOL   C14843940   4.572   7.532   7.233 -1.0898  0.0297  0.5598
  137MOL   C14943941   4.677   7.493   7.147 -0.2021 -0.1212  0.7193
  137MOL   C15043942   4.672   7.521   7.007 -0.1357  0.3162 -0.6825
  137MOL   F15143943   4.768   7.482   6.927  0.5387 -0.0348  0.0522
  137MOL   C15243944   4.563   7.595   6.964  0.0909  0.2303  0.1209
  137MOL   C15343945   4.467   7.652   7.049  0.4809 -0.1603 -0.3299
  137MOL   C15443946   4.319   7.561   7.398 -0.2575 -0.6152 -1.1647
  137MOL   H15543947   4.273   7.650   7.201 -1.0531 -2.0610  0.3588
  137MOL   H15643948   4.578   7.515   7.339 -1.9888 -1.0182  0.4421
  137MOL   H15743949   4.755   7.436   7.196  0.3295 -0.2162 -0.2302
  137MOL   H15843950   4.564   7.625   6.861  0.7659 -0.4766 -0.0851
  137MOL   H15943951   4.389   7.722   7.020 -0.0742  0.6327  2.8068
  137MOL   H16043952   4.398   7.571   7.472 -1.8289 -0.4299  0.5216
  137MOL   H16143953   4.240   7.611   7.453  1.9156  3.2741 -1.4292
  137MOL   C16243954   4.277   7.413   7.362 -0.3143 -0.0344  0.1990
  137MOL   C16343955   4.293   7.330   7.489  0.3410 -0.2770 -0.4228
  137MOL   C16443956   4.218   7.365   7.602  0.2726  0.4851  0.2260
  137MOL   C16543957   4.242   7.311   7.731  0.5716  0.2953 -0.6090
  137MOL   C16643958   4.336   7.204   7.744 -0.1725 -0.0069 -0.6514
  137MOL   F16743959   4.355   7.149   7.868 -0.0198 -0.7108  0.2722
  137MOL   C16843960   4.413   7.165   7.629  0.0152 -0.4762 -0.0518
  137MOL   C16943961   4.397   7.240   7.509  0.3105  0.4263 -0.0793
  137MOL   C17043962   4.145   7.395   7.275  0.3269 -0.1616 -0.4665
  137MOL   H17143963   4.357   7.371   7.300  0.7148  0.4854  1.1526
  137MOL   H17243964   4.144   7.442   7.584 -0.4024  0.8077  4.0583
  137MOL   H17343965   4.198   7.350   7.821  0.3411 -0.1924 -0.5101
  137MOL   H17443966   4.490   7.089   7.637  0.2221 -0.1129  1.7619
  137MOL   H17543967   4.456   7.213   7.422  0.3659 -0.6965  0.2938
  137MOL   H17643968   4.053   7.430   7.321  0.3951 -0.2157 -0.2891
  137MOL   H17743969   4.157   7.449   7.181 -2.9339 -1.7955 -1.8964
  137MOL   C17843970   4.128   7.245   7.234 -0.3256 -0.3470  0.2723
  137MOL   C17943971   4.072   7.162   7.349 -0.1483  0.2205 -0.5136
  137MOL   C18043972   3.951   7.199   7.409 -1.2253  0.6168 -0.0516
  137MOL   C18143973   3.897   7.139   7.518 -0.2619  0.0564  0.2461
  137MOL   C18243974   3.974   7.031   7.574 -0.1211 -0.4003  0.1766
  137MOL   F18343975   3.934   6.979   7.688  0.1681 -0.3808 -0.6489
  137MOL   C18443976   4.091   6.983   7.516 -0.0697 -0.9268  0.1687
  137MOL   C18543977   4.139   7.048   7.399  0.0815 -0.0575  0.1288
  137MOL   C18643978   4.045   7.226   7.103  0.6728  0.3581 -0.1146
  137MOL   H18743979   4.221   7.193   7.211 -1.4017 -1.7317 -1.1562
  137MOL   H18843980   3.889   7.271   7.356 -1.4087 -1.2826 -2.5315
  137MOL   H18943981   3.811   7.171   7.575 -0.9055  0.8169 -1.1281
  137MOL   H19043982   4.141   6.899   7.561 -1.5306  0.0421  3.7387
  137MOL   H19143983   4.238   7.016   7.371 -0.3348 -0.8031 -0.5056
  137MOL   H19243984   3.939   7.239   7.126  0.8557  0.8583  0.4705
  137MOL   H19343985   4.071   7.309   7.037 -0.4693  0.2479 -0.7109
  137MOL   C19443986   4.081   7.090   7.035  0.0788  0.4485  0.3558
  137MOL   C19543987   3.957   6.997   7.039  0.8275 -0.1404 -0.0361
  137MOL   C19643988   3.847   7.014   6.953  0.1655 -0.3340  0.4780
  137MOL   C19743989   3.737   6.922   6.951 -0.1070 -0.2796 -0.7697
  137MOL   C19843990   3.740   6.808   7.037  0.4388  0.2658 -0.0360
  137MOL   F19943991   3.634   6.717   7.034 -0.3251  0.0907 -0.4350
  137MOL   C20043992   3.846   6.799   7.130  0.7785  0.6508 -0.2150
  137MOL   C20143993   3.954   6.892   7.128  0.9027  1.0287 -0.2613
  137MOL   C20243994   4.122   7.113   6.892 -0.2057 -0.2159 -0.1278
  137MOL   H20343995   4.164   7.035   7.081  0.1231  0.3162  0.1200
  137MOL   H20443996   3.832   7.100   6.889  0.5275  0.3272  1.2735
  137MOL   H20543997   3.649   6.948   6.893 -1.5701 -0.7227  1.1890
  137MOL   H20643998   3.840   6.716   7.199 -0.5144 -0.4368 -1.5966
  137MOL   H20743999   4.027   6.873   7.205 -0.9835 -2.2740  0.8543
  137MOL   H20844000   4.125   7.024   6.829 -1.5633 -0.6143  0.3708
  137MOL   H20944001   4.036   7.159   6.843  0.9598 -1.3751 -3.4254
  137MOL   C21044002   4.243   7.197   6.866 -0.1967  0.7340 -0.4946
  137MOL   C21144003   4.360   7.150   6.949  0.5973 -0.8994  0.1975
  137MOL   C21244004   4.416   7.239   7.041  0.2870  0.2414 -0.4723
  137MOL   C21344005   4.526   7.201   7.120  0.3055 -0.9006 -0.6651
  137MOL   C21444006   4.583   7.073   7.103  0.5137 -0.0003 -0.0812
  137MOL   F21544007   4.702   7.042   7.167 -0.3907 -0.1541  0.2692
  137MOL   C21644008   4.512   6.980   7.025  0.2733 -1.0369  0.5553
  137MOL   C21744009   4.407   7.021   6.946  0.8485  0.3395 -0.3088
  137MOL   C21844010   4.276   7.195   6.715  0.4897  0.4522 -0.3828
  137MOL   H21944011   4.232   7.298   6.907  0.7072  1.0057 -0.8918
  137MOL   H22044012   4.377   7.340   7.041 -1.7605 -0.5232 -0.1672
  137MOL   H22144013   4.567   7.268   7.195 -1.9640  0.8081 -0.9044
  137MOL   H22244014   4.555   6.882   7.009  1.4055 -0.9507  2.8873
  137MOL   H22344015   4.355   6.952   6.881  1.7590  1.2522 -2.0464
  137MOL   H22444016   4.384   7.208   6.706  0.5791  0.0662  0.1362
  137MOL   H22544017   4.255   7.099   6.668 -0.9442  0.5792 -0.0312
  137MOL   C22644018   4.195   7.316   6.638  0.1640  0.5419  0.0141
  137MOL   C22744019   4.248   7.452   6.675  0.0110  0.7131 -0.3618
  137MOL   C22844020   4.168   7.522   6.761  0.2452 -0.3190 -0.9325
  137MOL   C22944021   4.206   7.657   6.786  0.3790 -0.7842  0.0828
  137MOL   C23044022   4.315   7.724   6.724 -0.6739 -0.0555  0.0927
  137MOL   F23144023   4.338   7.857   6.736  0.0020  0.0143  0.0436
  137MOL   C23244024   4.393   7.648   6.634  0.1915 -0.2765  0.3947
  137MOL   C23344025   4.361   7.513   6.612 -0.2758  0.2558 -0.4564
  137MOL   C23444026   4.193   7.302   6.482  0.3076  0.7087 -0.3737
  137MOL   H23544027   4.092   7.306   6.672  0.4953  1.7142  1.4495
  137MOL   H23644028   4.088   7.485   6.823  0.0665  1.3380 -0.1354
  137MOL   H23744029   4.145   7.725   6.844  3.5693  2.4063 -0.1657
  137MOL   H23844030   4.474   7.691   6.577  0.0872 -1.7871 -0.9363
  137MOL   H23944031   4.426   7.467   6.539 -1.4261 -1.8659 -0.1560
  137MOL   H24044032   4.173   7.396   6.431  0.3314  1.2097  0.5347
  137MOL   H24144033   4.295   7.281   6.449  0.2584  1.2470 -0.8727
  137MOL   C24244034   4.099   7.195   6.414 -0.1712  0.0216 -0.6417
  137MOL   C24344035   3.957   7.199   6.469  0.0719  0.2223  0.0096
  137MOL   C24444036   3.869   7.305   6.442 -0.7423  0.2085 -0.3033
  137MOL   C24544037   3.733   7.311   6.480 -0.2879 -0.7259  0.2587
  137MOL   C24644038   3.685   7.198   6.543  0.1971  0.3346 -0.3852
  137MOL   F24744039   3.550   7.192   6.581 -0.0875 -0.1085  0.2262
  137MOL   C24844040   3.766   7.091   6.581  0.4536 -0.0886  0.5036
  137MOL   C24944041   3.901   7.088   6.538 -0.2042  0.7956  0.4745
  137MOL   C25044042   4.094   7.205   6.260 -0.4158 -0.0581 -0.9519
  137MOL   H25144043   4.139   7.100   6.450 -0.4151  1.3579  3.5033
  137MOL   H25244044   3.899   7.399   6.397 -1.1969  1.0087  1.0302
  137MOL   H25344045   3.659   7.386   6.458 -0.9253 -1.5235 -0.3656
  137MOL   H25444046   3.716   7.007   6.628  1.4447 -0.9408  0.0423
  137MOL   H25544047   3.960   7.000   6.556 -2.0349 -0.4717  0.3427
  137MOL   H25644048   4.074   7.306   6.225 -1.8790  0.6599  1.7549
  137MOL   H25744049   4.192   7.191   6.215 -0.9574 -1.6456 -1.6673
  137MOL   C25844050   3.998   7.110   6.182  0.1966 -0.2551 -0.2681
  137MOL   C25944051   4.006   7.151   6.035 -1.1818  0.0516 -0.1748
  137MOL   C26044052   4.135   7.144   5.967 -0.1798  0.5931 -0.2447
  137MOL   C26144053   4.146   7.162   5.824 -0.3297  0.5881  0.3648
  137MOL   C26244054   4.036   7.228   5.765 -0.3240 -0.3938 -0.1231
  137MOL   F26344055   4.053   7.268   5.636 -0.6405 -0.2264 -0.1361
  137MOL   C26444056   3.918   7.249   5.834 -0.2343  0.1438 -0.1295
  137MOL   C26544057   3.899   7.211   5.964 -0.2577 -0.0713  0.7552
  137MOL   C26644058   4.032   6.964   6.194 -0.0155  0.0268 -0.1353
  137MOL   H26744059   3.895   7.135   6.207  0.8293  0.3252  1.8965
  137MOL   H26844060   4.223   7.108   6.018  0.0895  0.9556 -0.4410
  137MOL   H26944061   4.241   7.146   5.776 -1.0106  3.2996 -1.9956
  137MOL   H27044062   3.837   7.286   5.772  0.2234  1.8619  0.2732
  137MOL   H27144063   3.800   7.217   6.007 -1.4110 -1.1029 -1.6319
  137MOL   H27244064   4.136   6.939   6.173 -0.0554 -1.5797  1.4774
  137MOL   H27344065   4.012   6.935   6.297  0.0300  1.3243  0.2518
  137MOL   C27444066   3.936   6.872   6.109 -0.0599  0.1437  0.7430
  137MOL   C27544067   3.969   6.730   6.151 -0.3590  0.3121  0.0223
  137MOL   C27644068   3.924   6.673   6.269 -0.4602  0.0661  0.2631
  137MOL   C27744069   3.946   6.541   6.306  0.0886 -0.3519  0.3271
  137MOL   C27844070   4.041   6.465   6.232  0.1418 -0.5367  0.2666
  137MOL   F27944071   4.078   6.342   6.272 -0.6621  0.1703  0.7471
  137MOL   C28044072   4.095   6.519   6.114  0.3994  0.3914  0.5084
  137MOL   C28144073   4.062   6.651   6.079  0.0534 -0.0614 -0.2141
  137MOL   C28244074   3.787   6.906   6.106  0.0175 -0.1109  0.1532
  137MOL   H28344075   3.969   6.882   6.006  2.1947 -2.3475  1.1784
  137MOL   H28444076   3.859   6.722   6.339 -0.8442 -0.5422  0.3396
  137MOL   H28544077   3.908   6.504   6.400  0.2610 -0.3610  0.3929
  137MOL   H28644078   4.167   6.471   6.049  2.4034  1.9512  1.4930
  137MOL   H28744079   4.113   6.696   5.995 -1.1402 -3.1607 -2.7019
  137MOL   H28844080   3.754   6.906   6.210  0.9183  0.4564  0.4484
  137MOL   H28944081   3.771   7.008   6.069  0.9195 -0.1952 -0.5032
  137MOL   C29044082   3.697   6.812   6.008 -0.5953 -0.2963 -0.1364
  137MOL   C29144083   3.648   6.684   6.078  1.0157  0.6597 -0.6802
  137MOL   C29244084   3.696   6.556   6.034  0.3031 -0.1606  0.3163
  137MOL   C29344085   3.656   6.438   6.101  0.1080 -0.4295  0.1758
  137MOL   C29444086   3.562   6.452   6.201  0.0299 -0.7538  0.0869
  137MOL   F29544087   3.518   6.338   6.259  0.0541  0.4688  1.1891
  137MOL   C29644088   3.510   6.575   6.241  0.4923  0.2275 -0.1077
  137MOL   C29744089   3.555   6.690   6.183  0.0566 -1.1339  0.6707
  137MOL   C29844090   3.584   6.890   5.931 -1.0947 -0.0505  0.3565
  137MOL   H29944091   3.762   6.778   5.927 -1.7486 -1.0725 -0.7365
  137MOL   H30044092   3.758   6.541   5.947  2.5174  0.3570  1.7822
  137MOL   H30144093   3.687   6.336   6.089 -3.5764 -2.0552  3.4451
  137MOL   H30244094   3.436   6.588   6.318  0.1891  2.5708 -0.7537
  137MOL   H30344095   3.513   6.787   6.204  1.7054 -0.4591  0.9918
  137MOL   H30444096   3.520   6.933   6.008  0.2173  0.6491  1.0706
  137MOL   H30544097   3.640   6.971   5.884  0.6267  0.0082  2.4348
  137MOL   C30644098   3.490   6.810   5.832  0.0848 -0.0216  0.6748
  137MOL   C30744099   3.373   6.900   5.772  0.1169  0.0003 -0.0193
  137MOL   C30844100   3.399   7.029   5.722 -0.3177 -0.0456 -0.2637
  137MOL   C30944101   3.301   7.119   5.676 -0.3995 -0.0060  0.3993
  137MOL   C31044102   3.169   7.079   5.669 -0.3411 -0.2618 -0.2630
  137MOL   F31144103   3.066   7.165   5.639  0.3429  0.8470 -0.8449
  137MOL   C31244104   3.143   6.946   5.707  0.7743 -0.0318 -0.3876
  137MOL   C31344105   3.240   6.856   5.759 -0.4052  0.5040 -0.0114
  137MOL   C31444106   3.561   6.743   5.715 -0.4191  0.4933 -0.2567
  137MOL   H31544107   3.439   6.735   5.892 -0.9370  0.2655  0.1923
  137MOL   H31644108   3.502   7.063   5.726  0.0160 -1.2131  1.1865
  137MOL   H31744109   3.332   7.216   5.638 -1.6507 -0.0245 -0.7302
  137MOL   H31844110   3.048   6.906   5.673  1.8093 -2.1877 -0.7586
  137MOL   H31944111   3.206   6.755   5.781 -1.1874  1.3605  2.8589
  137MOL   H32044112   3.608   6.809   5.642 -0.4322  0.3033 -0.4356
  137MOL   H32144113   3.652   6.691   5.744 -1.2852 -0.7304  0.3078
  137MOL   H32244114   3.499   6.680   5.651  3.2550 -1.7881 -1.6810
  138MOL     C144115   1.365   0.656   6.518 -0.4162 -0.1157  0.5561
  138MOL     C244116   1.436   0.792   6.530 -0.2596  0.8438  0.0244
  138MOL     C344117   1.404   0.907   6.454  0.1081 -0.0554 -0.2300
  138MOL     C444118   1.464   1.032   6.473  0.8481 -0.3797  0.3578
  138MOL     C544119   1.558   1.048   6.573  0.2863  0.3962 -0.1179
  138MOL     F644120   1.628   1.164   6.582 -0.1622  0.2169  0.0711
  138MOL     C744121   1.598   0.934   6.649 -0.2093  0.4386 -0.0881
  138MOL     C844122   1.536   0.815   6.633  0.0943  0.4020 -0.4471
  138MOL     C944123   1.230   0.657   6.445  0.8549 -0.5732  0.3708
  138MOL    H1044124   1.357   0.615   6.619  2.0657 -0.2300  0.7209
  138MOL    H1144125   1.333   0.906   6.372  1.6299  0.9854 -1.5964
  138MOL    H1244126   1.431   1.110   6.406 -1.6371 -0.5080  1.3994
  138MOL    H1344127   1.691   0.936   6.703  0.4311 -1.8470 -1.0648
  138MOL    H1444128   1.573   0.741   6.702 -2.4451  0.3566  0.9175
  138MOL    H1544129   1.169   0.744   6.466 -2.9526 -3.3307  1.1548
  138MOL    H1644130   1.255   0.653   6.339 -1.1361  0.3347 -0.1494
  138MOL    H1744131   1.442   0.607   6.459  1.6922  2.8579  0.7135
  138MOL    C1844132   1.137   0.539   6.478 -0.2285  0.7060 -0.6895
  138MOL    C1944133   1.187   0.411   6.410  0.3898  0.2684  0.4719
  138MOL    C2044134   1.289   0.329   6.467 -0.5579  0.8084  0.7497
  138MOL    C2144135   1.335   0.212   6.407  0.0637  0.1921  0.0462
  138MOL    C2244136   1.275   0.172   6.285  0.0953 -0.3942  0.2494
  138MOL    F2344137   1.304   0.051   6.232 -0.2417 -0.0863  0.1493
  138MOL    C2444138   1.178   0.253   6.225  0.4602 -0.6780 -0.4687
  138MOL    C2544139   1.133   0.369   6.283 -0.2060 -0.2233  0.0455
  138MOL    C2644140   1.108   0.516   6.627  0.4217 -0.2680 -0.0422
  138MOL    H2744141   1.041   0.565   6.433 -0.2945 -1.4823 -1.8562
  138MOL    H2844142   1.325   0.363   6.563  1.2105  0.7200  0.1418
  138MOL    H2944143   1.413   0.155   6.453 -0.2352  0.8669  1.4104
  138MOL    H3044144   1.130   0.219   6.134  0.3266  2.5461 -1.6898
  138MOL    H3144145   1.050   0.421   6.238  1.6858  1.1581 -1.8929
  138MOL    H3244146   1.042   0.430   6.642 -0.3282  0.4686  1.0104
  138MOL    H3344147   1.199   0.481   6.676 -1.4359 -1.2401  2.8102
  138MOL    C3444148   1.037   0.626   6.721  0.2604 -0.0203 -0.0339
  138MOL    C3544149   0.920   0.694   6.660 -0.8804 -0.3871 -0.0210
  138MOL    C3644150   0.935   0.816   6.604 -0.3608 -0.2050 -0.0566
  138MOL    C3744151   0.826   0.893   6.550  0.0621 -0.6883 -0.1147
  138MOL    C3844152   0.695   0.844   6.571  0.3697 -0.4945  1.1002
  138MOL    F3944153   0.593   0.925   6.540 -0.3012 -0.2797  0.2146
  138MOL    C4044154   0.671   0.719   6.632 -0.2143 -0.0511  0.3681
  138MOL    C4144155   0.789   0.638   6.674  0.8968 -0.3234  0.0754
  138MOL    C4244156   1.017   0.564   6.863 -0.4577 -0.4546 -0.5268
  138MOL    H4344157   1.113   0.702   6.737 -1.1826  1.3823  0.2730
  138MOL    H4444158   1.026   0.874   6.598 -2.4720  3.4164  1.0788
  138MOL    H4544159   0.836   0.995   6.518  0.4016 -0.1068  1.7907
  138MOL    H4644160   0.570   0.682   6.636  0.7498 -3.0106 -1.4634
  138MOL    H4744161   0.767   0.537   6.705 -1.9597  0.8511  2.1370
  138MOL    H4844162   0.948   0.480   6.857 -1.9156  0.6632  0.1759
  138MOL    H4944163   1.114   0.529   6.896 -0.3045  1.2346  0.8910
  138MOL    C5044164   0.965   0.659   6.967  0.4678  0.7896  0.4271
  138MOL    C5144165   0.939   0.583   7.103 -0.3902  0.1386 -0.4697
  138MOL    C5244166   1.052   0.540   7.183  0.4206  0.3183 -0.1298
  138MOL    C5344167   1.021   0.493   7.314 -0.3397 -0.3602  0.5858
  138MOL    C5444168   0.890   0.470   7.359  0.7718 -0.0776  1.0145
  138MOL    F5544169   0.866   0.422   7.483 -0.3922  0.6467  0.3887
  138MOL    C5644170   0.784   0.502   7.273  0.2438  0.3591  0.5457
  138MOL    C5744171   0.807   0.550   7.145 -0.5375 -0.3752  0.2646
  138MOL    C5844172   1.036   0.794   6.993  0.3146 -0.1109  0.3127
  138MOL    H5944173   0.867   0.685   6.928 -0.7529  0.1858  2.9704
  138MOL    H6044174   1.157   0.551   7.157  0.1718  3.4928  0.0085
  138MOL    H6144175   1.107   0.477   7.378 -1.2217 -1.0129  1.6250
  138MOL    H6244176   0.682   0.469   7.290  0.1198 -0.3950 -1.4488
  138MOL    H6344177   0.725   0.568   7.077  0.4509 -1.8919 -1.3435
  138MOL    H6444178   1.070   0.797   7.096  3.5052  3.3150 -0.7346
  138MOL    H6544179   1.123   0.806   6.929 -0.4129 -1.7912 -1.0136
  138MOL    C6644180   0.939   0.917   6.974 -0.4148 -0.4666  0.8788
  138MOL    C6744181   0.803   0.909   7.039  0.5579  0.0040 -0.3929
  138MOL    C6844182   0.687   0.922   6.959  0.8137 -0.3544 -0.4520
  138MOL    C6944183   0.559   0.914   7.020 -0.0083  0.1645  0.0937
  138MOL    C7044184   0.550   0.863   7.152  0.6389  0.2150  0.3032
  138MOL    F7144185   0.426   0.825   7.199 -0.4723  0.4309  0.0093
  138MOL    C7244186   0.660   0.848   7.234  0.2938 -0.3453 -0.3041
  138MOL    C7344187   0.785   0.882   7.178  0.2078  0.1643 -0.0063
  138MOL    C7444188   1.013   1.051   7.017 -0.4084 -0.1429 -0.7616
  138MOL    H7544189   0.919   0.921   6.867  1.0366 -1.2662  0.5589
  138MOL    H7644190   0.701   0.940   6.853  1.2976 -0.9706 -0.4967
  138MOL    H7744191   0.470   0.930   6.961 -1.1936 -2.8440  0.9551
  138MOL    H7844192   0.646   0.820   7.337  1.9290 -0.8388 -0.2055
  138MOL    H7944193   0.875   0.862   7.234  0.3627  0.9361  0.0328
  138MOL    H8044194   0.924   1.113   7.007  0.9646  1.7013 -1.6339
  138MOL    H8144195   1.043   1.043   7.121 -0.4066  0.5234 -0.7135
  138MOL    C8244196   1.123   1.111   6.932  0.3184 -1.0446 -0.0680
  138MOL    C8344197   1.070   1.144   6.792  0.3997  0.0626 -0.2513
  138MOL    C8444198   1.150   1.106   6.684 -0.3863  0.0403 -0.2086
  138MOL    C8544199   1.104   1.140   6.555  0.1224  0.2390  0.4257
  138MOL    C8644200   0.982   1.211   6.531  0.5874 -0.3328  0.0001
  138MOL    F8744201   0.947   1.247   6.407  0.8183  0.2292  0.5239
  138MOL    C8844202   0.916   1.259   6.644  0.5275 -0.2563  0.2569
  138MOL    C8944203   0.958   1.231   6.771  0.2843  0.3291 -0.1483
  138MOL    C9044204   1.177   1.239   6.998 -0.3044 -0.0481 -0.1969
  138MOL    H9144205   1.207   1.042   6.921  1.8635  0.6968  0.6334
  138MOL    H9244206   1.246   1.061   6.702 -0.5143  0.3095  1.1749
  138MOL    H9344207   1.169   1.111   6.474  0.0245  1.7436 -0.2067
  138MOL    H9444208   0.829   1.323   6.630  0.5333 -0.9605 -3.7970
  138MOL    H9544209   0.903   1.273   6.853  0.1824  0.5025 -0.3028
  138MOL    H9644210   1.236   1.293   6.924 -0.1400 -3.8984 -3.0707
  138MOL    H9744211   1.089   1.300   7.017 -0.9268  0.5030 -4.3447
  138MOL    C9844212   1.276   1.224   7.118  0.2739  0.3694  0.6590
  138MOL    C9944213   1.391   1.127   7.087  0.0745 -0.0884 -0.1624
  138MOL   C10044214   1.392   0.994   7.151  0.6127 -0.1182 -0.3410
  138MOL   C10144215   1.493   0.901   7.112  0.1010  0.2162 -0.5211
  138MOL   C10244216   1.596   0.936   7.024 -0.1346 -0.3283  0.2462
  138MOL   F10344217   1.698   0.856   6.993  0.6297 -0.2193  0.3167
  138MOL   C10444218   1.597   1.061   6.961  0.2095 -0.2496 -0.0287
  138MOL   C10544219   1.497   1.155   6.994  0.0036 -0.1596 -0.2936
  138MOL   C10644220   1.321   1.357   7.172 -0.0529 -0.8210  0.9704
  138MOL   H10744221   1.219   1.187   7.203 -0.8459 -0.3377 -0.3776
  138MOL   H10844222   1.326   0.974   7.234  1.0015  1.5291  0.3926
  138MOL   H10944223   1.501   0.811   7.170  0.0651  0.6970  0.2436
  138MOL   H11044224   1.679   1.090   6.898  2.7787 -0.6860  2.9945
  138MOL   H11144225   1.494   1.258   6.959 -1.4974  0.0458  0.3956
  138MOL   H11244226   1.423   1.352   7.208  0.4807 -4.1935 -0.8244
  138MOL   H11344227   1.334   1.425   7.087  1.4084  0.3219  2.0950
  138MOL   C11444228   1.233   1.430   7.271 -0.1186 -0.0296 -0.0178
  138MOL   C11544229   1.088   1.469   7.229  0.3539 -0.1113 -0.3448
  138MOL   C11644230   0.975   1.388   7.259  0.2644 -0.1451  0.6438
  138MOL   C11744231   0.848   1.430   7.218  0.1478 -0.3016 -0.1046
  138MOL   C11844232   0.835   1.545   7.139 -0.4055 -1.1170  0.7226
  138MOL   F11944233   0.708   1.589   7.113 -0.1858 -0.8558 -0.0209
  138MOL   C12044234   0.949   1.617   7.101 -0.1000 -0.1450  0.2794
  138MOL   C12144235   1.078   1.586   7.149 -0.1949  0.4589 -0.4166
  138MOL   C12244236   1.239   1.371   7.417  0.2198  0.7876 -0.7905
  138MOL   H12344237   1.288   1.524   7.283  1.5395 -0.8318 -1.1154
  138MOL   H12444238   0.985   1.299   7.318  1.0551  0.0690  0.8457
  138MOL   H12544239   0.761   1.372   7.245 -0.3179  0.2701 -0.3685
  138MOL   H12644240   0.927   1.713   7.054 -2.0036 -0.5368  0.3156
  138MOL   H12744241   1.165   1.638   7.111 -1.1429  1.0678 -1.7949
  138MOL   H12844242   1.173   1.432   7.479  0.9982  0.3688  0.4766
  138MOL   H12944243   1.190   1.273   7.420 -1.4655  1.5731 -2.0337
  138MOL   C13044244   1.374   1.361   7.492  0.0077 -0.7333  0.1215
  138MOL   C13144245   1.449   1.497   7.485 -0.2994  0.0449 -0.4374
  138MOL   C13244246   1.576   1.510   7.428  0.1210 -0.8904 -0.4783
  138MOL   C13344247   1.653   1.627   7.445  1.3051  0.6994  0.7074
  138MOL   C13444248   1.587   1.738   7.492 -0.3852 -0.0791 -0.8419
  138MOL   F13544249   1.655   1.849   7.514  0.1071 -0.1344  0.4067
  138MOL   C13644250   1.455   1.729   7.537 -0.2387  0.0109 -0.5524
  138MOL   C13744251   1.380   1.610   7.535 -0.1892 -0.1454 -0.3960
  138MOL   C13844252   1.350   1.296   7.631  0.0169 -0.3367 -0.2536
  138MOL   H13944253   1.436   1.292   7.434  3.1883  2.1597 -0.0922
  138MOL   H14044254   1.629   1.420   7.399  0.2056 -0.8036 -0.5907
  138MOL   H14144255   1.759   1.625   7.422  1.2391 -1.0214  0.4919
  138MOL   H14244256   1.404   1.814   7.581 -1.8762 -2.0463  1.6889
  138MOL   H14344257   1.285   1.601   7.585  1.1141 -1.9314  1.8660
  138MOL   H14444258   1.270   1.326   7.698  1.9917 -3.0122  3.4875
  138MOL   H14544259   1.326   1.192   7.611 -0.4928 -0.2071 -0.3243
  138MOL   C14644260   1.482   1.290   7.717 -0.6385 -0.3558 -0.4774
  138MOL   C14744261   1.477   1.401   7.821 -0.2064 -0.3382  0.9382
  138MOL   C14844262   1.558   1.510   7.805 -0.3380  0.0566  0.2516
  138MOL   C14944263   1.536   1.628   7.884  0.5056  1.0316 -0.4684
  138MOL   C15044264   1.425   1.636   7.975 -0.0697 -0.4069 -0.1737
  138MOL   F15144265   1.409   1.739   8.053  0.1101 -0.5339 -0.0428
  138MOL   C15244266   1.352   1.517   8.000 -0.2306 -0.0061 -0.2916
  138MOL   C15344267   1.372   1.405   7.919 -0.5761 -0.0599  0.1593
  138MOL   C15444268   1.513   1.157   7.790 -0.1140  0.5850  0.1803
  138MOL   H15544269   1.573   1.308   7.661 -0.9279  1.1310 -0.4850
  138MOL   H15644270   1.629   1.520   7.724  0.3227 -0.2514  0.7814
  138MOL   H15744271   1.602   1.713   7.885  1.1003  0.5792 -0.8655
  138MOL   H15844272   1.280   1.522   8.080 -0.6016 -0.3339 -0.6045
  138MOL   H15944273   1.309   1.319   7.933 -0.3606 -0.3017 -0.3421
  138MOL   H16044274   1.604   1.176   7.846 -0.1968 -2.2678  1.4008
  138MOL   H16144275   1.436   1.124   7.861  2.1012  0.2015  2.4821
  138MOL   C16244276   1.551   1.035   7.696 -0.1487 -0.3535 -0.0970
  138MOL   C16344277   1.652   1.072   7.583 -0.5680 -0.0110  0.1438
  138MOL   C16444278   1.791   1.091   7.613  0.2182  0.2771  0.9257
  138MOL   C16544279   1.886   1.109   7.506  0.2497 -0.4357  0.1366
  138MOL   C16644280   1.844   1.126   7.377  0.0545 -0.8718  0.1493
  138MOL   F16744281   1.941   1.144   7.284  0.0964 -0.0407  0.6724
  138MOL   C16844282   1.707   1.116   7.348 -0.3351 -0.8834  0.0970
  138MOL   C16944283   1.608   1.093   7.451 -0.2785  0.1733  0.8758
  138MOL   C17044284   1.592   0.905   7.770  0.0021  0.9811  0.1063
  138MOL   H17144285   1.456   1.012   7.648 -1.1768  2.9041  0.2620
  138MOL   H17244286   1.834   1.069   7.710  0.6673  1.3021  0.9620
  138MOL   H17344287   1.990   1.121   7.535  0.3341  1.5297 -0.8773
  138MOL   H17444288   1.679   1.130   7.245  2.7616  0.2260 -0.6438
  138MOL   H17544289   1.503   1.092   7.427 -0.1337 -1.6383  0.2434
  138MOL   H17644290   1.688   0.915   7.821  0.3547 -0.4599 -0.2653
  138MOL   H17744291   1.522   0.885   7.851 -1.4144 -4.5459 -2.2286
  138MOL   C17844292   1.601   0.781   7.684 -0.2537  0.5262  0.8293
  138MOL   C17944293   1.746   0.718   7.701  0.5372  0.6267  0.2038
  138MOL   C18044294   1.858   0.750   7.618  0.3171 -0.3999  0.5561
  138MOL   C18144295   1.984   0.696   7.627 -0.2482  0.1650 -0.1032
  138MOL   C18244296   2.009   0.609   7.728 -0.4573 -0.9229  0.6467
  138MOL   F18344297   2.130   0.550   7.740 -0.0981 -0.1040  0.2289
  138MOL   C18444298   1.906   0.579   7.822 -0.2678 -0.2836 -0.4706
  138MOL   C18544299   1.777   0.632   7.810 -0.1118 -0.0957 -0.4461
  138MOL   C18644300   1.478   0.682   7.708 -0.5411  0.2769  0.0132
  138MOL   H18744301   1.592   0.824   7.584  1.3696 -2.0408 -0.4820
  138MOL   H18844302   1.834   0.807   7.529  1.1002  0.3376  0.8153
  138MOL   H18944303   2.065   0.724   7.561  0.9929 -0.7246  1.0211
  138MOL   H19044304   1.938   0.519   7.905 -1.2349 -0.9393 -0.5618
  138MOL   H19144305   1.702   0.588   7.874  0.6435  2.2695  2.1389
  138MOL   H19244306   1.481   0.652   7.813 -0.3062  2.6055  0.7024
  138MOL   H19344307   1.383   0.732   7.689 -0.1622  1.8761  2.1147
  138MOL   C19444308   1.491   0.547   7.624  0.3505 -1.2757 -0.0874
  138MOL   C19544309   1.400   0.442   7.659 -0.3302 -0.0739  0.3324
  138MOL   C19644310   1.436   0.335   7.742 -0.7510 -0.9371 -0.1291
  138MOL   C19744311   1.353   0.226   7.758  0.5530 -0.0961  0.1192
  138MOL   C19844312   1.226   0.220   7.698  1.2422  0.0641  0.3476
  138MOL   F19944313   1.144   0.119   7.730 -0.4304 -0.0127 -0.2755
  138MOL   C20044314   1.189   0.322   7.619  0.4241 -0.7026  0.3280
  138MOL   C20144315   1.271   0.434   7.594 -0.0545 -0.3206 -0.0791
  138MOL   C20244316   1.503   0.572   7.467  0.1642  0.2631  0.1434
  138MOL   H20344317   1.587   0.505   7.654  1.1753  1.1392  0.7311
  138MOL   H20444318   1.529   0.350   7.795 -1.4951  1.3935  0.6087
  138MOL   H20544319   1.387   0.148   7.825 -0.1491  0.1350  0.7502
  138MOL   H20644320   1.089   0.329   7.578  0.3152  0.3611  0.7536
  138MOL   H20744321   1.233   0.523   7.546 -0.6374 -0.4046  0.2355
  138MOL   H20844322   1.404   0.591   7.426  0.1511  1.0339  0.5309
  138MOL   H20944323   1.574   0.648   7.434  1.4881 -1.8764 -2.2124
  138MOL   C21044324   1.545   0.450   7.375 -0.9932  0.6138  0.2047
  138MOL   C21144325   1.508   0.474   7.231  0.1683 -0.1676  0.8400
  138MOL   C21244326   1.399   0.402   7.178  0.0855 -0.2310 -0.0763
  138MOL   C21344327   1.372   0.410   7.042 -0.4830  0.2957  0.0767
  138MOL   C21444328   1.442   0.494   6.959  0.1651 -0.2946  0.5001
  138MOL   F21544329   1.404   0.509   6.828  0.9043  0.3295 -0.1434
  138MOL   C21644330   1.553   0.560   7.011 -1.1876  0.2085  0.4759
  138MOL   C21744331   1.585   0.553   7.146  0.0456  0.1347  0.2763
  138MOL   C21844332   1.700   0.417   7.395  0.5280  0.1524 -0.1153
  138MOL   H21944333   1.484   0.367   7.412 -0.7823 -0.2688 -1.3558
  138MOL   H22044334   1.330   0.341   7.234 -0.9571  0.1518 -0.9287
  138MOL   H22144335   1.290   0.346   7.012  0.2099 -1.7198  2.2961
  138MOL   H22244336   1.610   0.632   6.955 -0.7613 -0.3219  0.2216
  138MOL   H22344337   1.668   0.612   7.181 -0.5447  2.1508 -1.6131
  138MOL   H22444338   1.766   0.489   7.347  0.7844  0.7562  1.1116
  138MOL   H22544339   1.706   0.427   7.504 -1.1520 -0.7192  0.0715
  138MOL   C22644340   1.745   0.273   7.365 -0.1070 -0.1454  0.9373
  138MOL   C22744341   1.899   0.273   7.374 -0.2183 -0.2096 -0.1937
  138MOL   C22844342   1.971   0.257   7.258 -0.7109 -0.4892  0.0961
  138MOL   C22944343   2.111   0.257   7.252 -0.8761 -0.4822 -0.0671
  138MOL   C23044344   2.184   0.295   7.369 -0.6658  0.0748  0.2423
  138MOL   F23144345   2.315   0.304   7.370  0.2158  0.2507 -0.0193
  138MOL   C23244346   2.114   0.315   7.490  0.4689 -0.0985 -0.4941
  138MOL   C23344347   1.972   0.304   7.491  0.2415  0.1393 -0.3483
  138MOL   C23444348   1.691   0.165   7.462  0.1670 -0.3019 -0.8043
  138MOL   H23544349   1.718   0.244   7.264  1.7357  0.7558  0.1546
  138MOL   H23644350   1.916   0.245   7.166  0.0618  0.1132 -0.4561
  138MOL   H23744351   2.158   0.247   7.156  0.7770 -0.6977  0.7594
  138MOL   H23844352   2.167   0.347   7.578 -1.5560  0.4293  0.5546
  138MOL   H23944353   1.929   0.316   7.589 -1.3224 -1.1677 -0.8605
  138MOL   H24044354   1.729   0.201   7.558  2.7659  0.2754 -1.9919
  138MOL   H24144355   1.583   0.171   7.472  0.3751  1.9199  0.5376
  138MOL   C24244356   1.732   0.019   7.440  0.5728 -0.9185 -0.2477
  138MOL   C24344357   1.729   8.194   7.581 -0.3862 -0.0905 -0.1458
  138MOL   C24444358   1.854   8.154   7.638 -0.2650  0.4080  0.5421
  138MOL   C24544359   1.856   8.079   7.756 -0.2603  0.2510 -0.7123
  138MOL   C24644360   1.739   8.055   7.825 -0.8633  0.3298  0.0504
  138MOL   F24744361   1.733   7.972   7.937 -0.4010 -0.2471 -0.0216
  138MOL   C24844362   1.621   8.112   7.775  0.3198 -0.0156 -0.1628
  138MOL   C24944363   1.618   8.179   7.652  0.8540  0.3034  0.3334
  138MOL   C25044364   1.629   8.174   7.349  0.0739  0.4329  0.1270
  138MOL   H25144365   1.832   0.016   7.395  1.1181 -0.3295  0.8985
  138MOL   H25244366   1.948   8.177   7.590  0.3843 -0.2666  1.4681
  138MOL   H25344367   1.952   8.045   7.792 -0.6788 -1.8024 -1.4478
  138MOL   H25444368   1.534   8.100   7.837  0.0498  0.3997 -0.4606
  138MOL   H25544369   1.525   8.219   7.615  0.3480  0.5014  1.7874
  138MOL   H25644370   1.530   8.203   7.384  0.8741 -1.3828  4.2386
  138MOL   H25744371   1.641   8.217   7.249 -0.0752 -1.0860 -0.5510
  138MOL   C25844372   1.632   8.015   7.341  0.0822 -0.6146 -0.3061
  138MOL   C25944373   1.503   7.963   7.275 -0.1206  0.4160  0.3272
  138MOL   C26044374   1.462   7.829   7.298 -0.7344  0.6899  0.7446
  138MOL   C26144375   1.349   7.777   7.233 -0.3949  0.1146 -0.4729
  138MOL   C26244376   1.273   7.860   7.153  0.4662 -0.9624 -0.2076
  138MOL   F26344377   1.157   7.818   7.097  0.3555 -0.1796 -0.0552
  138MOL   C26444378   1.302   7.996   7.133 -0.1241  0.0135  0.4837
  138MOL   C26544379   1.421   8.049   7.192 -0.3568 -0.3371 -0.2980
  138MOL   C26644380   1.765   7.947   7.291 -0.8265  0.4372 -0.4107
  138MOL   H26744381   1.621   7.984   7.445  1.0265 -1.4709 -0.4572
  138MOL   H26844382   1.519   7.764   7.362  1.7631  1.3865 -0.6667
  138MOL   H26944383   1.325   7.672   7.245  0.8151 -0.1422 -0.1964
  138MOL   H27044384   1.230   8.060   7.084 -1.1323 -0.9410  0.6991
  138MOL   H27144385   1.458   8.149   7.177 -2.6054  0.7368  1.0966
  138MOL   H27244386   1.846   8.005   7.334 -1.5120  1.0951  0.0217
  138MOL   H27344387   1.772   7.853   7.346 -1.0135  0.5692 -0.1557
  138MOL   C27444388   1.778   7.920   7.142 -0.0328  0.1791 -0.7199
  138MOL   C27544389   1.837   8.044   7.077 -0.9303  0.2317  0.2171
  138MOL   C27644390   1.763   8.107   6.980 -0.2024  0.4829 -0.1052
  138MOL   C27744391   1.820   8.217   6.908 -0.1129 -0.5804 -0.5021
  138MOL   C27844392   1.952   0.023   6.935  0.2851  0.0234  0.3328
  138MOL   F27944393   2.005   0.126   6.859 -0.2809  0.0834 -0.3249
  138MOL   C28044394   2.011   8.209   7.047 -0.1266 -0.4639 -0.5230
  138MOL   C28144395   1.953   8.103   7.125 -0.7375  0.5573 -0.3670
  138MOL   C28244396   1.860   7.789   7.116  0.0453 -0.2037  0.8491
  138MOL   H28344397   1.676   7.909   7.106  0.1889 -1.0473 -0.9888
  138MOL   H28444398   1.666   8.066   6.957 -0.2817 -0.1462  1.2878
  138MOL   H28544399   1.768   0.040   6.833 -0.9672 -1.5670 -0.6787
  138MOL   H28644400   2.108   0.008   7.079 -0.4247  0.3649 -0.4780
  138MOL   H28744401   2.010   8.071   7.211 -2.1055 -0.8092  0.0439
  138MOL   H28844402   1.952   7.790   7.173  0.8035 -0.4221 -0.3677
  138MOL   H28944403   1.807   7.700   7.151  2.5322 -2.1604 -0.2281
  138MOL   C29044404   1.886   7.758   6.961  0.0789  0.3925 -0.0933
  138MOL   C29144405   1.992   7.651   6.950  0.5295 -0.1701 -0.2719
  138MOL   C29244406   1.960   7.513   6.971 -0.5082 -0.0432  0.2005
  138MOL   C29344407   2.059   7.410   6.952 -0.7769 -0.2620 -0.1021
  138MOL   C29444408   2.199   7.444   6.939  0.2478 -0.9126  0.3738
  138MOL   F29544409   2.294   7.347   6.926  0.2970 -0.1298 -0.5792
  138MOL   C29644410   2.231   7.582   6.946  0.2687  0.2535 -0.3177
  138MOL   C29744411   2.127   7.682   6.938  0.1626  0.3678 -0.3185
  138MOL   C29844412   1.756   7.717   6.883  0.3390  0.1548 -0.3284
  138MOL   H29944413   1.934   7.848   6.923 -0.2529  0.2670 -0.8083
  138MOL   H30044414   1.860   7.478   6.989 -1.0600  0.4399 -1.7681
  138MOL   H30144415   2.024   7.308   6.947 -1.5743  0.0088 -0.1056
  138MOL   H30244416   2.332   7.607   6.918  1.5213 -1.5768  2.3489
  138MOL   H30344417   2.152   7.787   6.936  0.7432  0.2422  0.0797
  138MOL   H30444418   1.712   7.622   6.914 -1.1061  0.0407 -2.6830
  138MOL   H30544419   1.672   7.779   6.915  0.7708 -1.1224  3.6149
  138MOL   C30644420   1.766   7.729   6.729  0.1965  0.2962 -0.3596
  138MOL   C30744421   1.771   7.596   6.653  0.1300  0.2321 -0.9096
  138MOL   C30844422   1.865   7.589   6.549  0.3963 -0.2218 -0.1796
  138MOL   C30944423   1.872   7.479   6.464  0.3486  1.1217  0.6369
  138MOL   C31044424   1.791   7.367   6.491  0.5060  0.3583 -0.2175
  138MOL   F31144425   1.797   7.259   6.406  0.4807  0.1023 -0.1905
  138MOL   C31244426   1.707   7.363   6.602 -0.3504 -0.7937  0.1662
  138MOL   C31344427   1.696   7.480   6.687 -0.0056  0.1902  0.8802
  138MOL   C31444428   1.640   7.799   6.672  0.1693  0.5680  0.4283
  138MOL   H31544429   1.857   7.782   6.704  1.5958 -1.5584  0.7328
  138MOL   H31644430   1.918   7.680   6.524 -2.2277  1.1276 -1.0119
  138MOL   H31744431   1.949   7.482   6.388  1.4980  0.9327  1.7727
  138MOL   H31844432   1.637   7.282   6.611 -1.3008  0.0458  0.5018
  138MOL   H31944433   1.620   7.477   6.764 -0.6077 -0.7087  0.2620
  138MOL   H32044434   1.626   7.781   6.565  0.8264  1.3514  0.2019
  138MOL   H32144435   1.551   7.750   6.711  1.7488  0.4236  4.0997
  138MOL   H32244436   1.641   7.902   6.707  0.0494  1.5441 -2.3522
  139MOL     C144437   3.348   2.193   4.099 -0.8698  0.2623 -1.1027
  139MOL     C244438   3.443   2.077   4.093 -0.1192 -0.3401 -0.3953
  139MOL     C344439   3.447   1.979   4.191 -0.2188  0.6164 -0.4264
  139MOL     C444440   3.542   1.875   4.180  0.0170 -0.4779  0.1074
  139MOL     C544441   3.627   1.865   4.071  0.3808  0.7904  0.5553
  139MOL     F644442   3.708   1.757   4.070  0.2462  0.1720 -0.3148
  139MOL     C744443   3.626   1.959   3.969 -0.3755 -0.2045  0.1610
  139MOL     C844444   3.531   2.066   3.980 -0.0171 -0.5097 -0.1871
  139MOL     C944445   3.222   2.160   4.024  0.5695  0.3460  0.2871
  139MOL    H1044446   3.396   2.285   4.065 -0.0363  0.9729  1.9230
  139MOL    H1144447   3.382   1.985   4.278 -0.7009 -0.6187 -0.6933
  139MOL    H1244448   3.546   1.802   4.260  0.1649 -0.6255 -0.0359
  139MOL    H1344449   3.701   1.955   3.892  1.6467  0.8056  2.0280
  139MOL    H1444450   3.522   2.133   3.897  1.3958  1.8986  1.5425
  139MOL    H1544451   3.246   2.162   3.918  0.7564  1.2085  0.3463
  139MOL    H1644452   3.196   2.055   4.039  1.1083  0.2949  0.8763
  139MOL    H1744453   3.319   2.212   4.202 -1.1506  1.9736 -1.4864
  139MOL    C1844454   3.090   2.243   4.055  0.3691  0.0735  0.5069
  139MOL    C1944455   3.097   2.372   3.974 -0.5781  0.3233 -0.1069
  139MOL    C2044456   3.119   2.501   4.034 -0.8517  0.3889 -0.0212
  139MOL    C2144457   3.143   2.614   3.951 -0.1106  0.5392 -0.2479
  139MOL    C2244458   3.136   2.598   3.810 -0.2426  0.3745 -0.1632
  139MOL    F2344459   3.150   2.700   3.724 -0.5999 -0.2740  0.8358
  139MOL    C2444460   3.117   2.467   3.752 -0.5448 -0.2366  0.2825
  139MOL    C2544461   3.092   2.358   3.834 -0.1082 -0.5092 -0.1692
  139MOL    C2644462   2.969   2.149   4.021 -0.2752  0.4209 -0.0799
  139MOL    H2744463   3.096   2.267   4.162 -1.5112  4.2326 -0.2570
  139MOL    H2844464   3.106   2.515   4.140  0.6275 -0.2444  0.2543
  139MOL    H2944465   3.154   2.712   3.994  2.3003 -0.2135  0.9905
  139MOL    H3044466   3.107   2.445   3.647  1.9836  0.4587 -0.1209
  139MOL    H3144467   3.068   2.260   3.793 -0.1103 -0.6954  0.2713
  139MOL    H3244468   2.987   2.099   3.926 -0.8218  0.6427 -0.3011
  139MOL    H3344469   2.969   2.071   4.097  0.2750  0.5778  0.0854
  139MOL    C3444470   2.828   2.204   4.021 -0.2538 -0.0650 -0.2569
  139MOL    C3544471   2.728   2.082   4.024 -0.8145  0.3812 -0.6264
  139MOL    C3644472   2.641   2.059   3.913 -0.4624 -0.3678 -0.2591
  139MOL    C3744473   2.556   1.951   3.927  0.0979  0.1226  0.1169
  139MOL    C3844474   2.559   1.865   4.034  0.2678  0.6078 -0.0846
  139MOL    F3944475   2.467   1.767   4.044  0.2711  0.1567  0.4393
  139MOL    C4044476   2.646   1.888   4.143  0.8922  0.4813 -0.1397
  139MOL    C4144477   2.726   2.000   4.141  0.9354  0.6443  0.0324
  139MOL    C4244478   2.794   2.306   4.132  1.0629 -0.0029  0.6410
  139MOL    H4344479   2.820   2.263   3.930  2.3822 -0.2178 -0.6373
  139MOL    H4444480   2.637   2.124   3.827  0.2253  1.8317  1.3210
  139MOL    H4544481   2.474   1.938   3.858 -0.8308 -0.0739  1.2210
  139MOL    H4644482   2.658   1.819   4.225 -1.4392 -2.0812 -1.8843
  139MOL    H4744483   2.802   2.019   4.216  2.0601 -0.5581 -0.7647
  139MOL    H4844484   2.766   2.247   4.220  0.9004  1.0710  1.3134
  139MOL    H4944485   2.882   2.361   4.163  0.0623  1.0296  1.6998
  139MOL    C5044486   2.673   2.407   4.091  0.7349  0.1400  0.5558
  139MOL    C5144487   2.536   2.347   4.046  0.2760  0.4037  0.5694
  139MOL    C5244488   2.472   2.257   4.135  1.1613 -0.0267  0.0907
  139MOL    C5344489   2.355   2.192   4.099  0.0817  0.2524 -0.2652
  139MOL    C5444490   2.301   2.218   3.967 -0.5178  0.1829 -0.3986
  139MOL    F5544491   2.191   2.150   3.922  0.1867 -0.1518  0.0531
  139MOL    C5644492   2.366   2.314   3.880  0.3391  0.3737 -0.1461
  139MOL    C5744493   2.482   2.381   3.920  0.4185  0.5679  0.0784
  139MOL    C5844494   2.660   2.516   4.202  0.3536  0.2069  0.2924
  139MOL    H5944495   2.721   2.451   4.004  0.1042  1.8835  1.0835
  139MOL    H6044496   2.515   2.225   4.228  0.4043  1.3203  0.9201
  139MOL    H6144497   2.309   2.123   4.169 -0.1081 -0.5122 -1.1261
  139MOL    H6244498   2.333   2.324   3.778  2.6833 -0.5314 -1.0284
  139MOL    H6344499   2.537   2.446   3.853  1.6633 -1.0494 -0.4975
  139MOL    H6444500   2.585   2.474   4.269  0.7862  0.3771  0.8957
  139MOL    H6544501   2.744   2.517   4.272 -0.2194 -0.0372  0.9825
  139MOL    C6644502   2.623   2.656   4.149  0.5403 -0.5646  0.1357
  139MOL    C6744503   2.556   2.741   4.265 -0.4384  0.0705 -0.4157
  139MOL    C6844504   2.438   2.815   4.241 -0.1675 -0.3907  0.3244
  139MOL    C6944505   2.385   2.900   4.342 -0.6286 -0.5497 -0.1588
  139MOL    C7044506   2.438   2.907   4.470  0.3673 -0.2213 -0.1100
  139MOL    F7144507   2.375   2.980   4.563 -0.4354 -0.2262  0.5919
  139MOL    C7244508   2.551   2.830   4.497 -0.4810 -0.1699  0.2251
  139MOL    C7344509   2.602   2.742   4.398  0.0229  0.1339  0.7607
  139MOL    C7444510   2.752   2.724   4.087  0.6709 -0.3129  0.4785
  139MOL    H7544511   2.542   2.651   4.076  0.2068 -0.4764  0.4937
  139MOL    H7644512   2.391   2.831   4.145 -1.6712 -0.7031  0.9888
  139MOL    H7744513   2.304   2.970   4.334 -1.4286 -1.6730 -2.3243
  139MOL    H7844514   2.583   2.831   4.600 -0.7926 -2.4385  0.3730
  139MOL    H7944515   2.693   2.686   4.411  1.2279  1.8592 -0.0324
  139MOL    H8044516   2.823   2.716   4.169 -0.0982 -3.0534  0.9224
  139MOL    H8144517   2.802   2.660   4.015  0.7842 -0.2520  0.5030
  139MOL    C8244518   2.740   2.878   4.058  0.3408 -0.4096 -0.3689
  139MOL    C8344519   2.872   2.944   4.066  0.0728  0.5523 -0.7395
  139MOL    C8444520   2.970   2.922   3.968  0.7257  0.5629 -0.0011
  139MOL    C8544521   3.091   3.000   3.977  0.2018  0.4979 -0.0334
  139MOL    C8644522   3.113   3.080   4.087  0.3195 -0.4381 -0.2379
  139MOL    F8744523   3.226   3.150   4.104  0.0417  0.2722  0.2084
  139MOL    C8844524   3.017   3.098   4.180  0.5115 -0.2027 -0.0410
  139MOL    C8944525   2.890   3.034   4.176  0.4822 -0.1297 -0.1326
  139MOL    C9044526   2.662   2.918   3.936 -0.3143 -0.1802 -0.7788
  139MOL    H9144527   2.690   2.919   4.145 -0.1864  0.5925 -1.1305
  139MOL    H9244528   2.962   2.844   3.895  2.0095  0.9123 -0.5318
  139MOL    H9344529   3.172   2.979   3.909 -0.4043  0.0178 -0.6210
  139MOL    H9444530   3.023   3.166   4.263  0.2618 -0.4515  0.1799
  139MOL    H9544531   2.816   3.062   4.249  2.6032  0.2608  1.9124
  139MOL    H9644532   2.699   2.855   3.855  0.9870  1.8972 -1.8665
  139MOL    H9744533   2.556   2.897   3.941 -0.5395  1.2716  1.2133
  139MOL    C9844534   2.661   3.058   3.877  0.2844  0.4177  0.0643
  139MOL    C9944535   2.584   3.060   3.746  0.1366 -0.6288 -0.1955
  139MOL   C10044536   2.656   3.070   3.625  0.3624  0.3762  0.2388
  139MOL   C10144537   2.598   3.055   3.499 -0.4382 -0.2748  0.6226
  139MOL   C10244538   2.459   3.054   3.490  0.5719  0.4242  0.0949
  139MOL   F10344539   2.392   3.051   3.373  0.2928  0.2828  0.1734
  139MOL   C10444540   2.381   3.049   3.608  0.2097  0.7058 -0.1432
  139MOL   C10544541   2.445   3.051   3.735  0.2354 -0.2971 -0.4661
  139MOL   C10644542   2.604   3.159   3.980  0.8388  0.2662 -0.1602
  139MOL   H10744543   2.760   3.093   3.849  0.5267 -1.7601 -1.9379
  139MOL   H10844544   2.762   3.088   3.634  0.4625  0.1527 -0.5032
  139MOL   H10944545   2.647   3.070   3.404 -1.3723 -0.3170  0.1201
  139MOL   H11044546   2.273   3.055   3.608  0.1890  0.5989 -2.2546
  139MOL   H11144547   2.377   3.049   3.819  0.7209  0.2037 -0.0661
  139MOL   H11244548   2.495   3.155   3.979  0.7529  2.3968 -0.7441
  139MOL   H11344549   2.641   3.140   4.081  2.5670 -0.0492 -0.8439
  139MOL   C11444550   2.633   3.311   3.960  0.1177  0.0807  0.9102
  139MOL   C11544551   2.780   3.338   3.978 -0.3345 -0.0826  0.7628
  139MOL   C11644552   2.823   3.413   4.096  0.2363 -0.2090  0.2392
  139MOL   C11744553   2.954   3.450   4.117 -0.0757  0.3525 -0.2197
  139MOL   C11844554   3.045   3.418   4.021  0.1984  0.3726  0.3680
  139MOL   F11944555   3.177   3.446   4.043 -0.1298 -0.3923  0.0100
  139MOL   C12044556   3.008   3.365   3.896 -0.8162  0.2145 -0.4664
  139MOL   C12144557   2.876   3.323   3.870 -0.6518 -0.4946  0.5686
  139MOL   C12244558   2.568   3.375   3.835 -0.1670  0.3553  0.0129
  139MOL   H12344559   2.586   3.355   4.048 -0.5080  0.3547  0.4448
  139MOL   H12444560   2.751   3.417   4.177 -0.9964 -1.1160 -0.8015
  139MOL   H12544561   2.987   3.491   4.211  4.2016 -1.0216 -1.0126
  139MOL   H12644562   3.086   3.351   3.822 -0.3669 -0.4087  0.1244
  139MOL   H12744563   2.856   3.287   3.770 -1.4175 -1.1712  0.9587
  139MOL   H12844564   2.616   3.473   3.829  3.2042 -1.3086 -1.5384
  139MOL   H12944565   2.607   3.327   3.745 -0.3343  0.5941 -0.1900
  139MOL   C13044566   2.414   3.392   3.840  0.2335 -0.5000 -0.1883
  139MOL   C13144567   2.352   3.484   3.946 -0.2597  0.6976  0.1293
  139MOL   C13244568   2.218   3.458   3.974  0.0509  0.7415 -0.6710
  139MOL   C13344569   2.152   3.537   4.075 -0.5323  0.0584 -0.5577
  139MOL   C13444570   2.227   3.622   4.153  1.0699 -0.0685  0.1500
  139MOL   F13544571   2.161   3.682   4.258 -0.3328  0.7084  0.2908
  139MOL   C13644572   2.367   3.640   4.132 -0.1769 -0.4025  0.3151
  139MOL   C13744573   2.426   3.580   4.020  0.2372 -0.0833  0.5441
  139MOL   C13844574   2.362   3.425   3.701 -0.1646  0.3212  0.0260
  139MOL   H13944575   2.371   3.294   3.859  1.0853 -0.9823 -0.7360
  139MOL   H14044576   2.153   3.401   3.910 -1.2534  1.1129  0.2990
  139MOL   H14144577   2.046   3.516   4.084 -0.4394 -0.6682 -1.0940
  139MOL   H14244578   2.419   3.706   4.200  0.6112 -1.6066  0.9142
  139MOL   H14344579   2.529   3.605   3.999 -0.0816  0.1206 -0.8663
  139MOL   H14444580   2.390   3.345   3.633 -0.2352 -1.0762  1.5950
  139MOL   H14544581   2.254   3.430   3.711 -0.0237 -0.0739  1.9776
  139MOL   C14644582   2.418   3.560   3.649  0.4785  0.6460  0.1054
  139MOL   C14744583   2.557   3.560   3.584 -0.3990  0.0052 -0.5276
  139MOL   C14844584   2.596   3.472   3.471 -0.6680  0.0339 -0.6605
  139MOL   C14944585   2.723   3.495   3.406 -0.3748 -0.4623 -0.0557
  139MOL   C15044586   2.813   3.597   3.450  0.0392  0.8500 -0.3891
  139MOL   F15144587   2.909   3.636   3.368  0.2863 -0.0009 -0.1540
  139MOL   C15244588   2.773   3.678   3.561 -0.0608 -0.1257  0.5722
  139MOL   C15344589   2.651   3.661   3.626  0.0240 -0.1850 -0.8192
  139MOL   C15444590   2.314   3.616   3.550 -0.0490  0.1306 -0.1113
  139MOL   H15544591   2.410   3.632   3.730 -1.3151  3.0325 -2.1277
  139MOL   H15644592   2.530   3.395   3.435 -0.5470 -0.7277  0.7175
  139MOL   H15744593   2.739   3.448   3.310  0.3393  1.5003 -0.9155
  139MOL   H15844594   2.840   3.758   3.590  0.4853 -0.2325 -0.3867
  139MOL   H15944595   2.616   3.731   3.700 -1.2452 -2.9513  1.2966
  139MOL   H16044596   2.315   3.557   3.458  1.8203 -1.5410  0.9434
  139MOL   H16144597   2.217   3.595   3.595 -0.2887 -0.7481 -1.0268
  139MOL   C16244598   2.341   3.766   3.508  0.0568  0.4441 -0.2901
  139MOL   C16344599   2.399   3.782   3.368 -0.2603  0.4877 -0.6933
  139MOL   C16444600   2.325   3.746   3.255  0.6299 -0.1056  0.6110
  139MOL   C16544601   2.398   3.738   3.133 -0.4412  0.4449  0.6012
  139MOL   C16644602   2.532   3.777   3.120 -0.2177  0.5104  0.5847
  139MOL   F16744603   2.613   3.746   3.016 -0.1517  0.4395 -0.3404
  139MOL   C16844604   2.594   3.839   3.230 -0.5650  0.3899 -0.3461
  139MOL   C16944605   2.529   3.844   3.360 -0.8738  0.0340  0.2381
  139MOL   C17044606   2.216   3.852   3.511 -0.4856  0.4350  0.2828
  139MOL   H17144607   2.417   3.809   3.573  0.6259  0.2341 -0.8091
  139MOL   H17244608   2.224   3.708   3.255  0.8336 -0.6999  3.5258
  139MOL   H17344609   2.358   3.684   3.048  2.1658  0.1550 -0.4978
  139MOL   H17444610   2.696   3.872   3.219  0.0971 -1.5264 -0.1405
  139MOL   H17544611   2.567   3.870   3.458 -0.5411 -2.3343  0.7893
  139MOL   H17644612   2.228   3.946   3.456 -1.0683 -0.8112 -2.0277
  139MOL   H17744613   2.134   3.800   3.462  0.9168  1.0513 -2.8510
  139MOL   C17844614   2.171   3.882   3.656 -0.0972 -0.7277  0.6212
  139MOL   C17944615   2.283   3.948   3.735  0.0226  0.6117 -0.0109
  139MOL   C18044616   2.336   4.067   3.688 -0.9736  0.4327 -0.2639
  139MOL   C18144617   2.444   4.128   3.745 -0.0368 -0.5166 -0.2452
  139MOL   C18244618   2.518   4.058   3.849  0.3487 -0.1922  0.2645
  139MOL   F18344619   2.635   4.107   3.900  0.3128  0.2515  0.1914
  139MOL   C18444620   2.459   3.939   3.908 -0.3094  0.5123  0.0381
  139MOL   C18544621   2.343   3.882   3.844  0.1650  0.1048  0.1335
  139MOL   C18644622   2.038   3.954   3.666 -0.4164  0.4213  0.6520
  139MOL   H18744623   2.157   3.787   3.708  1.0490 -0.3737  1.5960
  139MOL   H18844624   2.291   4.111   3.601  3.2193 -1.1360 -3.3714
  139MOL   H18944625   2.492   4.215   3.703 -1.1775 -0.5318 -1.5814
  139MOL   H19044626   2.500   3.886   3.992 -1.5298 -1.9672 -0.8887
  139MOL   H19144627   2.314   3.787   3.887  1.3828  0.1336  1.0622
  139MOL   H19244628   2.030   3.983   3.771  1.8136  3.7073  0.0154
  139MOL   H19344629   2.041   4.046   3.606 -2.8232 -0.1662 -0.4090
  139MOL   C19444630   1.921   3.867   3.624  0.3187 -0.5726  0.0944
  139MOL   C19544631   1.893   3.753   3.716  0.9995 -0.1912 -0.1729
  139MOL   C19644632   1.899   3.627   3.660 -0.0711  0.1000 -0.0406
  139MOL   C19744633   1.884   3.510   3.740  0.1520  0.3975  0.1698
  139MOL   C19844634   1.847   3.522   3.873 -0.6579 -0.5852  0.2261
  139MOL   F19944635   1.821   3.413   3.946 -1.0380 -0.0106  0.0538
  139MOL   C20044636   1.837   3.648   3.929 -0.1012  0.6899 -0.4737
  139MOL   C20144637   1.876   3.759   3.853  0.0064 -0.8151  0.7769
  139MOL   C20244638   1.787   3.951   3.612  0.2484 -0.8139 -0.2734
  139MOL   H20344639   1.947   3.842   3.521 -0.2139  1.7259 -0.6247
  139MOL   H20444640   1.923   3.620   3.555 -0.7306 -2.8233 -0.0555
  139MOL   H20544641   1.894   3.412   3.695 -0.8868  1.0727 -1.5770
  139MOL   H20644642   1.817   3.663   4.034  0.5183 -0.3664 -0.1991
  139MOL   H20744643   1.874   3.853   3.905 -0.4975  0.1822 -1.0106
  139MOL   H20844644   1.697   3.891   3.625  0.1171 -0.7137 -0.7074
  139MOL   H20944645   1.794   4.022   3.695  2.3504 -0.9373 -0.3206
  139MOL   C21044646   1.772   4.030   3.473  0.0736  0.4148 -0.1246
  139MOL   C21144647   1.779   3.933   3.358  0.4222 -0.3636  0.4734
  139MOL   C21244648   1.882   3.941   3.265  0.8759 -0.9033  0.0985
  139MOL   C21344649   1.896   3.849   3.161  0.5620 -0.2429  0.0291
  139MOL   C21444650   1.808   3.740   3.152 -0.0981  0.4705 -0.0359
  139MOL   F21544651   1.834   3.636   3.063 -0.3292 -0.3716  0.2113
  139MOL   C21644652   1.700   3.726   3.244 -0.5154  0.3513 -0.9056
  139MOL   C21744653   1.691   3.819   3.349  0.4911 -0.3319  0.6638
  139MOL   C21844654   1.646   4.122   3.467  0.1235  0.1610  0.0011
  139MOL   H21944655   1.862   4.092   3.469 -0.0332  0.4774 -2.2939
  139MOL   H22044656   1.951   4.023   3.278  0.8286 -0.7300 -0.7044
  139MOL   H22144657   1.985   3.852   3.101  0.2382  0.9794 -0.4091
  139MOL   H22244658   1.638   3.638   3.257 -0.6917  0.6670  0.4739
  139MOL   H22344659   1.610   3.809   3.420  0.9149  1.3054  1.4009
  139MOL   H22444660   1.646   4.167   3.368 -2.3949  0.4902  0.0979
  139MOL   H22544661   1.567   4.047   3.458  0.7859 -0.3858 -1.3228
  139MOL   C22644662   1.619   4.222   3.588  0.2369 -0.1058  0.5613
  139MOL   C22744663   1.736   4.318   3.598  0.4772  0.5841 -0.0616
  139MOL   C22844664   1.793   4.331   3.727 -0.5856 -1.0779 -0.0116
  139MOL   C22944665   1.906   4.416   3.738 -0.2579  1.3803 -1.1008
  139MOL   C23044666   1.963   4.487   3.626  0.3376  0.0645 -0.3777
  139MOL   F23144667   2.064   4.574   3.649  0.2935 -0.1142 -0.0395
  139MOL   C23244668   1.903   4.470   3.501  0.0224  0.1361  0.3840
  139MOL   C23344669   1.788   4.392   3.484 -0.5282  0.0594 -0.0224
  139MOL   C23444670   1.484   4.286   3.575 -0.2947  0.4929 -0.0114
  139MOL   H23544671   1.623   4.155   3.674 -0.6718 -0.0898  0.6161
  139MOL   H23644672   1.747   4.289   3.816 -0.6281  1.9983  1.5045
  139MOL   H23744673   1.947   4.409   3.838 -1.0834  0.2307 -0.8238
  139MOL   H23844674   1.945   4.515   3.412  0.3563 -0.4024  0.2703
  139MOL   H23944675   1.735   4.400   3.391 -0.8997  0.1677  0.1944
  139MOL   H24044676   1.492   4.353   3.489 -1.9323  0.1644 -0.4354
  139MOL   H24144677   1.407   4.216   3.542 -1.5435  1.7425  0.2175
  139MOL   C24244678   1.433   4.365   3.691 -1.0499  0.3015  0.2389
  139MOL   C24344679   1.325   4.474   3.656 -0.2268  0.4495  0.1294
  139MOL   C24444680   1.202   4.433   3.600 -0.1990  0.3733  0.0345
  139MOL   C24544681   1.098   4.533   3.579 -0.2832 -0.3606  0.7409
  139MOL   C24644682   1.119   4.672   3.606  0.1479  0.1956 -0.2433
  139MOL   F24744683   1.023   4.768   3.587 -0.3728  0.0582 -0.8074
  139MOL   C24844684   1.245   4.701   3.666  0.4652 -0.4722  0.1331
  139MOL   C24944685   1.341   4.606   3.703  0.0085  0.3377  0.3012
  139MOL   C25044686   1.395   4.270   3.810 -0.4591  0.7250 -0.2600
  139MOL   H25144687   1.521   4.424   3.718  1.0195 -1.5033 -2.4337
  139MOL   H25244688   1.191   4.329   3.574 -2.9844  0.8270 -0.7769
  139MOL   H25344689   1.005   4.509   3.529  0.2535 -0.8333 -0.0330
  139MOL   H25444690   1.249   4.804   3.698 -0.7192 -0.4491  0.2514
  139MOL   H25544691   1.430   4.635   3.756 -0.0470  0.2891  0.4213
  139MOL   H25644692   1.318   4.208   3.765 -1.1449 -0.2650  2.2165
  139MOL   H25744693   1.474   4.200   3.838 -2.1507 -0.0512  2.7675
  139MOL   C25844694   1.347   4.355   3.935 -0.0041 -0.4535 -0.7394
  139MOL   C25944695   1.274   4.259   4.033  0.8264  0.1381 -0.3575
  139MOL   C26044696   1.142   4.206   4.007 -0.6210 -0.6747 -0.3805
  139MOL   C26144697   1.078   4.114   4.093  0.1890 -0.0617 -0.4569
  139MOL   C26244698   1.154   4.062   4.203  0.7976  0.2455 -0.0439
  139MOL   F26344699   1.093   3.971   4.283  0.0513 -0.3309 -0.0262
  139MOL   C26444700   1.287   4.098   4.224  0.0579  0.4078  0.3704
  139MOL   C26544701   1.348   4.187   4.134 -0.0460 -0.2161 -0.2661
  139MOL   C26644702   1.451   4.449   4.011 -0.5196  0.4502 -1.1459
  139MOL   H26744703   1.272   4.426   3.899 -0.0642  0.3554  0.9306
  139MOL   H26844704   1.098   4.243   3.916  0.3006  2.4708  0.4108
  139MOL   H26944705   0.976   4.087   4.070  0.0106 -2.6233  3.0034
  139MOL   H27044706   1.346   4.063   4.307 -0.0003  0.5544  0.4736
  139MOL   H27144707   1.454   4.204   4.147 -0.4246  0.9192  1.3772
  139MOL   H27244708   1.533   4.390   4.052 -1.5150 -0.1432  0.0087
  139MOL   H27344709   1.503   4.518   3.944 -1.6140  0.9930 -1.4333
  139MOL   C27444710   1.405   4.527   4.132 -0.1714 -0.0790  0.1083
  139MOL   C27544711   1.531   4.584   4.205  0.6437  0.2412  1.0935
  139MOL   C27644712   1.620   4.669   4.140 -0.5296  0.1064  0.5540
  139MOL   C27744713   1.733   4.728   4.206 -0.7277 -0.2159 -0.4046
  139MOL   C27844714   1.741   4.716   4.344  0.6422 -0.2761 -0.4459
  139MOL   F27944715   1.845   4.784   4.400 -0.0014  0.0662  0.4723
  139MOL   C28044716   1.652   4.634   4.411  0.4217  0.2661  0.3568
  139MOL   C28144717   1.547   4.563   4.347  1.0022 -0.2056 -0.2083
  139MOL   C28244718   1.297   4.631   4.092  0.5385  0.0207  0.0189
  139MOL   H28344719   1.359   4.463   4.208  0.5827  0.1152  0.7416
  139MOL   H28444720   1.608   4.680   4.033  0.3700  0.4801  0.4862
  139MOL   H28544721   1.799   4.788   4.145  0.2530 -0.1274  0.7283
  139MOL   H28644722   1.663   4.625   4.518 -1.8320  0.2059  0.6081
  139MOL   H28744723   1.482   4.503   4.408  1.0530 -0.3644 -0.3087
  139MOL   H28844724   1.313   4.733   4.126  0.4061 -0.5513  1.8527
  139MOL   H28944725   1.303   4.642   3.984  4.1301  1.8372  0.3255
  139MOL   C29044726   1.144   4.594   4.121 -0.0174 -0.1458 -0.7503
  139MOL   C29144727   1.102   4.564   4.263 -0.0310  0.4889  0.0212
  139MOL   C29244728   1.095   4.670   4.360  0.3060  0.5873 -0.5430
  139MOL   C29344729   1.063   4.637   4.494 -0.3192 -0.0482 -0.5455
  139MOL   C29444730   1.020   4.506   4.527  0.2732 -0.1383  0.4057
  139MOL   F29544731   0.978   4.492   4.653  0.0695  0.0484 -0.1076
  139MOL   C29644732   1.017   4.408   4.432 -0.4768 -0.5278  0.1313
  139MOL   C29744733   1.060   4.433   4.304  0.6091 -0.0577  0.4953
  139MOL   C29844734   1.045   4.691   4.055 -0.0474  0.5399  0.4500
  139MOL   H29944735   1.145   4.499   4.067  1.0010 -0.5904  0.0476
  139MOL   H30044736   1.127   4.769   4.335 -2.7997  0.9557 -3.4517
  139MOL   H30144737   1.066   4.711   4.573 -0.9295  0.2120 -0.7608
  139MOL   H30244738   0.981   4.308   4.450  0.1670 -0.9743 -1.0261
  139MOL   H30344739   1.071   4.358   4.227 -0.5047 -1.8528  2.0347
  139MOL   H30444740   1.069   4.781   4.112  0.0886  0.7996 -0.0119
  139MOL   H30544741   1.088   4.706   3.956 -2.9014  0.6049 -0.8255
  139MOL   C30644742   0.896   4.648   4.058 -0.4840  0.4205 -0.6560
  139MOL   C30744743   0.804   4.762   4.010  0.4813 -0.6987  0.5425
  139MOL   C30844744   0.737   4.855   4.098 -0.1675 -0.6235 -0.1490
  139MOL   C30944745   0.651   4.955   4.060 -0.1991 -0.0782 -0.8286
  139MOL   C31044746   0.633   4.975   3.921  0.5665 -0.3901  0.6076
  139MOL   F31144747   0.536   5.062   3.879 -0.5016  0.1352  0.0966
  139MOL   C31244748   0.715   4.896   3.828 -0.4493 -0.1433 -0.5934
  139MOL   C31344749   0.797   4.788   3.873  0.0054 -0.3112  0.0074
  139MOL   C31444750   0.852   4.521   3.987  0.6180 -0.3222 -0.5686
  139MOL   H31544751   0.860   4.653   4.161 -1.3128 -1.0623 -0.8604
  139MOL   H31644752   0.753   4.854   4.205  3.0357 -3.4717 -0.5405
  139MOL   H31744753   0.607   5.017   4.137 -0.9133  0.6802 -1.8474
  139MOL   H31844754   0.704   4.919   3.723 -0.6620 -1.2556 -0.8193
  139MOL   H31944755   0.851   4.730   3.799  0.4591 -0.8241  0.7325
  139MOL   H32044756   0.900   4.438   4.038 -1.8209 -0.5339  1.4481
  139MOL   H32144757   0.747   4.502   4.010  0.6615  0.5611  0.3743
  139MOL   H32244758   0.872   4.510   3.880  0.7407  2.5066 -0.8556
  140MOL     C144759   7.598   4.996   1.754  0.2265  0.4337  0.3206
  140MOL     C244760   7.588   4.861   1.822 -1.2042 -0.6948  0.2855
  140MOL     C344761   7.684   4.820   1.911 -0.5231  0.1653  0.0642
  140MOL     C444762   7.682   4.689   1.964 -0.0438  0.4217 -0.3578
  140MOL     C544763   7.576   4.601   1.930 -0.5418 -0.6251  0.2774
  140MOL     F644764   7.574   4.472   1.968  0.0879  0.2025 -0.8804
  140MOL     C744765   7.477   4.644   1.841 -0.5163  0.7419 -0.4980
  140MOL     C844766   7.485   4.774   1.787  0.8552 -0.2984 -0.7832
  140MOL     C944767   7.532   5.109   1.835  0.0942 -0.2539  0.3662
  140MOL    H1044768   7.561   4.993   1.652  1.2003 -0.7622 -0.0088
  140MOL    H1144769   7.768   4.884   1.934  0.5565 -1.2812  0.1865
  140MOL    H1244770   7.760   4.657   2.032 -0.4161  0.4048  0.0720
  140MOL    H1344771   7.395   4.577   1.821 -0.2795 -0.1009  1.3109
  140MOL    H1444772   7.414   4.826   1.724 -0.8415 -0.4333  0.9797
  140MOL    H1544773   7.427   5.091   1.856  0.0647 -0.0696  0.3783
  140MOL    H1644774   7.587   5.110   1.929  0.1980  0.7084  0.2985
  140MOL    H1744775   7.704   5.020   1.742 -0.1618  1.0031 -2.0766
  140MOL    C1844776   7.533   5.259   1.775  0.4471 -0.0994 -0.2919
  140MOL    C1944777   7.459   5.356   1.865  0.2293 -0.9314 -0.3701
  140MOL    C2044778   7.323   5.392   1.838  1.0361 -0.0964 -0.0075
  140MOL    C2144779   7.258   5.478   1.927 -0.1892  0.0266  0.4833
  140MOL    C2244780   7.328   5.545   2.028  0.0417 -0.2454 -0.1129
  140MOL    F2344781   7.259   5.630   2.113  0.4790  0.2500  0.5366
  140MOL    C2444782   7.460   5.523   2.053 -0.1618  0.0051 -0.4029
  140MOL    C2544783   7.526   5.426   1.972 -0.2090 -0.7006 -0.1536
  140MOL    C2644784   7.665   5.319   1.717  0.1824  0.3059 -0.7100
  140MOL    H2744785   7.469   5.259   1.687 -2.9166 -0.9746  2.0405
  140MOL    H2844786   7.267   5.342   1.760  2.0236 -0.5095 -0.4677
  140MOL    H2944787   7.154   5.509   1.931  0.0329  0.6611  1.6511
  140MOL    H3044788   7.516   5.580   2.125 -0.6490  0.7521 -0.6063
  140MOL    H3144789   7.632   5.408   1.989 -0.0781 -1.0971 -1.3608
  140MOL    H3244790   7.731   5.315   1.804 -0.1252 -2.2559 -0.5351
  140MOL    H3344791   7.714   5.254   1.644  0.8360 -0.4265  0.3650
  140MOL    C3444792   7.663   5.464   1.669 -0.4092 -0.1234 -0.4373
  140MOL    C3544793   7.794   5.536   1.689  0.0750 -0.4230  0.0448
  140MOL    C3644794   7.910   5.480   1.639  0.1690  0.1567 -0.7624
  140MOL    C3744795   8.032   5.554   1.651 -0.1277 -0.2995  0.2721
  140MOL    C3844796   8.025   5.681   1.709  0.0138 -0.5806 -0.2101
  140MOL    F3944797   8.128   5.768   1.712 -0.4895  0.3733 -0.4201
  140MOL    C4044798   7.908   5.739   1.755  0.1869  0.2412  0.5094
  140MOL    C4144799   7.793   5.662   1.747 -0.0096 -0.0634 -0.7143
  140MOL    C4244800   7.617   5.476   1.519  0.5520 -0.4741  0.1681
  140MOL    H4344801   7.587   5.517   1.726  1.7479  1.0061  1.4822
  140MOL    H4444802   7.915   5.383   1.591  1.5371 -0.0693 -0.1851
  140MOL    H4544803   8.131   5.519   1.625 -0.1794  1.2372 -2.1241
  140MOL    H4644804   7.909   5.840   1.794 -1.9060 -0.1528  1.6817
  140MOL    H4744805   7.695   5.699   1.773  0.1771 -1.3427  2.0138
  140MOL    H4844806   7.691   5.435   1.450  0.0390  0.4613 -0.9551
  140MOL    H4944807   7.540   5.407   1.485  1.3455 -0.4119 -1.8054
  140MOL    C5044808   7.579   5.615   1.466 -0.3561 -0.6076 -0.0108
  140MOL    C5144809   7.689   5.716   1.446  0.3446 -0.4169  0.1050
  140MOL    C5244810   7.803   5.687   1.371 -0.4473  0.0316 -0.6311
  140MOL    C5344811   7.907   5.777   1.361  0.0596  0.3390 -0.0822
  140MOL    C5444812   7.911   5.905   1.417 -0.2326 -0.2860 -0.1423
  140MOL    F5544813   8.013   5.988   1.400 -0.0620 -0.0634  0.5581
  140MOL    C5644814   7.788   5.943   1.486  0.2592 -0.3200 -0.6833
  140MOL    C5744815   7.685   5.845   1.500  0.3356 -0.2338 -0.8462
  140MOL    C5844816   7.499   5.613   1.326  0.1975  0.6390 -0.0535
  140MOL    H5944817   7.515   5.645   1.549  1.2784  0.7348  0.7867
  140MOL    H6044818   7.825   5.592   1.323  1.0027 -0.0688  0.2086
  140MOL    H6144819   7.995   5.745   1.306  0.3632 -0.6397  0.9610
  140MOL    H6244820   7.782   6.035   1.541  2.0015 -1.4897  1.5213
  140MOL    H6344821   7.591   5.860   1.551  0.6740 -1.6959  0.2667
  140MOL    H6444822   7.521   5.705   1.272  3.6903 -0.1027  0.0135
  140MOL    H6544823   7.531   5.524   1.273  0.5404 -0.1133  1.3857
  140MOL    C6644824   7.346   5.599   1.337  0.0326  0.1513  0.2444
  140MOL    C6744825   7.290   5.710   1.436  0.7739 -0.4429 -0.1303
  140MOL    C6844826   7.225   5.671   1.554  1.1369  0.1156 -0.0659
  140MOL    C6944827   7.154   5.762   1.638 -0.2326  0.4285 -0.4499
  140MOL    C7044828   7.142   5.892   1.596 -0.4735  0.5528  0.0628
  140MOL    F7144829   7.087   5.979   1.682 -0.0165  0.2281 -0.1012
  140MOL    C7244830   7.213   5.935   1.481  0.4490 -0.2723 -0.0403
  140MOL    C7344831   7.290   5.846   1.405 -0.3220 -0.1490  0.1268
  140MOL    C7444832   7.276   5.605   1.192 -0.5718 -0.1104 -0.1640
  140MOL    H7544833   7.306   5.505   1.374  0.8281 -0.6900 -0.9799
  140MOL    H7644834   7.225   5.570   1.594 -0.5146  0.2209  0.2303
  140MOL    H7744835   7.101   5.724   1.724  1.7919  0.0337  0.6469
  140MOL    H7844836   7.196   6.037   1.449 -0.1219 -0.7891 -1.4173
  140MOL    H7944837   7.356   5.885   1.328  0.7558 -1.6432  0.2793
  140MOL    H8044838   7.170   5.616   1.211 -0.2722  0.6079  1.1908
  140MOL    H8144839   7.299   5.701   1.147  1.3535 -0.0470  0.8645
  140MOL    C8244840   7.297   5.487   1.091  0.6092  0.0539  0.6218
  140MOL    C8344841   7.183   5.386   1.091 -0.1667  0.3733  1.0052
  140MOL    C8444842   7.219   5.251   1.088 -0.7731  0.0834  0.3706
  140MOL    C8544843   7.121   5.149   1.102 -0.1066  0.1920  0.0911
  140MOL    C8644844   6.988   5.186   1.121  0.2384  0.8820 -0.1290
  140MOL    F8744845   6.904   5.085   1.139  0.4323 -0.0367 -0.2548
  140MOL    C8844846   6.953   5.321   1.132 -0.5162 -0.7803  0.0381
  140MOL    C8944847   7.047   5.419   1.106  0.0228  0.0575  0.0709
  140MOL    C9044848   7.334   5.538   0.947  0.2759  0.5027  0.6685
  140MOL    H9144849   7.384   5.430   1.122  0.2337 -0.5070  0.6468
  140MOL    H9244850   7.320   5.219   1.066  0.9744  4.2365  1.9179
  140MOL    H9344851   7.149   5.045   1.094 -0.0243  0.1828  0.4964
  140MOL    H9444852   6.849   5.348   1.140  0.0533  0.8929  2.1560
  140MOL    H9544853   7.026   5.525   1.099 -0.1039 -0.0049 -0.4429
  140MOL    H9644854   7.322   5.459   0.873 -1.0493  1.8613 -0.6064
  140MOL    H9744855   7.262   5.618   0.928  1.1090  1.9323  3.2871
  140MOL    C9844856   7.472   5.608   0.923 -0.3768 -0.6029 -0.8257
  140MOL    C9944857   7.582   5.499   0.934 -0.2423  0.0460  0.2471
  140MOL   C10044858   7.565   5.391   0.840 -0.6358 -0.3887 -0.1337
  140MOL   C10144859   7.667   5.300   0.832 -0.5312 -0.0383  0.1017
  140MOL   C10244860   7.780   5.310   0.915 -0.1119  0.2110 -0.5121
  140MOL   F10344861   7.873   5.214   0.905  0.0827  0.0419 -0.3876
  140MOL   C10444862   7.784   5.405   1.014  0.2677 -0.0353  0.4441
  140MOL   C10544863   7.688   5.500   1.027  0.1998  0.2937 -0.1444
  140MOL   C10644864   7.474   5.680   0.785  0.1916 -0.1691  0.4308
  140MOL   H10744865   7.491   5.670   1.010 -0.5837 -1.1407 -0.3924
  140MOL   H10844866   7.485   5.378   0.768  0.2708  3.3758 -1.9356
  140MOL   H10944867   7.674   5.217   0.763 -0.7989  0.9639 -1.1296
  140MOL   H11044868   7.868   5.408   1.081 -0.4324  1.4203  1.2884
  140MOL   H11144869   7.686   5.576   1.104 -0.4391  2.0711 -1.8657
  140MOL   H11244870   7.476   5.603   0.707  1.6228  0.7924 -0.4957
  140MOL   H11344871   7.381   5.737   0.776  1.1546  1.0236 -2.4953
  140MOL   C11444872   7.589   5.774   0.766 -0.0258 -0.1081  0.5588
  140MOL   C11544873   7.614   5.819   0.623  0.3356 -0.1699 -0.3090
  140MOL   C11644874   7.503   5.855   0.544  0.2921 -0.0457 -0.2850
  140MOL   C11744875   7.526   5.885   0.408 -0.2325  0.0877 -0.1197
  140MOL   C11844876   7.647   5.876   0.349 -1.1425 -0.0839  0.4956
  140MOL   F11944877   7.671   5.904   0.216 -0.3856 -0.0259 -0.5334
  140MOL   C12044878   7.755   5.838   0.427 -0.0392 -0.4031 -0.6463
  140MOL   C12144879   7.742   5.811   0.565 -0.7676  1.0064  0.5674
  140MOL   C12244880   7.584   5.882   0.870  0.3853  0.4401 -0.3364
  140MOL   H12344881   7.677   5.716   0.794 -1.1228 -2.4584 -0.7174
  140MOL   H12444882   7.401   5.864   0.577  0.4655 -0.1240  0.2792
  140MOL   H12544883   7.443   5.921   0.349  0.7017  1.6633 -0.4999
  140MOL   H12644884   7.855   5.848   0.386  0.2442  1.5708  0.5022
  140MOL   H12744885   7.834   5.792   0.619 -0.0238  1.3689 -0.5428
  140MOL   H12844886   7.505   5.953   0.844  0.5542  1.2613  1.3242
  140MOL   H12944887   7.558   5.851   0.971 -1.1625  1.6527 -0.3314
  140MOL   C13044888   7.705   5.975   0.879  0.3145 -0.0468 -1.3022
  140MOL   C13144889   7.663   6.107   0.931 -0.0111 -0.1574  0.2154
  140MOL   C13244890   7.682   6.221   0.850 -0.6012  0.9340  0.1151
  140MOL   C13344891   7.641   6.347   0.892  0.2865 -0.3875  0.6828
  140MOL   C13444892   7.581   6.360   1.017  0.1119 -1.2324  0.0236
  140MOL   F13544893   7.551   6.487   1.063  0.1857  0.1052 -0.0964
  140MOL   C13644894   7.568   6.248   1.101 -0.8944 -0.2169 -0.2296
  140MOL   C13744895   7.604   6.124   1.057 -0.2273  0.5751 -0.6215
  140MOL   C13844896   7.827   5.918   0.956  0.4774 -0.6342 -0.0678
  140MOL   H13944897   7.728   5.975   0.772 -0.2736  0.8146 -1.4345
  140MOL   H14044898   7.732   6.207   0.755 -0.5813 -0.7549  0.3581
  140MOL   H14144899   7.658   6.443   0.845 -2.4748  1.0730  2.4501
  140MOL   H14244900   7.523   6.259   1.199  1.9734 -1.0047  1.2288
  140MOL   H14344901   7.604   6.040   1.124  0.7584 -0.3496 -1.7545
  140MOL   H14444902   7.823   5.914   1.065 -2.5953 -0.0362 -0.1074
  140MOL   H14544903   7.848   5.817   0.921 -0.7118 -0.7755 -0.4108
  140MOL   C14644904   7.949   6.003   0.934 -0.1425 -0.0200  0.0846
  140MOL   C14744905   8.063   5.973   1.034 -0.1677 -0.5367  0.5228
  140MOL   C14844906   8.132   6.070   1.105 -0.7918 -0.1974 -0.3122
  140MOL   C14944907   0.016   6.043   1.184 -0.2376  0.5990 -0.2457
  140MOL   C15044908   0.058   5.912   1.199  0.0974  0.4144  0.7795
  140MOL   F15144909   0.164   5.879   1.273  0.8390 -0.0863  0.0825
  140MOL   C15244910   8.214   5.811   1.144 -0.1709 -0.3128  0.0385
  140MOL   C15344911   8.108   5.839   1.060  0.6126  0.2518  0.1927
  140MOL   C15444912   8.013   5.999   0.796  0.6138 -0.0611 -0.5211
  140MOL   H15544913   7.914   6.104   0.955 -0.8206 -0.4407  1.0035
  140MOL   H15644914   8.102   6.174   1.100  1.8411  0.5124 -2.8307
  140MOL   H15744915   0.066   6.125   1.233  0.8617 -0.6436  0.7723
  140MOL   H15844916   0.014   5.712   1.169  2.3648  0.1189 -1.5953
  140MOL   H15944917   8.066   5.755   1.007  0.4844 -0.4568  1.4196
  140MOL   H16044918   8.059   5.902   0.776  1.8969  0.5578 -0.6140
  140MOL   H16144919   7.931   6.000   0.724 -2.6264 -2.6249  2.9128
  140MOL   C16244920   8.113   6.117   0.763  1.1283  0.3604 -0.0108
  140MOL   C16344921   0.014   6.098   0.818 -0.4747 -0.3679 -0.6704
  140MOL   C16444922   0.083   6.211   0.871  0.5885 -0.4891  0.6154
  140MOL   C16544923   0.206   6.193   0.931 -0.6147 -0.3287  0.2074
  140MOL   C16644924   0.261   6.067   0.934  0.3539 -0.0787  0.1105
  140MOL   F16744925   0.381   6.054   0.996 -0.0763 -0.6350 -0.4097
  140MOL   C16844926   0.198   5.954   0.877  0.5069  0.2004  0.1218
  140MOL   C16944927   0.071   5.973   0.820  0.3161  0.0458  0.8714
  140MOL   C17044928   8.114   6.139   0.613  0.6120 -0.1383 -0.4262
  140MOL   H17144929   8.072   6.205   0.812  0.0048 -1.0820  1.6825
  140MOL   H17244930   0.033   6.305   0.852 -1.6556 -1.7961 -0.0384
  140MOL   H17344931   0.263   6.279   0.962 -0.9898 -0.0915  0.2443
  140MOL   H17444932   0.244   5.857   0.871  0.6578  0.0975  2.7608
  140MOL   H17544933   0.024   5.881   0.787 -0.9426  0.5883  1.1113
  140MOL   H17644934   8.211   6.176   0.580  1.1953 -1.1883  0.0718
  140MOL   H17744935   8.104   6.052   0.547 -2.0920  1.5168 -2.2832
  140MOL   C17844936   8.003   6.239   0.562 -0.2605  0.5153 -0.3580
  140MOL   C17944937   8.031   6.382   0.619  0.5749  0.1479  0.2321
  140MOL   C18044938   8.132   6.466   0.561  1.0324  0.2083  0.3651
  140MOL   C18144939   8.161   6.593   0.617 -0.3118  0.8609  0.9004
  140MOL   C18244940   8.065   6.645   0.717  0.2801  0.4887  0.4353
  140MOL   F18344941   8.082   6.773   0.766 -0.6712 -0.5601 -0.6826
  140MOL   C18444942   7.964   6.562   0.766  0.0272 -0.2947  0.0016
  140MOL   C18544943   7.957   6.429   0.725  0.5807  0.0245 -0.6196
  140MOL   C18644944   7.989   6.236   0.410 -0.4609  0.4710  0.5972
  140MOL   H18744945   7.906   6.208   0.602 -0.1527  0.0995 -0.4145
  140MOL   H18844946   8.190   6.425   0.480  0.5245  0.5014 -0.1540
  140MOL   H18944947   0.010   6.648   0.576 -0.7891 -0.3520 -1.7667
  140MOL   H19044948   7.899   6.591   0.847 -0.6508 -0.6463 -0.4151
  140MOL   H19144949   7.892   6.360   0.776  0.6816 -0.0522 -0.5954
  140MOL   H19244950   8.088   6.231   0.366 -0.5281  1.3193  0.3440
  140MOL   H19344951   7.941   6.146   0.372 -1.8804  1.4055  0.1181
  140MOL   C19444952   7.908   6.348   0.342  0.3196 -0.2536  0.2033
  140MOL   C19544953   7.918   6.340   0.187 -0.0514 -0.1985  0.6289
  140MOL   C19644954   8.030   6.404   0.126  0.1506  0.2672 -0.1481
  140MOL   C19744955   8.045   6.394   8.221 -0.3897 -0.0514  0.5084
  140MOL   C19844956   7.949   6.325   8.146 -0.2158 -0.0580  0.0630
  140MOL   F19944957   7.958   6.331   8.014  0.3554 -0.1166 -0.0146
  140MOL   C20044958   7.849   6.252   8.208 -0.2375 -0.1700  0.0856
  140MOL   C20144959   7.831   6.264   0.110  0.1085  0.2387 -0.3232
  140MOL   C20244960   7.759   6.356   0.401 -0.6197  0.7767 -0.4155
  140MOL   H20344961   7.955   6.441   0.372 -2.3869  0.4207  2.5786
  140MOL   H20444962   8.105   6.462   0.177  0.2308 -2.0576  2.4652
  140MOL   H20544963   8.127   6.439   8.167 -1.6565  3.0602  1.0710
  140MOL   H20644964   7.789   6.182   8.153 -1.9728  0.7271  0.8181
  140MOL   H20744965   7.755   6.199   0.152  1.9992 -0.1220  2.7478
  140MOL   H20844966   7.703   6.266   0.378  0.2262 -0.3289  1.7836
  140MOL   H20944967   7.759   6.359   0.510 -0.1576 -0.3095 -0.3829
  140MOL   C21044968   7.668   6.476   0.348  0.4282  0.1946 -0.1766
  140MOL   C21144969   7.522   6.469   0.397  0.3973 -0.2643 -0.6868
  140MOL   C21244970   7.420   6.498   0.306 -0.4561  0.7358  0.8357
  140MOL   C21344971   7.282   6.494   0.342 -0.2756  0.6882  0.2363
  140MOL   C21444972   7.252   6.470   0.473  0.3707 -0.4889  0.6302
  140MOL   F21544973   7.121   6.477   0.505 -0.1782  0.5674 -0.2522
  140MOL   C21644974   7.353   6.447   0.572 -0.0823  0.0092 -0.4933
  140MOL   C21744975   7.487   6.442   0.526 -0.1617 -0.6672 -0.4049
  140MOL   C21844976   7.715   6.607   0.403  0.1058  0.5943  0.1362
  140MOL   H21944977   7.672   6.481   0.239 -1.3095 -2.1598 -0.3637
  140MOL   H22044978   7.449   6.519   0.205 -1.5470  1.6760  0.7070
  140MOL   H22144979   7.202   6.525   0.277  0.0651 -1.1781 -1.1075
  140MOL   H22244980   7.327   6.416   0.672 -0.4001  2.2275  0.1435
  140MOL   H22344981   7.565   6.434   0.601 -1.0502 -1.4569  0.4577
  140MOL   H22444982   7.639   6.671   0.447 -0.8677 -0.5970  0.2096
  140MOL   H22544983   7.785   6.596   0.486  0.8377  0.3308 -0.5045
  140MOL   C22644984   7.803   6.690   0.299  0.0752  0.3718  0.0825
  140MOL   C22744985   7.724   6.739   0.176  0.4761 -0.2753 -0.5441
  140MOL   C22844986   7.754   6.688   0.048 -0.1887 -0.0929 -0.5302
  140MOL   C22944987   7.699   6.740   8.162 -0.3617  0.1785 -0.5232
  140MOL   C23044988   7.591   6.834   8.180 -0.1869 -0.4399  0.5044
  140MOL   F23144989   7.525   6.881   8.073 -0.1026 -0.1027  0.1479
  140MOL   C23244990   7.555   6.883   0.069 -0.1171 -0.4118  0.2231
  140MOL   C23344991   7.630   6.848   0.183  0.1085 -0.6899 -0.1358
  140MOL   C23444992   7.888   6.796   0.371  0.0847  0.1917  0.0140
  140MOL   H23544993   7.878   6.621   0.260  0.6141 -0.0587  1.8727
  140MOL   H23644994   7.820   6.602   0.054 -1.5640 -1.0904  0.7835
  140MOL   H23744995   7.721   6.693   8.067 -0.3210 -0.4611 -0.2038
  140MOL   H23844996   7.485   6.965   0.070 -2.0031 -2.0016  0.0379
  140MOL   H23944997   7.583   6.883   0.274  3.3668  1.6127  0.7813
  140MOL   H24044998   7.823   6.862   0.428  1.4805  0.9920  0.7063
  140MOL   H24144999   7.949   6.746   0.446 -1.5423  0.5787  1.6029
  140MOL   C24245000   7.973   6.885   0.283 -0.4640  0.6794  0.9867
  140MOL   C24345001   8.014   7.009   0.357  0.3074 -0.1692  0.3029
  140MOL   C24445002   8.094   6.991   0.469 -0.5087 -0.3042 -0.3213
  140MOL   C24545003   8.136   7.102   0.547  0.7441 -0.2006  0.4219
  140MOL   C24645004   8.087   7.229   0.516 -0.3870  0.4678 -0.0846
  140MOL   F24745005   8.122   7.330   0.597 -0.5747  0.0330  0.1714
  140MOL   C24845006   8.010   7.247   0.400  0.1924 -0.0875  0.4319
  140MOL   C24945007   7.981   7.139   0.317  0.3664  0.1195 -0.7159
  140MOL   C25045008   8.094   6.799   0.227  0.0305 -0.0537 -0.7642
  140MOL   H25145009   7.923   6.903   0.188  1.2279 -2.3293 -0.5076
  140MOL   H25245010   8.122   6.893   0.506 -0.9146 -1.5688 -3.1618
  140MOL   H25345011   8.201   7.081   0.631  1.2343 -0.6394 -0.0679
  140MOL   H25445012   7.956   7.335   0.368 -0.4919 -0.3534  0.8349
  140MOL   H25545013   7.919   7.153   0.230  1.1595 -0.3087 -1.3440
  140MOL   H25645014   8.152   6.760   0.311 -1.9610  1.1891  1.2531
  140MOL   H25745015   8.059   6.708   0.177 -2.6195 -0.1171  1.1179
  140MOL   C25845016   8.182   6.865   0.133  0.4339  0.1740 -0.3740
  140MOL   C25945017   0.089   6.796   0.135  0.5159 -0.0021  0.3444
  140MOL   C26045018   0.096   6.658   0.093  0.3490 -0.1846  0.5715
  140MOL   C26145019   0.221   6.598   0.100 -0.2525  0.8023 -0.0027
  140MOL   C26245020   0.331   6.655   0.165  0.5020 -0.1541 -0.0873
  140MOL   F26345021   0.443   6.591   0.194  0.1327  0.0432 -0.2421
  140MOL   C26445022   0.326   6.789   0.199 -0.7135 -0.4720 -0.0532
  140MOL   C26545023   0.207   6.861   0.189 -0.9554 -0.1675 -0.4802
  140MOL   C26645024   8.122   6.867   8.225  0.4519 -0.3647  0.0080
  140MOL   H26745025   8.199   6.970   0.158 -3.4117  1.3803 -2.5052
  140MOL   H26845026   0.011   6.604   0.054  0.5850 -1.5601  1.8933
  140MOL   H26945027   0.248   6.497   0.074  0.9049  0.6387  1.7115
  140MOL   H27045028   0.405   6.833   0.258 -2.0516 -0.5427  1.8623
  140MOL   H27145029   0.192   6.951   0.245  2.1803 -1.2684  2.2723
  140MOL   H27245030   8.138   6.777   8.165 -0.4098 -0.2608 -0.3800
  140MOL   H27345031   8.015   6.879   0.005  0.8025  0.3889  2.1968
  140MOL   C27445032   8.147   6.982   8.124  0.6212  0.0296 -0.1266
  140MOL   C27545033   8.068   6.955   7.997 -0.2219  0.0696  0.8114
  140MOL   C27645034   7.927   6.964   8.003 -0.5713 -0.0759 -0.2417
  140MOL   C27745035   7.847   6.935   7.897  0.5191  0.3336  0.5471
  140MOL   C27845036   7.905   6.901   7.772  0.4638 -0.6847  0.0207
  140MOL   F27945037   7.819   6.878   7.670  0.6329  0.2819 -0.1126
  140MOL   C28045038   8.043   6.889   7.761 -0.5541 -0.5151  0.0035
  140MOL   C28145039   8.121   6.921   7.873 -0.0573 -0.2263  0.3286
  140MOL   C28245040   8.110   7.125   8.175  0.1860  0.6106 -0.0541
  140MOL   H28345041   0.019   6.986   8.101  0.1923  1.9911 -1.9282
  140MOL   H28445042   7.877   7.002   8.091 -0.1793 -2.1682  0.9088
  140MOL   H28545043   7.741   6.955   7.902  0.6769  2.6090 -2.8624
  140MOL   H28645044   8.084   6.863   7.664 -0.7496  0.0345 -0.2312
  140MOL   H28745045   8.228   6.902   7.875  0.4988  1.9256 -3.9225
  140MOL   H28845046   8.079   7.185   8.089  1.8610  0.8914 -0.4857
  140MOL   H28945047   8.020   7.120   0.002 -1.0839  1.8032 -1.7799
  140MOL   C29045048   8.221   7.211   0.005  0.4421 -0.7778  1.1795
  140MOL   C29145049   0.118   7.208   8.166  0.2090  0.1504  0.1526
  140MOL   C29245050   0.232   7.179   0.008 -0.1036  0.3630 -0.4343
  140MOL   C29345051   0.359   7.153   8.184 -0.3245  0.0260  0.1923
  140MOL   C29445052   0.368   7.158   8.041  0.3196 -0.9500 -0.1720
  140MOL   F29545053   0.484   7.141   7.981  0.6259  0.3271  0.4101
  140MOL   C29645054   0.257   7.187   7.965  0.1291 -0.2209 -0.3489
  140MOL   C29745055   0.132   7.218   8.026 -0.2405 -0.0751 -0.2937
  140MOL   C29845056   8.161   7.359   0.016 -0.0786 -0.1064  0.4514
  140MOL   H29945057   0.007   7.178   0.107  0.9086  0.8484  1.6197
  140MOL   H30045058   0.233   7.160   0.114 -0.5296 -0.5215 -0.5834
  140MOL   H30145059   0.448   7.140   0.009 -0.8263  1.0449  1.1875
  140MOL   H30245060   0.270   7.188   7.858 -1.1171  0.5115 -0.5075
  140MOL   H30345061   0.050   7.231   7.957 -0.9495 -0.4165  0.4779
  140MOL   H30445062   8.106   7.391   8.162  0.1933 -2.7263 -0.7132
  140MOL   H30545063   8.094   7.360   0.101  0.9306 -1.4447  1.2751
  140MOL   C30645064   0.036   7.469   0.048 -0.4366  0.8617 -0.2187
  140MOL   C30745065   0.076   7.542   8.161 -0.2425 -0.0512  0.4247
  140MOL   C30845066   8.224   7.639   8.109 -0.2322 -0.9082  0.5338
  140MOL   C30945067   0.033   7.710   7.996  0.6729 -0.8655  0.0142
  140MOL   C31045068   0.160   7.695   7.940  0.2462 -0.5433 -1.1084
  140MOL   F31145069   0.206   7.773   7.840  0.6403 -0.2740 -0.0306
  140MOL   C31245070   0.240   7.594   7.997  0.0203  0.2991  0.2628
  140MOL   C31345071   0.200   7.518   8.107  0.6467  0.5498  0.4408
  140MOL   C31445072   8.227   7.575   0.151  0.0985  0.0458  0.6977
  140MOL   H31545073   0.126   7.423   0.088 -1.2324 -0.2123  0.3687
  140MOL   H31645074   8.127   7.658   8.153  0.3634 -0.2089  1.5797
  140MOL   H31745075   8.198   7.786   7.962  1.2857  1.5171  3.6776
  140MOL   H31845076   0.334   7.576   7.947 -0.7305 -1.0861 -0.6773
  140MOL   H31945077   0.265   7.438   8.139  1.9609  0.7683 -1.6703
  140MOL   H32045078   8.195   7.524   0.242  1.4807  1.2042  1.8491
  140MOL   H32145079   0.067   7.649   0.179  2.3906 -0.1651 -4.2185
  140MOL   H32245080   8.145   7.636   0.113  0.2059  0.4269  1.0851
  141MOL     C145081   6.748   2.582   0.003  0.1192  0.3357  0.1522
  141MOL     C245082   6.811   2.529   8.110  0.1563 -0.7632  0.1213
  141MOL     C345083   6.803   2.600   7.989  0.2941  0.5197  0.2157
  141MOL     C445084   6.867   2.556   7.874  0.2496  0.7032 -0.0357
  141MOL     C545085   6.942   2.436   7.882 -0.1431  0.3758  0.5730
  141MOL     F645086   7.017   2.390   7.777 -0.1952 -0.1485 -0.1416
  141MOL     C745087   6.956   2.366   8.002  0.2723 -0.0237 -0.3550
  141MOL     C845088   6.884   2.413   8.117  0.2839  0.4742  0.3411
  141MOL     C945089   6.681   2.475   0.088  0.1505  0.5289 -0.3356
  141MOL    H1045090   6.677   2.660   8.210 -1.8071 -1.3142  0.3759
  141MOL    H1145091   6.770   2.703   7.986 -0.6837  0.1864 -0.5032
  141MOL    H1245092   6.872   2.617   7.785 -1.0361  1.1687  0.2011
  141MOL    H1345093   7.019   2.279   8.013  1.6545  0.8974 -0.8541
  141MOL    H1445094   6.912   2.367   8.210 -0.3699  1.8259  1.2142
  141MOL    H1545095   6.633   2.405   0.019 -0.5307 -1.1632  1.7722
  141MOL    H1645096   6.750   2.412   0.146  0.5675  2.3313  1.1618
  141MOL    H1745097   6.836   2.625   0.051  0.1542 -0.0755  0.4555
  141MOL    C1845098   6.571   2.529   0.182 -0.6974  0.1784 -0.1964
  141MOL    C1945099   6.485   2.415   0.222 -0.6664 -0.1582 -0.5844
  141MOL    C2045100   6.353   2.401   0.181  0.1670  0.2587  0.4039
  141MOL    C2145101   6.281   2.294   0.220 -0.1074 -0.1826 -0.2628
  141MOL    C2245102   6.328   2.198   0.313  0.1456 -0.2604 -0.2881
  141MOL    F2345103   6.244   2.105   0.365 -0.0642 -0.4753 -0.0287
  141MOL    C2445104   6.464   2.206   0.357 -0.0324 -0.4021  0.0802
  141MOL    C2545105   6.541   2.315   0.312  0.1249  0.6749 -0.0206
  141MOL    C2645106   6.633   2.602   0.302 -0.6305  0.1629  0.3500
  141MOL    H2745107   6.507   2.595   0.122  0.2821  0.9978 -0.3488
  141MOL    H2845108   6.301   2.472   0.117 -1.7003 -0.4428  1.0972
  141MOL    H2945109   6.178   2.296   0.186 -0.6830  0.0444  1.4373
  141MOL    H3045110   6.499   2.137   0.432 -2.8353 -1.9429  0.0265
  141MOL    H3145111   6.642   2.333   0.344 -0.0741  1.0339  0.4204
  141MOL    H3245112   6.576   2.578   0.392 -1.9690 -1.5676 -0.9124
  141MOL    H3345113   6.734   2.569   0.326 -0.3235 -2.0269 -3.4920
  141MOL    C3445114   6.638   2.756   0.286 -0.4439  0.3041 -0.7231
  141MOL    C3545115   6.497   2.804   0.245  0.8806 -0.2415  0.1409
  141MOL    C3645116   6.474   2.863   0.119  0.2244 -0.8212 -0.0299
  141MOL    C3745117   6.355   2.920   0.078 -0.1443 -0.4156 -0.1504
  141MOL    C3845118   6.250   2.919   0.165  1.0631 -0.0221 -0.1969
  141MOL    F3945119   6.128   2.952   0.115 -0.4618  0.2274  0.2069
  141MOL    C4045120   6.264   2.863   0.296  0.0235 -0.0972 -0.3988
  141MOL    C4145121   6.387   2.808   0.341  0.4373  0.0582  0.2419
  141MOL    C4245122   6.672   2.829   0.418 -0.0247 -1.0530 -0.4032
  141MOL    H4345123   6.715   2.770   0.210 -0.1313 -0.5634 -0.5709
  141MOL    H4445124   6.553   2.867   0.046 -0.6179 -0.6747 -0.9398
  141MOL    H4545125   6.346   2.966   8.215 -2.6397  1.7043  1.0324
  141MOL    H4645126   6.180   2.864   0.365  1.0516 -2.2185  0.9275
  141MOL    H4745127   6.401   2.771   0.442  1.1518 -0.1493  0.0665
  141MOL    H4845128   6.657   2.934   0.395 -1.4305 -0.9895  0.7768
  141MOL    H4945129   6.602   2.805   0.497  1.3113  0.0277  1.1213
  141MOL    C5045130   6.817   2.818   0.479 -0.4836  0.5610 -0.2836
  141MOL    C5145131   6.927   2.833   0.374  0.2288  0.5836  0.5111
  141MOL    C5245132   7.006   2.723   0.337  0.8333 -0.5057  0.3239
  141MOL    C5345133   7.114   2.741   0.243  0.2051  0.4831  0.6644
  141MOL    C5445134   7.141   2.867   0.185  0.0199  0.4219  0.0863
  141MOL    F5545135   7.255   2.886   0.115 -0.1444  0.1277  0.8685
  141MOL    C5645136   7.053   2.972   0.215  1.0685 -0.1954 -0.2960
  141MOL    C5745137   6.946   2.958   0.307 -0.2665 -0.3521  0.1309
  141MOL    C5845138   6.821   2.915   0.607 -0.0060 -0.1359  0.2649
  141MOL    H5945139   6.824   2.719   0.522  0.3295  1.0384  0.6816
  141MOL    H6045140   6.979   2.630   0.384  2.0324 -0.2275  1.6005
  141MOL    H6145141   7.170   2.650   0.229 -2.2432 -0.9010 -0.2779
  141MOL    H6245142   7.072   3.070   0.172 -1.4074  0.1497 -0.6648
  141MOL    H6345143   6.883   3.042   0.333  0.6995  0.2422  0.5778
  141MOL    H6445144   6.797   3.014   0.569  0.4778 -0.5833 -1.2672
  141MOL    H6545145   6.730   2.891   0.662  0.2355  2.1375  1.7062
  141MOL    C6645146   6.955   2.916   0.675 -0.7365 -0.2555  0.2389
  141MOL    C6745147   7.003   3.061   0.676  0.2692 -0.0409  0.1501
  141MOL    C6845148   6.933   3.166   0.738 -0.6023 -0.1435 -0.3377
  141MOL    C6945149   6.985   3.297   0.756  0.1608 -0.2845  0.3599
  141MOL    C7045150   7.102   3.330   0.687  0.0318  0.7175  0.9520
  141MOL    F7145151   7.144   3.458   0.693 -0.0451  0.0284 -1.0301
  141MOL    C7245152   7.171   3.232   0.613  0.4889 -0.0438 -0.4484
  141MOL    C7345153   7.130   3.101   0.615  0.6625 -0.4658  0.0273
  141MOL    C7445154   6.952   2.849   0.819 -0.5315 -1.4174  0.5997
  141MOL    H7545155   7.028   2.853   0.625  1.1367  0.4483  2.0352
  141MOL    H7645156   6.837   3.148   0.783 -0.6534 -0.9562 -0.7720
  141MOL    H7745157   6.931   3.369   0.814 -1.9794 -1.5259 -0.0349
  141MOL    H7845158   7.262   3.255   0.560 -0.0137 -1.9936 -2.2224
  141MOL    H7945159   7.188   3.017   0.579 -0.1139 -1.8645  1.9600
  141MOL    H8045160   7.038   2.878   0.879  1.9551 -1.2403 -2.9015
  141MOL    H8145161   6.869   2.892   0.876 -0.0838 -2.3506  1.9929
  141MOL    C8245162   6.948   2.693   0.808 -0.3922 -0.5627 -0.1571
  141MOL    C8345163   7.074   2.641   0.733  0.3925  0.0433 -0.3108
  141MOL    C8445164   7.054   2.563   0.618  0.1763  0.7867 -0.0533
  141MOL    C8545165   7.164   2.532   0.536 -0.3681 -0.0956  0.1645
  141MOL    C8645166   7.294   2.564   0.575 -0.4960  0.3277 -0.1305
  141MOL    F8745167   7.401   2.517   0.504  0.0848  0.0363  0.3870
  141MOL    C8845168   7.317   2.617   0.700 -0.4772  0.4228 -0.3339
  141MOL    C8945169   7.206   2.659   0.780 -0.0817  0.9177  0.3157
  141MOL    C9045170   6.934   2.633   0.948  0.2622 -0.1298 -0.7804
  141MOL    H9145171   6.866   2.669   0.740 -0.5058 -0.1166 -0.1763
  141MOL    H9245172   6.953   2.545   0.585  1.4531  0.1665 -3.8464
  141MOL    H9345173   7.146   2.480   0.443  2.0175  1.0949 -1.0276
  141MOL    H9445174   7.416   2.638   0.738 -1.2561  1.8317  0.9946
  141MOL    H9545175   7.223   2.704   0.877 -1.1806  0.4137  0.7432
  141MOL    H9645176   6.959   2.528   0.934  1.2068 -0.0686  0.3728
  141MOL    H9745177   7.017   2.672   1.007 -0.8097  0.8095  0.1273
  141MOL    C9845178   6.797   2.645   1.023 -0.1400  0.5816 -0.6437
  141MOL    C9945179   6.670   2.636   0.934  0.2061 -0.0487 -0.4033
  141MOL   C10045180   6.579   2.743   0.944 -1.5385 -0.2475  0.8287
  141MOL   C10145181   6.453   2.731   0.880  0.1842  0.9256 -0.1255
  141MOL   C10245182   6.418   2.620   0.804  0.2531 -0.7369  0.3694
  141MOL   F10345183   6.295   2.613   0.747  0.1475  0.1053  0.3468
  141MOL   C10445184   6.509   2.512   0.804 -0.1251  0.2133 -0.0181
  141MOL   C10545185   6.637   2.520   0.856 -0.0151 -0.1016 -1.0252
  141MOL   C10645186   6.781   2.551   1.152 -0.9592  0.2925  0.9950
  141MOL   H10745187   6.789   2.748   1.059  2.0743  1.1398 -1.7032
  141MOL   H10845188   6.589   2.831   1.006  1.8914 -1.2262  1.7878
  141MOL   H10945189   6.380   2.809   0.897 -1.5705 -0.8021  0.4162
  141MOL   H11045190   6.471   2.421   0.758  2.1009  1.2285 -4.0945
  141MOL   H11145191   6.693   2.430   0.876  0.2879  0.7982  2.6143
  141MOL   H11245192   6.676   2.522   1.159 -0.9601  0.0350 -0.0142
  141MOL   H11345193   6.828   2.454   1.135 -0.1537  0.5724  1.5866
  141MOL   C11445194   6.831   2.605   1.291  1.1917 -0.0213 -0.2365
  141MOL   C11545195   6.747   2.729   1.324 -0.5195 -0.1903  0.1261
  141MOL   C11645196   6.816   2.846   1.362 -0.3313 -0.1798 -0.3586
  141MOL   C11745197   6.757   2.971   1.387 -0.2564 -0.7702 -0.0854
  141MOL   C11845198   6.616   2.977   1.376  0.2078 -1.2077 -0.9015
  141MOL   F11945199   6.552   3.093   1.406  0.3077 -0.4117 -0.1574
  141MOL   C12045200   6.549   2.864   1.337 -0.3015  0.5695 -0.2479
  141MOL   C12145201   6.606   2.743   1.302 -0.8298 -0.0861 -0.3558
  141MOL   C12245202   6.828   2.495   1.397 -0.4469 -0.0021 -0.3364
  141MOL   H12345203   6.937   2.628   1.279  1.8184 -1.9755  1.3211
  141MOL   H12445204   6.924   2.840   1.371 -0.3236  0.3782 -0.0480
  141MOL   H12545205   6.816   3.061   1.401  1.8052 -2.2057  0.8270
  141MOL   H12645206   6.442   2.875   1.338 -0.2863  0.7791  1.0818
  141MOL   H12745207   6.545   2.658   1.275 -1.0638 -0.3409  0.9488
  141MOL   H12845208   6.725   2.468   1.420 -1.0742  1.4432 -1.3742
  141MOL   H12945209   6.872   2.412   1.341 -1.9100  0.3398 -2.0180
  141MOL   C13045210   6.895   2.533   1.527 -0.1048  0.0806  0.5943
  141MOL   C13145211   6.880   2.436   1.643 -0.3290  0.9882  0.1216
  141MOL   C13245212   6.876   2.485   1.774 -0.0026  0.1429  0.3124
  141MOL   C13345213   6.888   2.399   1.885  0.5789  0.0450  0.3183
  141MOL   C13445214   6.869   2.258   1.862  0.7862 -0.0197  0.1091
  141MOL   F13545215   6.873   2.176   1.965 -0.5132  0.4665  0.0348
  141MOL   C13645216   6.857   2.210   1.736 -0.0189  0.9942 -0.3590
  141MOL   C13745217   6.865   2.297   1.623  0.9053  0.3428 -0.8327
  141MOL   C13845218   7.045   2.563   1.502 -0.7446 -0.1107 -0.0990
  141MOL   H13945219   6.846   2.625   1.557 -0.2843  0.1005  0.2432
  141MOL   H14045220   6.878   2.592   1.789  1.9605 -0.0243  1.4375
  141MOL   H14145221   6.900   2.442   1.983  0.0731  0.2928  0.2694
  141MOL   H14245222   6.839   2.104   1.729  0.0832  0.9450  0.1012
  141MOL   H14345223   6.861   2.253   1.525 -1.7807  1.1367 -1.1125
  141MOL   H14445224   7.074   2.638   1.428  3.5289 -2.2758 -0.8047
  141MOL   H14545225   7.076   2.605   1.598 -2.4254  0.3958  0.2387
  141MOL   C14645226   7.147   2.440   1.480 -0.4825 -0.0987 -0.8128
  141MOL   C14745227   7.133   2.377   1.338  0.0111 -0.4615  0.0580
  141MOL   C14845228   7.151   2.456   1.217 -0.5061  0.3841  0.0585
  141MOL   C14945229   7.170   2.389   1.092 -0.3418  0.0977 -0.2238
  141MOL   C15045230   7.141   2.253   1.082 -0.0580  0.1827 -0.0182
  141MOL   F15145231   7.152   2.191   0.963 -0.2336 -0.9066 -0.1019
  141MOL   C15245232   7.111   2.180   1.196 -0.6713  0.2686  0.2589
  141MOL   C15345233   7.092   2.242   1.323 -0.0288  0.5103 -0.5289
  141MOL   C15445234   7.295   2.478   1.511 -0.0894 -0.2544 -0.6676
  141MOL   H15545235   7.120   2.364   1.552  1.5598 -1.1628 -1.1344
  141MOL   H15645236   7.176   2.560   1.232 -1.9741  0.6712  0.6196
  141MOL   H15745237   7.199   2.439   1.001  0.2499  0.8035  0.3371
  141MOL   H15845238   7.096   2.074   1.184 -0.0713  0.3322 -1.2651
  141MOL   H15945239   7.077   2.183   1.412 -0.5095 -0.5271 -1.2931
  141MOL   H16045240   7.366   2.417   1.457  0.5910 -0.5615  0.5457
  141MOL   H16145241   7.297   2.574   1.458 -0.9565 -0.1483 -0.5117
  141MOL   C16245242   7.340   2.485   1.656 -0.0490  0.1933 -0.1273
  141MOL   C16345243   7.385   2.346   1.710 -0.0090  0.1822 -0.7427
  141MOL   C16445244   7.514   2.300   1.692 -0.1019 -0.1540  0.1776
  141MOL   C16545245   7.559   2.191   1.762 -0.0668  0.6503 -0.5535
  141MOL   C16645246   7.466   2.116   1.838  0.7230  0.0779 -0.2544
  141MOL   F16745247   7.503   2.001   1.909  0.3180 -0.4132 -0.2090
  141MOL   C16845248   7.334   2.152   1.845  0.2222  0.1633  0.0656
  141MOL   C16945249   7.289   2.269   1.782 -0.7434 -0.7217  0.2028
  141MOL   C17045250   7.448   2.589   1.672 -0.4932  0.7680  0.0399
  141MOL   H17145251   7.261   2.515   1.725  0.1896 -0.1336  0.2881
  141MOL   H17245252   7.583   2.352   1.627 -0.1933 -0.4399 -0.1504
  141MOL   H17345253   7.662   2.161   1.759 -0.1872  0.3012 -1.2996
  141MOL   H17445254   7.257   2.094   1.895 -2.2151  2.2864 -1.0798
  141MOL   H17545255   7.187   2.299   1.801 -0.4553  1.0910 -1.0018
  141MOL   H17645256   7.527   2.589   1.596  0.3149  2.0147  0.8698
  141MOL   H17745257   7.402   2.687   1.657  2.0081  1.6499 -2.4789
  141MOL   C17845258   7.516   2.591   1.804  0.7485 -0.5158 -0.1688
  141MOL   C17945259   7.670   2.594   1.779 -0.0374 -0.2251 -0.8235
  141MOL   C18045260   7.754   2.493   1.834 -0.3036 -0.3753 -0.1223
  141MOL   C18145261   7.892   2.487   1.795  0.5939 -0.1801  0.2050
  141MOL   C18245262   7.947   2.594   1.728 -0.1931  0.7831  0.1060
  141MOL   F18345263   8.080   2.584   1.699 -0.2398 -0.0638 -0.5536
  141MOL   C18445264   7.866   2.698   1.683 -0.7712 -0.0059 -0.6648
  141MOL   C18545265   7.731   2.694   1.704 -0.4944 -0.7264  0.4028
  141MOL   C18645266   7.471   2.697   1.906  0.8294  0.3404 -0.6101
  141MOL   H18745267   7.507   2.496   1.856  0.3713  0.5694  1.7988
  141MOL   H18845268   7.707   2.420   1.898 -1.7216 -0.6533 -1.4621
  141MOL   H18945269   7.960   2.414   1.838  1.5023 -0.3075 -1.4051
  141MOL   H19045270   7.905   2.784   1.631  2.0283  0.9374  2.7865
  141MOL   H19145271   7.667   2.765   1.655 -0.4341 -0.8099  0.1998
  141MOL   H19245272   7.554   2.725   1.970  1.6808 -2.4823 -0.4250
  141MOL   H19345273   7.455   2.787   1.846  1.1956 -1.0476 -2.8472
  141MOL   C19445274   7.345   2.658   1.994 -1.0617  0.2694 -0.1237
  141MOL   C19545275   7.376   2.530   2.073  0.4441 -0.5077  0.2414
  141MOL   C19645276   7.278   2.429   2.073  0.3488  0.3449 -0.5314
  141MOL   C19745277   7.292   2.310   2.153 -0.0350 -0.3696 -0.1225
  141MOL   C19845278   7.418   2.293   2.217 -0.1851  0.8301  0.4603
  141MOL   F19945279   7.440   2.190   2.306  0.1174  0.2266  0.2962
  141MOL   C20045280   7.516   2.390   2.212  0.2327  0.1553 -0.4079
  141MOL   C20145281   7.498   2.511   2.140 -0.2029 -0.4597 -0.3354
  141MOL   C20245282   7.309   2.769   2.098 -0.4453 -0.7114  0.1854
  141MOL   H20345283   7.264   2.639   1.924  0.9466 -0.5423 -2.3197
  141MOL   H20445284   7.183   2.449   2.025  1.0807  0.8133 -1.7818
  141MOL   H20545285   7.204   2.249   2.164 -0.2465 -0.2098 -0.9032
  141MOL   H20645286   7.599   2.368   2.276 -0.4195 -0.6762  0.1565
  141MOL   H20745287   7.564   2.597   2.138  0.5496 -1.0144  0.1883
  141MOL   H20845288   7.217   2.740   2.149 -0.1733 -1.2994  0.3375
  141MOL   H20945289   7.392   2.773   2.169  0.3817  3.3098 -0.8760
  141MOL   C21045290   7.285   2.910   2.042 -0.4947  0.3225  0.3883
  141MOL   C21145291   7.163   2.900   1.950 -0.4180 -0.0270 -0.2209
  141MOL   C21245292   7.031   2.877   2.001  0.1428  0.7897  0.0323
  141MOL   C21345293   6.925   2.868   1.914 -0.0513 -0.1510 -0.6685
  141MOL   C21445294   6.933   2.902   1.777 -0.0684  0.5098 -0.5358
  141MOL   F21545295   6.832   2.872   1.694 -0.5483 -0.0707 -0.1734
  141MOL   C21645296   7.058   2.922   1.726 -0.2215 -0.3954 -0.3678
  141MOL   C21745297   7.167   2.933   1.812  0.9443 -0.7904 -0.4173
  141MOL   C21845298   7.265   3.016   2.155 -0.8247  0.7764 -0.5498
  141MOL   H21945299   7.368   2.941   1.979  0.0331 -1.0943  0.3565
  141MOL   H22045300   7.018   2.851   2.105  1.8213  0.9077  0.2854
  141MOL   H22145301   6.833   2.818   1.942  0.0258  0.3912  0.5930
  141MOL   H22245302   7.082   2.963   1.629 -1.9237 -1.6298 -1.3557
  141MOL   H22345303   7.266   2.960   1.779  0.2279  2.0899 -0.3483
  141MOL   H22445304   7.228   3.102   2.098  3.7427  2.3432 -1.3774
  141MOL   H22545305   7.187   2.987   2.225 -0.8149 -1.2292 -1.3563
  141MOL   C22645306   7.398   3.062   2.216 -1.2877 -0.0939 -0.7624
  141MOL   C22745307   7.494   3.126   2.113 -0.3729 -0.4789  0.2198
  141MOL   C22845308   7.615   3.065   2.073 -0.5397  0.2024 -0.2699
  141MOL   C22945309   7.699   3.122   1.975 -0.6415 -0.3051 -0.0170
  141MOL   C23045310   7.650   3.238   1.912  0.3388 -0.1254  0.5228
  141MOL   F23145311   7.715   3.287   1.808 -0.2264  0.6747  0.4858
  141MOL   C23245312   7.530   3.299   1.945  0.1036  0.2475 -0.0311
  141MOL   C23345313   7.451   3.240   2.042 -0.5970 -0.0274  0.1425
  141MOL   C23445314   7.383   3.149   2.343  0.4537 -0.4331  0.4528
  141MOL   H23545315   7.446   2.966   2.236  1.6537  1.2495 -1.0252
  141MOL   H23645316   7.648   2.980   2.130  1.0494 -1.4676 -3.5286
  141MOL   H23745317   7.794   3.078   1.950 -0.3587 -0.5274  1.4341
  141MOL   H23845318   7.504   3.382   1.881  0.1217 -1.5439 -2.4556
  141MOL   H23945319   7.350   3.274   2.060 -0.3723  0.8629 -0.2283
  141MOL   H24045320   7.335   3.243   2.317 -1.4971 -1.5643 -0.1332
  141MOL   H24145321   7.297   3.102   2.390 -1.2911  1.7279 -0.4479
  141MOL   C24245322   7.506   3.172   2.439 -0.4617 -0.4152 -0.0511
  141MOL   C24345323   7.592   3.298   2.404 -0.4901 -0.0252 -0.0587
  141MOL   C24445324   7.714   3.315   2.474  0.4229  0.0255  0.2405
  141MOL   C24545325   7.791   3.433   2.462  0.2232  0.1343 -0.0852
  141MOL   C24645326   7.753   3.536   2.379  0.4326  0.1886 -0.9176
  141MOL   F24745327   7.831   3.643   2.361  0.2114 -0.1112  0.2743
  141MOL   C24845328   7.633   3.519   2.309  0.5172 -0.1044  0.1479
  141MOL   C24945329   7.554   3.406   2.325  0.0611  0.1681  0.4469
  141MOL   C25045330   7.473   3.152   2.585  0.3082  1.5314 -0.2534
  141MOL   H25145331   7.576   3.092   2.414  1.8517  1.5681 -0.1102
  141MOL   H25245332   7.743   3.235   2.541 -2.1596 -2.5817 -1.6185
  141MOL   H25345333   7.881   3.454   2.518  0.7535 -0.0913 -0.8577
  141MOL   H25445334   7.601   3.606   2.254  0.7094 -0.7227 -0.9743
  141MOL   H25545335   7.459   3.414   2.273 -0.6344  1.0107  1.8123
  141MOL   H25645336   7.562   3.173   2.643 -0.4447  1.0118  1.1188
  141MOL   H25745337   7.395   3.220   2.620 -0.0015  0.7469  0.6203
  141MOL   C25845338   7.433   3.001   2.619  1.0718  0.8155 -0.0151
  141MOL   C25945339   7.514   2.895   2.556 -0.1302  0.1413  0.3175
  141MOL   C26045340   7.451   2.798   2.472 -1.1108  0.0561 -0.1316
  141MOL   C26145341   7.527   2.685   2.426 -0.4423  0.8125 -0.0900
  141MOL   C26245342   7.666   2.687   2.441  0.3868  0.9531 -0.3883
  141MOL   F26345343   7.744   2.595   2.382 -0.9185 -0.0758  0.3071
  141MOL   C26445344   7.726   2.786   2.519  0.1828  0.4330  0.0501
  141MOL   C26545345   7.653   2.885   2.581 -0.1805 -0.0018 -0.9055
  141MOL   C26645346   7.412   2.980   2.766  0.0571  0.5390 -0.3061
  141MOL   H26745347   7.334   3.000   2.572  0.1145 -0.8062  1.9405
  141MOL   H26845348   7.348   2.805   2.439 -1.0528 -1.5757 -0.7316
  141MOL   H26945349   7.479   2.604   2.374 -1.0773  0.9692  0.2449
  141MOL   H27045350   7.830   2.764   2.542 -0.2132  0.1174  1.6268
  141MOL   H27145351   7.691   2.960   2.648 -0.6847  0.2850 -0.9361
  141MOL   H27245352   7.427   2.873   2.785  2.8254  0.9689  0.1391
  141MOL   H27345353   7.492   3.021   2.827  0.8431 -0.4465 -0.6623
  141MOL   C27445354   7.278   3.025   2.828  0.1397 -0.1775 -0.3398
  141MOL   C27545355   7.150   2.971   2.755  0.1666  0.4090  0.1093
  141MOL   C27645356   7.042   3.048   2.697 -0.5605 -0.2293  0.2330
  141MOL   C27745357   6.922   2.987   2.654 -0.4063 -0.0082 -0.5152
  141MOL   C27845358   6.915   2.846   2.646 -0.5067  0.1383  0.6317
  141MOL   F27945359   6.805   2.788   2.597  0.1031  0.8430  0.1850
  141MOL   C28045360   7.025   2.768   2.686  0.6621 -0.3532 -0.6214
  141MOL   C28145361   7.135   2.830   2.746  0.2279  0.0847  0.0925
  141MOL   C28245362   7.274   2.990   2.982 -0.5404 -0.1782 -0.3059
  141MOL   H28345363   7.270   3.132   2.813  1.8901 -0.0083 -0.1428
  141MOL   H28445364   7.047   3.156   2.698 -1.1739 -0.1981  2.0753
  141MOL   H28545365   6.838   3.045   2.618 -1.9710 -2.2909 -0.6739
  141MOL   H28645366   7.020   2.662   2.670 -0.8536 -0.2513 -0.8496
  141MOL   H28745367   7.209   2.759   2.780 -0.2474 -1.2336 -1.5256
  141MOL   H28845368   7.286   2.885   3.008  0.3426 -0.0254 -0.0744
  141MOL   H28945369   7.368   3.030   3.022 -0.2859 -1.3817  0.3110
  141MOL   C29045370   7.158   3.055   3.063  0.3946 -0.0239  0.3101
  141MOL   C29145371   7.023   2.979   3.053 -0.3584 -0.5721  0.5345
  141MOL   C29245372   7.006   2.845   3.081  0.1975  0.9233 -0.1055
  141MOL   C29345373   6.875   2.784   3.073 -0.2572  0.3542 -0.4812
  141MOL   C29445374   6.769   2.858   3.020 -0.5302 -0.0069  0.0732
  141MOL   F29545375   6.648   2.797   3.021  0.0627  0.0901  0.2484
  141MOL   C29645376   6.791   2.995   2.986  0.0916  0.0772  0.1721
  141MOL   C29745377   6.916   3.054   3.003  0.6346 -0.1510 -0.3860
  141MOL   C29845378   7.207   3.072   3.211 -0.1452  0.5721  0.5519
  141MOL   H29945379   7.138   3.157   3.030  0.4366 -1.2850 -3.9267
  141MOL   H30045380   7.084   2.779   3.118  0.8215  1.6124 -0.1811
  141MOL   H30145381   6.862   2.678   3.083 -1.3761  0.4810 -0.4984
  141MOL   H30245382   6.697   3.046   2.966 -0.7406 -0.9725  1.3274
  141MOL   H30345383   6.935   3.160   2.995 -0.5828  0.1038 -0.0630
  141MOL   H30445384   7.253   2.977   3.240  1.9280  1.8387  1.5972
  141MOL   H30545385   7.292   3.140   3.220  0.9189 -0.6772  0.2419
  141MOL   C30645386   7.095   3.105   3.318  0.0813 -0.2341  0.0618
  141MOL   C30745387   7.134   3.040   3.447 -0.7237 -0.4457  0.4690
  141MOL   C30845388   7.088   2.909   3.481 -0.1250 -0.1031  0.7100
  141MOL   C30945389   7.128   2.850   3.601  0.5912 -0.2591 -0.1763
  141MOL   C31045390   7.208   2.916   3.695  0.1518  0.2987  0.5892
  141MOL   F31145391   7.244   2.840   3.805  0.8271  0.2196 -0.3373
  141MOL   C31245392   7.253   3.045   3.671 -0.0896 -0.4613 -0.4313
  141MOL   C31345393   7.220   3.102   3.545  0.2056  0.3821 -0.0320
  141MOL   C31445394   7.082   3.255   3.331  0.1391 -0.0246  0.6315
  141MOL   H31545395   7.000   3.061   3.288  0.6479 -1.1007 -0.5106
  141MOL   H31645396   7.024   2.861   3.409  1.1570  0.3033 -0.7097
  141MOL   H31745397   7.083   2.757   3.632 -0.9286  1.2932  2.4580
  141MOL   H31845398   7.318   3.085   3.747  2.7332 -0.9408 -2.5545
  141MOL   H31945399   7.261   3.199   3.521 -1.5694  1.1913  0.0797
  141MOL   H32045400   7.177   3.305   3.346  0.9489 -1.4871  0.4498
  141MOL   H32145401   7.029   3.292   3.243 -0.6143  1.9967  1.8880
  141MOL   H32245402   7.020   3.273   3.419  0.1032 -0.0720  0.6170
  142MOL     C145403   5.259   0.452   0.242  1.3636  0.9351 -0.6689
  142MOL     C245404   5.117   0.482   0.302  0.4540 -0.6847 -0.0883
  142MOL     C345405   5.041   0.582   0.237 -0.3366 -0.3345  0.1873
  142MOL     C445406   4.904   0.596   0.267 -0.1584 -0.3647 -0.6451
  142MOL     C545407   4.850   0.533   0.379 -0.7042 -0.6898 -0.1770
  142MOL     F645408   4.720   0.552   0.413  0.5504 -0.2034  0.2275
  142MOL     C745409   4.927   0.434   0.445 -0.0138 -0.0677  0.1502
  142MOL     C845410   5.058   0.409   0.410  0.3533  0.3573 -0.3966
  142MOL     C945411   5.262   0.402   0.098  0.2803 -0.4192 -0.2871
  142MOL    H1045412   5.316   0.373   0.291 -1.1390 -1.0294 -0.8252
  142MOL    H1145413   5.085   0.641   0.158 -1.7212  0.4072 -0.0562
  142MOL    H1245414   4.842   0.668   0.215 -2.3213 -2.3639 -0.9590
  142MOL    H1345415   4.874   0.376   0.519 -2.0542 -0.6408 -1.6842
  142MOL    H1445416   5.116   0.338   0.467 -0.7755  1.2459  1.9258
  142MOL    H1545417   5.240   0.486   0.032 -0.9246  0.5988  1.3618
  142MOL    H1645418   5.356   0.363   0.060 -0.2204 -0.2306 -1.7449
  142MOL    H1745419   5.319   0.542   0.253  2.0118  0.0551  3.8182
  142MOL    C1845420   5.171   0.287   0.055 -0.0071  0.5355 -0.6728
  142MOL    C1945421   5.177   0.255   8.135 -0.6896 -0.3319 -0.3089
  142MOL    C2045422   5.246   0.143   8.086  0.2772  1.0466  0.0806
  142MOL    C2145423   5.236   0.106   7.954 -0.6129 -0.0205 -0.4318
  142MOL    C2245424   5.180   0.197   7.861 -0.3084  0.8056  0.5224
  142MOL    F2345425   5.167   0.165   7.727 -0.0485  0.2053  0.3596
  142MOL    C2445426   5.130   0.324   7.900 -0.2691  0.4922 -0.6170
  142MOL    C2545427   5.121   0.349   8.042  1.3057  0.5246 -0.5699
  142MOL    C2645428   5.178   0.165   0.152  0.3141 -0.7610 -0.5730
  142MOL    H2745429   5.079   0.343   0.073  0.6714  1.6030 -0.4799
  142MOL    H2845430   5.311   0.083   8.149  1.1951  1.9239 -0.0115
  142MOL    H2945431   5.278   0.015   7.912 -0.0898 -0.0805  0.2189
  142MOL    H3045432   5.090   0.391   7.826  1.0196  0.2885 -1.5028
  142MOL    H3145433   5.069   0.438   8.072 -2.0071 -1.1998 -1.0251
  142MOL    H3245434   5.272   0.115   0.128 -1.0302 -2.6646 -2.0433
  142MOL    H3345435   5.196   0.203   0.252  1.1445  2.2423 -1.8061
  142MOL    C3445436   5.059   0.070   0.143  0.5559 -0.0667 -0.2594
  142MOL    C3545437   5.103   8.159   0.174  0.1633 -0.2667  0.6003
  142MOL    C3645438   5.109   8.097   0.299 -0.9779  0.2088 -1.0342
  142MOL    C3745439   5.144   7.960   0.316 -0.0697  0.5323  0.4009
  142MOL    C3845440   5.185   7.888   0.205 -0.0479  0.3107 -0.4389
  142MOL    F3945441   5.210   7.755   0.215  0.5810 -0.2330 -0.4072
  142MOL    C4045442   5.202   7.953   0.083  0.4205 -0.0729 -0.2179
  142MOL    C4145443   5.158   8.082   0.067  0.0524  0.0857 -0.1330
  142MOL    C4245444   4.939   0.119   0.228  0.9689  0.2158 -0.5598
  142MOL    H4345445   5.028   0.068   0.039  2.2225  0.9118 -0.7869
  142MOL    H4445446   5.072   8.136   0.393  1.4988 -3.2468  1.5324
  142MOL    H4545447   5.125   7.921   0.415 -1.2753 -1.0655 -0.4362
  142MOL    H4645448   5.246   7.910   8.229  3.0278  1.0052  0.5034
  142MOL    H4745449   5.168   8.132   8.207  0.1250  1.9444  0.8251
  142MOL    H4845450   4.977   0.111   0.330  0.3747 -0.8063 -0.4123
  142MOL    H4945451   4.925   0.226   0.211  1.3972  0.1086 -1.5599
  142MOL    C5045452   4.804   0.039   0.234  0.1198 -0.0677 -0.1484
  142MOL    C5145453   4.731   0.057   0.363  0.0755 -0.5263  0.4993
  142MOL    C5245454   4.669   0.181   0.392 -0.1061  0.1787  0.2214
  142MOL    C5345455   4.596   0.194   0.515 -0.5471 -0.6719  0.1701
  142MOL    C5445456   4.577   0.085   0.599  0.7095  0.2977  1.1514
  142MOL    F5545457   4.514   0.102   0.719  0.0014 -0.5083 -0.2691
  142MOL    C5645458   4.634   8.195   0.563  0.2019  0.6460  0.7295
  142MOL    C5745459   4.714   8.183   0.447 -0.3242  0.1026 -0.3861
  142MOL    C5845460   4.713   0.078   0.120 -0.3392  0.3084 -0.7504
  142MOL    H5945461   4.817   8.166   0.223 -1.6906 -0.2648 -0.4405
  142MOL    H6045462   4.671   0.264   0.323 -3.0797 -0.9013 -1.2483
  142MOL    H6145463   4.549   0.289   0.538  0.2842  0.0412 -1.0715
  142MOL    H6245464   4.620   8.105   0.621 -1.2661 -1.2557 -2.4518
  142MOL    H6345465   4.762   8.088   0.425 -0.5943 -0.0373 -0.3664
  142MOL    H6445466   4.606   0.060   0.135 -0.7139  4.0239  1.5705
  142MOL    H6545467   4.718   0.185   0.104  2.6453  0.5065  1.1548
  142MOL    C6645468   4.742   0.010   8.216 -0.4964 -0.3772 -0.0000
  142MOL    C6745469   4.693   8.099   8.211  0.8621 -0.0313 -0.0028
  142MOL    C6845470   4.789   8.000   0.004  0.1912 -0.5240 -0.7740
  142MOL    C6945471   4.757   7.860   8.221  0.1103  0.0146  0.3605
  142MOL    C7045472   4.627   7.829   8.183 -0.3707 -0.5495  0.5680
  142MOL    F7145473   4.597   7.696   8.172 -0.2375 -0.2415 -0.8340
  142MOL    C7245474   4.534   7.926   8.161  0.2825 -0.5477  0.8515
  142MOL    C7345475   4.564   8.062   8.169  0.5205 -0.3674  0.0298
  142MOL    C7445476   4.678   0.089   8.097  0.2129 -0.0113  0.0382
  142MOL    H7545477   4.845   0.007   8.181 -0.9257  0.9327 -1.3757
  142MOL    H7645478   4.881   8.027   0.054  0.5108 -2.5435 -0.2277
  142MOL    H7745479   4.826   7.784   0.019 -1.0734 -0.5533  1.6198
  142MOL    H7845480   4.439   7.903   8.113  0.3851 -0.9358  0.8341
  142MOL    H7945481   4.483   8.127   8.140  0.9023 -0.4477 -1.2604
  142MOL    H8045482   4.573   0.074   8.075  0.2887 -1.5584  0.6672
  142MOL    H8145483   4.654   0.187   8.138  0.1518 -0.0885  0.1898
  142MOL    C8245484   4.758   0.100   7.962 -0.2021 -0.4114 -0.0748
  142MOL    C8345485   4.799   8.198   7.912  0.0115  0.1222  0.3120
  142MOL    C8445486   4.704   8.096   7.892  0.1593 -0.7053  0.0370
  142MOL    C8545487   4.740   7.962   7.851  0.3900 -0.0707 -0.6260
  142MOL    C8645488   4.868   7.938   7.816 -0.0822  0.0775 -0.0468
  142MOL    F8745489   4.893   7.816   7.779 -0.0352  0.1380 -0.5644
  142MOL    C8845490   4.965   8.037   7.836  0.7962 -0.0247 -0.2146
  142MOL    C8945491   4.933   8.166   7.892 -0.1829  0.6592 -0.0005
  142MOL    C9045492   4.697   0.181   7.841  0.7500 -0.1313 -0.2767
  142MOL    H9145493   4.844   0.159   7.993 -1.3649  1.5346 -0.4785
  142MOL    H9245494   4.598   8.110   7.905 -0.1348 -3.6657  0.9810
  142MOL    H9345495   4.661   7.890   7.833 -1.6114  1.9769 -0.3738
  142MOL    H9445496   5.067   8.005   7.821  0.4630 -1.5677  0.6247
  142MOL    H9545497   5.012   0.001   7.916 -2.3053  3.5622 -1.0437
  142MOL    H9645498   4.765   0.210   7.761  1.8633  1.3543  1.1758
  142MOL    H9745499   4.635   0.110   7.787  1.0544  0.7990 -1.8825
  142MOL    C9845500   4.611   0.309   7.887  0.5522 -0.2727  0.2788
  142MOL    C9945501   4.690   0.418   7.962  0.5566  0.0341 -0.0590
  142MOL   C10045502   4.649   0.449   8.097 -0.5028 -0.1543  0.0957
  142MOL   C10145503   4.728   0.539   8.173 -0.1602 -0.2227 -0.1277
  142MOL   C10245504   4.832   0.612   8.113 -0.6348  0.5311  0.2656
  142MOL   F10345505   4.903   0.704   8.182  0.3441 -0.3467 -0.2664
  142MOL   C10445506   4.869   0.583   7.983  0.6499 -0.3542  0.3090
  142MOL   C10545507   4.803   0.480   7.911  0.1587 -0.3970  0.3528
  142MOL   C10645508   4.538   0.377   7.766  0.1002 -0.2713  0.8783
  142MOL   H10745509   4.532   0.269   7.951 -1.8840  2.0094 -1.1462
  142MOL   H10845510   4.564   0.405   8.147 -0.3417 -0.6595 -0.0817
  142MOL   H10945511   4.696   0.570   0.037 -0.8957  0.1731 -0.4808
  142MOL   H11045512   4.955   0.628   7.937  0.6117 -0.7664 -0.1751
  142MOL   H11145513   4.830   0.450   7.810  1.4765  0.7249  0.3512
  142MOL   H11245514   4.595   0.463   7.732 -0.4235  0.3388  1.5416
  142MOL   H11345515   4.555   0.308   7.683 -0.1427 -1.4296  1.7630
  142MOL   C11445516   4.398   0.428   7.789 -0.0538  0.2954 -0.0069
  142MOL   C11545517   4.353   0.531   7.683  1.0772  0.1893 -0.3566
  142MOL   C11645518   4.318   0.667   7.721  0.8601  0.1817 -0.0603
  142MOL   C11745519   4.250   0.747   7.628  0.3983 -0.4594  0.1977
  142MOL   C11845520   4.229   0.708   7.497 -0.3728 -0.1263 -0.6335
  142MOL   F11945521   4.164   0.780   7.405  0.4488 -0.2375  0.4393
  142MOL   C12045522   4.260   0.572   7.459  0.2737  0.4695  0.0572
  142MOL   C12145523   4.324   0.485   7.549 -1.0555 -0.4489 -0.2314
  142MOL   C12245524   4.299   0.310   7.794 -0.1012  0.0403 -0.4005
  142MOL   H12345525   4.398   0.482   7.883  0.9149 -0.7244  0.5917
  142MOL   H12445526   4.354   0.704   7.816  1.7822 -1.5846  0.2823
  142MOL   H12545527   4.222   0.847   7.659  2.3463  0.1295  0.1026
  142MOL   H12645528   4.236   0.531   7.362  1.5602  0.7104 -0.3657
  142MOL   H12745529   4.350   0.385   7.519 -0.2919 -0.5038  0.5888
  142MOL   H12845530   4.319   0.248   7.706  3.0749  2.5420 -1.5369
  142MOL   H12945531   4.338   0.243   7.871  0.7114  0.6838 -0.2446
  142MOL   C13045532   4.149   0.335   7.825 -0.5617 -0.4975  0.1218
  142MOL   C13145533   4.068   0.206   7.846 -0.1036 -0.4741  0.5733
  142MOL   C13245534   4.100   0.118   7.950 -0.0115  0.5401  0.6533
  142MOL   C13345535   4.022   0.004   7.972  0.4358  0.1702 -0.2785
  142MOL   C13445536   3.909   8.202   7.899 -0.4955 -0.4228 -0.0864
  142MOL   F13545537   3.845   8.085   7.923  0.1990 -0.2473 -0.2776
  142MOL   C13645538   3.881   0.053   7.788  0.9734  0.1259 -0.4707
  142MOL   C13745539   3.958   0.170   7.770  0.4278 -0.1003 -0.0611
  142MOL   C13845540   4.136   0.434   7.947 -0.2657 -0.2397  0.0841
  142MOL   H13945541   4.106   0.376   7.733  0.2637  1.2983  0.5224
  142MOL   H14045542   4.180   0.145   8.016  0.9620  1.4168 -0.8677
  142MOL   H14145543   4.041   8.178   8.060 -1.9536  1.2339  1.0286
  142MOL   H14245544   3.796   0.020   7.730  0.0371 -1.8000  1.9025
  142MOL   H14345545   3.932   0.238   7.690  0.3677  0.9403  0.8331
  142MOL   H14445546   4.168   0.386   8.039  1.0572 -1.1930 -0.8665
  142MOL   H14545547   4.199   0.521   7.926 -1.3442  0.5512  0.0677
  142MOL   C14645548   3.991   0.484   7.971  0.4537 -0.4636  0.5393
  142MOL   C14745549   3.987   0.574   8.094 -0.4980 -0.0050  0.3882
  142MOL   C14845550   3.913   0.530   8.200  0.2730 -0.2451 -0.1161
  142MOL   C14945551   3.917   0.601   0.089 -0.2409  0.2014  0.0928
  142MOL   C15045552   4.002   0.717   0.100  0.1151 -0.3641  0.0311
  142MOL   F15145553   4.026   0.772   0.221 -0.2998 -0.3617 -0.0243
  142MOL   C15245554   4.070   0.761   8.219  0.2286 -0.6283  0.1715
  142MOL   C15345555   4.067   0.690   8.101  0.3905  0.1844 -0.3822
  142MOL   C15445556   3.933   0.556   7.838  0.6596  0.1063 -0.1602
  142MOL   H15545557   3.932   0.397   7.999  1.4002 -1.4808 -0.5628
  142MOL   H15645558   3.855   0.440   8.185 -0.4159  0.1710  0.0376
  142MOL   H15745559   3.860   0.557   0.169 -1.6644  1.8371  0.0274
  142MOL   H15845560   4.135   0.847   8.213  0.5983 -0.8980  0.3530
  142MOL   H15945561   4.142   0.715   8.027  1.1092  0.5758  0.4691
  142MOL   H16045562   3.995   0.645   7.832  1.1999 -0.2413  0.2210
  142MOL   H16145563   3.944   0.491   7.751 -0.3437  1.5314 -1.3729
  142MOL   C16245564   3.790   0.607   7.844  0.3849 -0.2366 -0.4373
  142MOL   C16345565   3.770   0.714   7.737  0.4110  0.5464 -0.0575
  142MOL   C16445566   3.733   0.843   7.777  0.2069 -0.2489  0.0349
  142MOL   C16545567   3.708   0.936   7.677  0.0812 -0.4386 -0.3966
  142MOL   C16645568   3.725   0.908   7.541 -0.1463 -0.1897  0.5438
  142MOL   F16745569   3.709   1.002   7.455 -0.1001 -0.3749 -0.7320
  142MOL   C16845570   3.772   0.781   7.494  0.4685  0.7046 -0.6977
  142MOL   C16945571   3.801   0.685   7.599  0.5363  0.4599 -0.2838
  142MOL   C17045572   3.678   0.496   7.826 -0.4352 -0.1867 -0.5168
  142MOL   H17145573   3.778   0.666   7.935  0.7762  0.9055 -1.1017
  142MOL   H17245574   3.712   0.870   7.879 -0.0742  1.3550 -0.4333
  142MOL   H17345575   3.679   1.036   7.706  0.4082 -0.2726 -0.6416
  142MOL   H17445576   3.788   0.770   7.388 -1.9335  0.5370 -1.0614
  142MOL   H17545577   3.837   0.586   7.575 -0.1598 -0.7507  3.3482
  142MOL   H17645578   3.657   0.488   7.720 -2.1052  3.0591 -0.4738
  142MOL   H17745579   3.722   0.397   7.841  1.3883  0.3462 -2.1537
  142MOL   C17845580   3.547   0.518   7.917 -0.2649  0.4841  0.3737
  142MOL   C17945581   3.461   0.641   7.893  0.0512 -0.1622  0.5283
  142MOL   C18045582   3.400   0.704   8.007  0.5689 -0.0844  0.7230
  142MOL   C18145583   3.316   0.813   7.983  0.3450 -0.2371  0.4254
  142MOL   C18245584   3.289   0.856   7.849 -0.5898  0.4263  0.7435
  142MOL   F18345585   3.205   0.955   7.826  0.4867  0.3337  0.3045
  142MOL   C18445586   3.356   0.795   7.742 -0.3477 -0.1782  0.5594
  142MOL   C18545587   3.441   0.685   7.761 -0.2456  0.1295 -0.5183
  142MOL   C18645588   3.460   0.390   7.910  0.4761 -0.2752 -0.1683
  142MOL   H18745589   3.573   0.513   8.022 -0.5415  0.6347  0.4500
  142MOL   H18845590   3.411   0.657   8.103 -0.8184  0.4106  1.1394
  142MOL   H18945591   3.262   0.856   8.066  0.2854  2.3367 -0.9204
  142MOL   H19045592   3.332   0.828   7.642  0.5488  0.7553  0.6445
  142MOL   H19145593   3.486   0.642   7.673  3.7536  0.1939  1.4041
  142MOL   H19245594   3.374   0.411   7.973  0.8225 -0.0845  0.2487
  142MOL   H19345595   3.416   0.392   7.811  2.3982  0.7327 -1.0300
  142MOL   C19445596   3.532   0.252   7.937 -0.6997  0.8464 -0.3958
  142MOL   C19545597   3.591   0.244   8.079 -0.2263 -0.2343  0.6940
  142MOL   C19645598   3.732   0.227   8.081  0.5254 -0.0466 -0.5902
  142MOL   C19745599   3.800   0.189   8.197  0.2150  0.8182 -0.0766
  142MOL   C19845600   3.727   0.187   0.081 -0.1251 -0.9594 -0.2256
  142MOL   F19945601   3.799   0.176   0.197 -0.0083  0.1223 -0.2485
  142MOL   C20045602   3.584   0.207   0.085 -0.8912 -0.2088  0.7388
  142MOL   C20145603   3.517   0.225   8.198 -0.0329 -0.4173 -0.4784
  142MOL   C20245604   3.439   0.133   7.908 -0.2478 -0.2454 -0.2179
  142MOL   H20345605   3.619   0.239   7.872  1.5999  1.7385  2.3520
  142MOL   H20445606   3.787   0.225   7.988 -0.9778  2.0688 -1.5793
  142MOL   H20545607   3.907   0.178   8.205  0.0278 -0.5284  0.7032
  142MOL   H20645608   3.528   0.192   0.177 -3.5028 -2.1137 -1.0947
  142MOL   H20745609   3.409   0.221   8.197 -0.0485 -0.1281  0.0178
  142MOL   H20845610   3.350   0.144   7.971  0.9351 -0.4482  1.5341
  142MOL   H20945611   3.402   0.148   7.807  0.9206  0.8909 -0.4851
  142MOL   C21045612   3.485   8.217   7.921  0.4900  0.0144 -0.7286
  142MOL   C21145613   3.465   8.160   8.053 -0.6301 -0.9756 -0.0584
  142MOL   C21245614   3.583   8.133   8.130  0.2846 -0.3558 -0.0092
  142MOL   C21345615   3.559   8.086   0.023 -0.4926  0.0734  0.2780
  142MOL   C21445616   3.435   8.067   0.086 -0.2414 -0.7862 -0.5757
  142MOL   F21545617   3.419   8.022   0.212  0.1269 -0.1021 -0.2198
  142MOL   C21645618   3.322   8.090   0.008  0.2228 -0.5522  0.3691
  142MOL   C21745619   3.336   8.146   8.116  0.2216  0.0234  0.2597
  142MOL   C21845620   3.414   8.130   7.806  0.6704  0.3560 -0.2642
  142MOL   H21945621   3.593   8.216   7.904  0.6612 -0.5727  0.3920
  142MOL   H22045622   3.686   8.145   8.098  0.4944 -0.6641  0.5300
  142MOL   H22145623   3.648   8.079   0.083  0.0257  4.0321  0.1182
  142MOL   H22245624   3.222   8.078   0.046 -0.0021 -1.6806 -0.5286
  142MOL   H22345625   3.245   8.170   8.063  0.3889 -0.7824 -0.3960
  142MOL   H22445626   3.309   8.141   7.832  0.6850  1.4196 -0.6229
  142MOL   H22545627   3.450   8.162   7.708  2.9236  0.2762  0.4905
  142MOL   C22645628   3.435   7.979   7.826 -0.1216 -0.5562  0.1687
  142MOL   C22745629   3.344   7.891   7.741 -0.4773 -0.6282  0.2974
  142MOL   C22845630   3.242   7.813   7.805  1.4717  0.0492 -0.6996
  142MOL   C22945631   3.162   7.728   7.725 -0.3481 -0.0495  0.3065
  142MOL   C23045632   3.189   7.712   7.589  0.3212 -0.3790 -0.0180
  142MOL   F23145633   3.103   7.630   7.513 -0.6694  0.3644  0.2253
  142MOL   C23245634   3.289   7.783   7.524 -1.0803 -0.1166  0.0408
  142MOL   C23345635   3.363   7.876   7.601 -0.4067  0.1232 -0.1016
  142MOL   C23445636   3.579   7.924   7.799  0.2602 -0.5470  0.1893
  142MOL   H23545637   3.409   7.945   7.927 -1.0854 -0.4400 -0.0332
  142MOL   H23645638   3.224   7.818   7.911  1.5798 -1.4363 -0.5901
  142MOL   H23745639   3.087   7.679   7.785 -0.2934 -1.7470 -0.9756
  142MOL   H23845640   3.301   7.772   7.417 -1.7160  0.2930 -0.0815
  142MOL   H23945641   3.444   7.931   7.555  0.7484 -1.8909 -0.5462
  142MOL   H24045642   3.600   7.951   7.696 -0.1283 -0.7872  0.0484
  142MOL   H24145643   3.641   7.984   7.866  0.8453 -1.4776  0.4979
  142MOL   C24245644   3.613   7.778   7.835 -0.8669 -0.1968 -0.0538
  142MOL   C24345645   3.722   7.725   7.739  0.4980  1.0367  0.6405
  142MOL   C24445646   3.687   7.634   7.625 -1.0934  0.2161 -0.4310
  142MOL   C24545647   3.787   7.594   7.537  0.6935  0.6430  0.2684
  142MOL   C24645648   3.919   7.641   7.548  0.6470  0.2822  0.2474
  142MOL   F24745649   4.009   7.611   7.451  0.3163  0.1177  0.2520
  142MOL   C24845650   3.953   7.728   7.654 -0.1187  0.6375  1.2148
  142MOL   C24945651   3.859   7.761   7.753 -0.5763  0.2782 -0.7057
  142MOL   C25045652   3.648   7.772   7.984 -0.0040  0.0935  0.3079
  142MOL   H25145653   3.517   7.733   7.812 -1.8150  1.5911  0.3634
  142MOL   H25245654   3.586   7.606   7.603 -1.4200  1.7354 -0.9374
  142MOL   H25345655   3.757   7.532   7.453  1.2131  1.6720 -0.6954
  142MOL   H25445656   4.054   7.767   7.653 -1.1485  3.4585  0.3044
  142MOL   H25545657   3.893   7.818   7.838 -2.0398 -0.5901  0.4931
  142MOL   H25645658   3.745   7.819   8.000  1.0081 -1.2351 -1.6787
  142MOL   H25745659   3.574   7.828   8.041  0.6517  1.0377  0.2293
  142MOL   C25845660   3.645   7.633   8.040 -0.5916 -0.1640 -0.3710
  142MOL   C25945661   3.686   7.636   8.190 -0.8727 -1.0864 -0.7747
  142MOL   C26045662   3.806   7.571   8.227 -0.4298  0.4052  0.8677
  142MOL   C26145663   3.839   7.556   0.130  0.4235 -1.2991 -0.3083
  142MOL   C26245664   3.756   7.614   0.229 -0.5668 -0.5923  0.1667
  142MOL   F26345665   3.792   7.605   0.364  0.1049  0.5624 -0.1686
  142MOL   C26445666   3.637   7.680   0.195  0.0171  0.1288  0.2228
  142MOL   C26545667   3.609   7.701   0.058 -0.2014  0.0390 -0.4505
  142MOL   C26645668   3.508   7.554   8.016 -0.0679 -0.2713 -0.6164
  142MOL   H26745669   3.725   7.584   7.985  0.7131 -0.8667  2.0669
  142MOL   H26845670   3.868   7.528   8.150 -0.8896  1.3935 -0.0717
  142MOL   H26945671   3.933   7.516   0.166  2.2322  3.4286  0.6178
  142MOL   H27045672   3.574   7.727   0.270 -1.2494 -2.9113  1.1365
  142MOL   H27145673   3.520   7.755   0.029  0.1716  0.4226 -0.8949
  142MOL   H27245674   3.480   7.498   8.104 -0.2886  0.0312 -0.4958
  142MOL   H27345675   3.430   7.630   8.010 -0.1147 -0.0639  2.2049
  142MOL   C27445676   3.511   7.451   7.900 -0.1816  0.5856  0.0150
  142MOL   C27545677   3.611   7.339   7.925  0.7301  0.1873 -0.0104
  142MOL   C27645678   3.578   7.224   8.010 -0.2110 -0.3574  0.0211
  142MOL   C27745679   3.673   7.124   8.030 -1.0083  0.2103 -0.0585
  142MOL   C27845680   3.793   7.117   7.950  0.0952 -0.2888 -0.7060
  142MOL   F27945681   3.875   7.013   7.967  0.1673  0.0627 -0.0643
  142MOL   C28045682   3.824   7.224   7.868  0.0709  0.3632  0.3850
  142MOL   C28145683   3.733   7.334   7.856  0.3493  0.1221  0.0247
  142MOL   C28245684   3.368   7.414   7.853 -0.8734 -0.2789 -0.2173
  142MOL   H28345685   3.540   7.503   7.809 -3.2156 -1.7235 -2.4154
  142MOL   H28445686   3.482   7.211   8.057 -0.8665  1.1477 -0.8754
  142MOL   H28545687   3.657   7.037   8.092  0.3340 -1.6413 -2.2155
  142MOL   H28645688   3.918   7.218   7.814  0.0200 -2.0774  0.5445
  142MOL   H28745689   3.758   7.414   7.788 -1.9840 -0.2979 -1.4125
  142MOL   H28845690   3.303   7.419   7.940 -0.6212  0.5597 -0.0636
  142MOL   H28945691   3.335   7.496   7.788 -0.8010 -2.0259 -2.5358
  142MOL   C29045692   3.348   7.274   7.776 -0.0811 -0.2129  0.3073
  142MOL   C29145693   3.206   7.232   7.764 -0.4331 -0.7279  0.2329
  142MOL   C29245694   3.162   7.101   7.796  0.3946  0.1098 -0.0149
  142MOL   C29345695   3.032   7.072   7.784 -0.2806 -0.4914  0.6644
  142MOL   C29445696   2.944   7.167   7.742 -0.2487  0.1100 -0.2872
  142MOL   F29545697   2.811   7.139   7.736 -0.2026  0.6575  0.1384
  142MOL   C29645698   2.978   7.304   7.715  0.3498  0.1132 -1.0018
  142MOL   C29745699   3.114   7.328   7.725  0.1569 -0.3233 -0.9166
  142MOL   C29845700   3.428   7.275   7.648 -0.9104 -0.2652  0.7630
  142MOL   H29945701   3.393   7.197   7.840  1.5601  0.2684 -0.2403
  142MOL   H30045702   3.231   7.033   7.845 -0.3937 -1.0256 -0.4506
  142MOL   H30145703   2.995   6.971   7.797 -2.3420 -0.3238 -3.1091
  142MOL   H30245704   2.908   7.384   7.697  0.8389  0.8190  0.2114
  142MOL   H30345705   3.148   7.427   7.698 -0.3786 -0.1868 -1.1012
  142MOL   H30445706   3.386   7.344   7.574 -0.7258  1.2875  2.0889
  142MOL   H30545707   3.531   7.303   7.667 -0.6830 -0.4669 -0.1200
  142MOL   C30645708   3.447   7.134   7.580 -1.0259  0.3422 -0.4411
  142MOL   C30745709   3.473   7.142   7.433  0.6605 -0.3034 -0.4771
  142MOL   C30845710   3.408   7.053   7.344  0.1324 -0.1243 -1.2015
  142MOL   C30945711   3.435   7.058   7.202 -0.1898  0.7461  0.7291
  142MOL   C31045712   3.522   7.152   7.150  0.3763 -0.3574  0.2364
  142MOL   F31145713   3.534   7.164   7.016  0.0518 -0.2889  0.2728
  142MOL   C31245714   3.592   7.232   7.238  0.1034 -0.1440  0.1256
  142MOL   C31345715   3.571   7.230   7.380 -1.2721 -0.4472 -0.0038
  142MOL   C31445716   3.544   7.043   7.660  0.4572  0.2263  0.1589
  142MOL   H31545717   3.362   7.066   7.589  1.5744 -3.1269 -0.8557
  142MOL   H31645718   3.339   6.985   7.390  2.2228  0.2838  2.8155
  142MOL   H31745719   3.379   6.989   7.140 -0.8148  2.3599 -0.5675
  142MOL   H31845720   3.671   7.297   7.203 -0.9097  0.7514 -0.5046
  142MOL   H31945721   3.639   7.292   7.436 -2.5958 -0.1810  1.3375
  142MOL   H32045722   3.502   7.023   7.759  1.0313  2.7870  0.9626
  142MOL   H32145723   3.557   6.947   7.611  1.4813  1.4497 -2.0195
  142MOL   H32245724   3.637   7.095   7.682  0.5209  0.8400 -1.5262
  143MOL     C145725   4.645   5.271   2.802 -0.0152  0.0355  0.2028
  143MOL     C245726   4.724   5.362   2.714  0.4308  0.1327  0.4215
  143MOL     C345727   4.741   5.496   2.750  0.0354  0.1539  0.1883
  143MOL     C445728   4.796   5.585   2.660 -0.5426  0.2021 -0.1387
  143MOL     C545729   4.854   5.536   2.541  0.1639 -0.5405  0.2881
  143MOL     F645730   4.907   5.628   2.458  0.5138  0.6796  0.0515
  143MOL     C745731   4.845   5.399   2.500  0.0839 -0.3613  0.1152
  143MOL     C845732   4.775   5.313   2.593 -0.5440 -0.0708 -0.0315
  143MOL     C945733   4.731   5.184   2.895  0.3092  0.4181 -0.2853
  143MOL    H1045734   4.574   5.210   2.746  2.1454 -1.8004 -0.6223
  143MOL    H1145735   4.704   5.531   2.845  2.2073  2.4103  0.2618
  143MOL    H1245736   4.809   5.687   2.693  1.5083 -0.3654  0.8671
  143MOL    H1345737   4.887   5.356   2.411  2.2223 -0.6772  1.2559
  143MOL    H1445738   4.760   5.208   2.572 -2.1027 -0.0379  0.9190
  143MOL    H1545739   4.664   5.134   2.965  1.3038 -0.7164 -0.1341
  143MOL    H1645740   4.771   5.102   2.836 -1.6741 -0.4672 -0.4534
  143MOL    H1745741   4.575   5.319   2.869  1.4148  1.9642  0.3500
  143MOL    C1845742   4.852   5.243   2.969  0.8440  0.2770  0.8260
  143MOL    C1945743   4.812   5.362   3.067  0.5529  0.3043 -0.2849
  143MOL    C2045744   4.711   5.339   3.165 -0.3340 -0.2999  0.0087
  143MOL    C2145745   4.688   5.436   3.263  0.5339  0.2482 -0.3109
  143MOL    C2245746   4.744   5.566   3.253  0.1215  0.7718  1.0950
  143MOL    F2345747   4.729   5.657   3.349  0.0117  0.3917 -0.2297
  143MOL    C2445748   4.842   5.591   3.152  0.8162 -0.0523 -0.5705
  143MOL    C2545749   4.874   5.490   3.060  0.4067 -0.0912 -0.5192
  143MOL    C2645750   4.932   5.131   3.042  0.2013  0.2046 -0.2786
  143MOL    H2745751   4.919   5.282   2.893 -0.1731  0.6852  0.1317
  143MOL    H2845752   4.669   5.239   3.166  0.3460 -0.5879  1.9131
  143MOL    H2945753   4.623   5.415   3.347 -1.3260  1.5044 -1.3883
  143MOL    H3045754   4.902   5.681   3.149 -1.1812  1.7100  5.3859
  143MOL    H3145755   4.955   5.508   2.991  1.2858 -1.1358  0.2257
  143MOL    H3245756   4.857   5.082   3.105  2.0691 -0.6116  1.3475
  143MOL    H3345757   4.945   5.042   2.979 -1.0730 -0.7092  0.7162
  143MOL    C3445758   5.066   5.170   3.111  0.1052 -0.4122 -0.0682
  143MOL    C3545759   5.062   5.232   3.246  0.2994  0.1890  0.0845
  143MOL    C3645760   4.964   5.195   3.339  0.2127  0.3332 -0.3893
  143MOL    C3745761   4.961   5.252   3.464  0.2145  0.8955  0.4602
  143MOL    C3845762   5.045   5.356   3.496 -0.6336  0.1278  0.1150
  143MOL    F3945763   5.044   5.415   3.617 -0.1823 -0.2947  0.3209
  143MOL    C4045764   5.145   5.396   3.409 -0.3624 -0.1450  0.0308
  143MOL    C4145765   5.151   5.337   3.277 -0.2396 -0.0870 -0.1613
  143MOL    C4245766   5.159   5.053   3.126  0.2128  0.3260  0.8570
  143MOL    H4345767   5.113   5.238   3.040 -0.2287 -0.9740 -0.8324
  143MOL    H4445768   4.900   5.113   3.311 -0.1348  0.7746 -0.8952
  143MOL    H4545769   4.888   5.224   3.540  0.5403  0.0508  0.4713
  143MOL    H4645770   5.219   5.470   3.435  0.9153 -1.9939  1.8118
  143MOL    H4745771   5.221   5.389   3.214 -0.9018  0.4403 -0.4683
  143MOL    H4845772   5.242   5.102   3.177 -0.3252  2.0062  0.1425
  143MOL    H4945773   5.104   4.971   3.172  0.0190 -0.2559 -0.3964
  143MOL    C5045774   5.223   4.991   2.999  0.0491 -0.0831  0.3400
  143MOL    C5145775   5.276   5.093   2.898  0.1782  0.0139 -0.5230
  143MOL    C5245776   5.363   5.200   2.937 -0.6428  0.5609  1.0773
  143MOL    C5345777   5.416   5.289   2.841  0.4982  0.0386  1.5060
  143MOL    C5445778   5.389   5.273   2.703 -0.3672 -0.6039  0.6055
  143MOL    F5545779   5.454   5.354   2.614  0.6570 -0.3378  0.1876
  143MOL    C5645780   5.295   5.169   2.671 -0.6833 -0.1352 -0.0874
  143MOL    C5745781   5.238   5.078   2.762  0.7335  0.1942 -0.4715
  143MOL    C5845782   5.327   4.891   3.042 -0.1583 -0.6758  0.0994
  143MOL    H5945783   5.144   4.931   2.953  1.2476 -1.3795 -0.0599
  143MOL    H6045784   5.395   5.214   3.039  0.7086 -0.2714  0.7921
  143MOL    H6145785   5.485   5.368   2.869 -1.1393  2.0465  0.0700
  143MOL    H6245786   5.287   5.156   2.564 -1.4055 -0.0818 -0.0380
  143MOL    H6345787   5.178   4.998   2.721 -1.0333  1.2958 -0.0748
  143MOL    H6445788   5.384   4.870   2.952  0.3090  0.6448  0.0759
  143MOL    H6545789   5.402   4.935   3.107 -0.3101  0.4884 -0.5013
  143MOL    C6645790   5.280   4.755   3.112  0.8613  0.1290 -0.0302
  143MOL    C6745791   5.234   4.654   3.006  0.1567  0.6405  0.2757
  143MOL    C6845792   5.095   4.643   2.982  0.7968  0.0863  0.7878
  143MOL    C6945793   5.047   4.548   2.888  0.8821  0.0531 -0.2575
  143MOL    C7045794   5.138   4.458   2.827 -0.6694 -0.4885  0.3333
  143MOL    F7145795   5.098   4.364   2.743  0.0025 -0.0631  0.6024
  143MOL    C7245796   5.274   4.464   2.863  0.5898  0.1906 -0.2407
  143MOL    C7345797   5.324   4.568   2.944  1.0799 -0.9823 -0.0100
  143MOL    C7445798   5.390   4.687   3.196  0.3417 -0.2558  0.1962
  143MOL    H7545799   5.194   4.770   3.177 -0.2501  0.0746 -1.4517
  143MOL    H7645800   5.023   4.704   3.035  0.1226 -0.3308  0.3584
  143MOL    H7745801   4.942   4.532   2.869  0.3012 -0.4997  3.0253
  143MOL    H7845802   5.338   4.387   2.823  0.6420 -0.4867  1.1318
  143MOL    H7945803   5.431   4.580   2.951  1.3139 -1.0406 -2.7601
  143MOL    H8045804   5.478   4.660   3.138 -0.0909 -0.9623 -0.1283
  143MOL    H8145805   5.427   4.762   3.267 -0.0069  2.0458 -1.9855
  143MOL    C8245806   5.345   4.560   3.281 -0.3047 -0.8016  0.4457
  143MOL    C8345807   5.471   4.499   3.343  0.6690 -0.3514 -0.2987
  143MOL    C8445808   5.524   4.380   3.291  0.1658  0.6659  0.0906
  143MOL    C8545809   5.655   4.338   3.329 -0.0983 -0.7780  0.1120
  143MOL    C8645810   5.732   4.407   3.425  0.3137 -0.3386  0.1163
  143MOL    F8745811   5.859   4.380   3.450 -0.0596 -0.4314 -0.3919
  143MOL    C8845812   5.667   4.512   3.491  0.3067 -0.0343 -0.2995
  143MOL    C8945813   5.537   4.559   3.457  0.2666  0.1314 -0.3279
  143MOL    C9045814   5.229   4.585   3.383  0.6570  0.0443 -0.4550
  143MOL    H9145815   5.308   4.488   3.208  2.3822 -3.2711  1.3831
  143MOL    H9245816   5.470   4.331   3.212 -0.0518 -0.2052  0.7655
  143MOL    H9345817   5.716   4.269   3.273  0.7087  0.1084 -0.1175
  143MOL    H9445818   5.719   4.560   3.572  1.3146 -2.1044  0.3310
  143MOL    H9545819   5.484   4.637   3.510 -0.2632 -1.0270  0.9035
  143MOL    H9645820   5.259   4.547   3.481 -0.8346 -1.3112 -0.4872
  143MOL    H9745821   5.221   4.693   3.393 -1.4181  0.0010 -1.2984
  143MOL    C9845822   5.096   4.521   3.347  0.6771 -0.2436  0.5618
  143MOL    C9945823   5.103   4.367   3.331  0.4547  0.5031  0.2827
  143MOL   C10045824   5.139   4.282   3.444 -0.6338 -0.0218  0.2291
  143MOL   C10145825   5.146   4.143   3.418 -0.3391 -0.1886  0.3404
  143MOL   C10245826   5.125   4.092   3.288 -0.3148  0.2358 -0.0126
  143MOL   F10345827   5.143   3.959   3.266  0.0491 -0.0322  0.3083
  143MOL   C10445828   5.087   4.173   3.185  0.1666  0.0664 -0.3293
  143MOL   C10545829   5.074   4.311   3.203  0.2894  0.6465 -0.4818
  143MOL   C10645830   4.984   4.569   3.444 -0.0597  0.0703  0.5914
  143MOL   H10745831   5.067   4.567   3.252  2.5111 -0.3507 -0.0668
  143MOL   H10845832   5.169   4.324   3.539 -1.6696 -0.8495  0.9334
  143MOL   H10945833   5.171   4.076   3.499  1.1038  0.1109  0.1627
  143MOL   H11045834   5.046   4.126   3.097  1.2563 -1.7083  0.0880
  143MOL   H11145835   5.046   4.382   3.126  0.6625  0.3237 -0.9169
  143MOL   H11245836   4.901   4.499   3.448 -0.3533  0.3375 -0.5201
  143MOL   H11345837   5.018   4.573   3.547 -1.5753 -2.0937  1.2051
  143MOL   C11445838   4.925   4.709   3.411 -0.6054  0.8969  0.3269
  143MOL   C11545839   4.832   4.712   3.283  0.4549  0.9041  0.6311
  143MOL   C11645840   4.840   4.808   3.175 -0.4768  0.0646 -0.0021
  143MOL   C11745841   4.754   4.797   3.069  0.8538 -0.0919 -0.0870
  143MOL   C11845842   4.669   4.681   3.058 -0.2732 -0.2312  0.1812
  143MOL   F11945843   4.581   4.676   2.956 -0.4264  0.1141 -0.0155
  143MOL   C12045844   4.662   4.591   3.165 -0.1881 -0.2920 -0.7419
  143MOL   C12145845   4.738   4.608   3.280  0.4547  0.1675 -0.0226
  143MOL   C12245846   4.856   4.766   3.541  0.6900  0.1302 -0.3779
  143MOL   H12345847   5.008   4.776   3.389  0.5812 -0.9995 -1.0374
  143MOL   H12445848   4.910   4.890   3.184  0.2128 -0.3764 -1.2334
  143MOL   H12545849   4.747   4.874   2.994  0.0045 -0.9772 -0.9324
  143MOL   H12645850   4.589   4.513   3.154 -0.0104 -0.2876 -2.0737
  143MOL   H12745851   4.718   4.543   3.364  1.4903 -1.0008 -0.6657
  143MOL   H12845852   4.843   4.870   3.514  0.4520  0.7363  1.9828
  143MOL   H12945853   4.756   4.723   3.546  0.2861  1.1946  0.9264
  143MOL   C13045854   4.945   4.771   3.680 -0.6765  0.3840 -0.0845
  143MOL   C13145855   5.082   4.833   3.654  0.2750  0.0197 -0.0202
  143MOL   C13245856   5.195   4.755   3.680  0.3244  0.1913 -0.4167
  143MOL   C13345857   5.321   4.814   3.675 -0.5868 -0.3345  0.9751
  143MOL   C13445858   5.344   4.945   3.628 -0.0457  0.2853  0.8684
  143MOL   F13545859   5.465   4.997   3.613  0.1163  0.3916 -0.0987
  143MOL   C13645860   5.226   5.028   3.597 -0.9653  0.8999 -0.4920
  143MOL   C13745861   5.095   4.967   3.602  0.0018 -0.1963 -0.2483
  143MOL   C13845862   4.889   4.851   3.803  1.0622 -0.7729 -0.0591
  143MOL   H13945863   4.950   4.671   3.724  1.1680 -0.4273 -2.1015
  143MOL   H14045864   5.191   4.655   3.720 -0.8125  0.2816 -0.3127
  143MOL   H14145865   5.408   4.756   3.704  0.4468  0.6570 -0.1220
  143MOL   H14245866   5.242   5.134   3.582 -1.3838  1.0274 -0.0495
  143MOL   H14345867   5.006   5.021   3.576  0.6279 -0.0676 -2.1886
  143MOL   H14445868   4.970   4.870   3.874 -0.3497  2.8398  0.6678
  143MOL   H14545869   4.863   4.948   3.763  1.1669 -1.5666 -2.1055
  143MOL   C14645870   4.779   4.785   3.887 -0.1497  0.5412  0.4714
  143MOL   C14745871   4.807   4.644   3.940 -0.2742  0.4351  0.1525
  143MOL   C14845872   4.735   4.531   3.893  0.1397  0.4684  0.1547
  143MOL   C14945873   4.767   4.404   3.941 -0.0305  0.0499 -0.5261
  143MOL   C15045874   4.853   4.386   4.052 -0.7953 -0.1410 -0.1404
  143MOL   F15145875   4.871   4.265   4.109 -0.4557 -0.0954 -0.0045
  143MOL   C15245876   4.918   4.501   4.103 -0.4344 -0.7212 -0.4000
  143MOL   C15345877   4.893   4.627   4.050  0.3860 -0.2557 -1.3963
  143MOL   C15445878   4.726   4.874   4.000  0.4061  0.2433  0.1680
  143MOL   H15545879   4.701   4.784   3.810  0.3255 -0.2410 -0.0093
  143MOL   H15645880   4.661   4.542   3.814  0.2032  0.2395  0.0646
  143MOL   H15745881   4.721   4.319   3.893 -0.9789 -1.7479  3.3801
  143MOL   H15845882   4.981   4.482   4.189 -1.3322  1.7781  0.8643
  143MOL   H15945883   4.948   4.705   4.101 -1.3705  0.4598 -0.5610
  143MOL   H16045884   4.689   4.812   4.081  1.0749  0.1521  0.4103
  143MOL   H16145885   4.814   4.930   4.032  1.4696 -1.5522  0.4467
  143MOL   C16245886   4.605   4.967   3.962 -0.5844 -0.1452 -0.6231
  143MOL   C16345887   4.479   4.896   3.915  0.0227 -0.6338  0.1250
  143MOL   C16445888   4.433   4.919   3.788 -0.1934 -0.5006 -0.2212
  143MOL   C16545889   4.318   4.854   3.741 -0.5076  0.6714  0.3198
  143MOL   C16645890   4.249   4.766   3.825  0.4070 -0.2005  0.1026
  143MOL   F16745891   4.126   4.726   3.797 -0.1937  0.6712 -0.0102
  143MOL   C16845892   4.302   4.738   3.953  0.3357 -0.1926  0.5396
  143MOL   C16945893   4.413   4.810   4.003 -0.2431  0.5861 -0.3258
  143MOL   C17045894   4.571   5.063   4.085 -0.6894 -0.2745 -0.1643
  143MOL   H17145895   4.638   5.018   3.871 -1.4269  0.8348 -0.3892
  143MOL   H17245896   4.488   4.994   3.734 -0.5441 -0.5882 -0.6978
  143MOL   H17345897   4.281   4.885   3.644  3.2202 -1.4012 -1.9335
  143MOL   H17445898   4.253   4.661   4.012  0.1068  1.8708  3.1145
  143MOL   H17545899   4.450   4.792   4.103  0.6880  0.2513 -0.7219
  143MOL   H17645900   4.469   5.098   4.074 -1.0003 -1.0194  0.2916
  143MOL   H17745901   4.576   4.999   4.174  0.5723  1.0860  0.7520
  143MOL   C17845902   4.670   5.189   4.097  0.2929  0.3588 -0.5779
  143MOL   C17945903   4.658   5.280   3.972 -0.0207  0.2061  0.5718
  143MOL   C18045904   4.533   5.302   3.908  0.2607 -0.2986  0.8203
  143MOL   C18145905   4.529   5.367   3.785 -0.4058 -0.9026 -0.5434
  143MOL   C18245906   4.647   5.407   3.720  0.0097 -0.5162  0.1395
  143MOL   F18345907   4.647   5.471   3.604  0.3583  0.2012  0.2121
  143MOL   C18445908   4.772   5.401   3.790  0.0235 -0.3477  0.8987
  143MOL   C18545909   4.778   5.336   3.912 -0.5470 -0.7379 -0.5444
  143MOL   C18645910   4.639   5.269   4.230 -0.0065 -0.6218 -0.1876
  143MOL   H18745911   4.770   5.149   4.111  0.5787  0.5460 -2.0301
  143MOL   H18845912   4.442   5.259   3.947 -0.6585  0.5692 -0.3522
  143MOL   H18945913   4.435   5.383   3.734 -1.0958 -0.1314  0.9116
  143MOL   H19045914   4.855   5.450   3.743 -0.3801  0.5526  1.1283
  143MOL   H19145915   4.877   5.324   3.953 -1.0614  2.4291  1.9203
  143MOL   H19245916   4.537   5.305   4.236  0.3249  0.1272  1.1793
  143MOL   H19345917   4.657   5.201   4.313  0.1803 -1.0254 -0.5529
  143MOL   C19445918   4.723   5.398   4.251  0.4447 -0.5813 -0.4574
  143MOL   C19545919   4.659   5.494   4.357 -0.1607 -0.1123 -1.0208
  143MOL   C19645920   4.651   5.634   4.328 -0.4025  0.3909  0.8261
  143MOL   C19745921   4.589   5.721   4.426  0.3508 -0.5334 -0.5258
  143MOL   C19845922   4.544   5.668   4.550  0.2812  0.2280  0.7200
  143MOL   F19945923   4.481   5.744   4.642  0.1916 -0.4647 -0.1268
  143MOL   C20045924   4.557   5.530   4.578 -0.5486  0.0895 -0.1341
  143MOL   C20145925   4.613   5.441   4.485 -0.5943 -0.0427 -0.6600
  143MOL   C20245926   4.873   5.381   4.270 -0.3711  0.8114  0.1072
  143MOL   H20345927   4.721   5.456   4.158 -2.3725  1.1697  0.6222
  143MOL   H20445928   4.679   5.668   4.229  0.4308 -3.0621 -0.1884
  143MOL   H20545929   4.579   5.825   4.399 -0.4667 -0.0848  1.4449
  143MOL   H20645930   4.522   5.486   4.670  0.0213 -3.0334 -1.3489
  143MOL   H20745931   4.623   5.337   4.511  0.9535  0.8687  2.6664
  143MOL   H20845932   4.911   5.315   4.192 -2.2141 -0.2786  0.0839
  143MOL   H20945933   4.919   5.477   4.247  0.4790  0.4415  0.2646
  143MOL   C21045934   4.935   5.327   4.402 -0.5346 -0.3649  0.4590
  143MOL   C21145935   4.917   5.173   4.419 -0.0965 -0.3901 -0.3744
  143MOL   C21245936   4.955   5.082   4.313 -1.2381  0.4685  0.2733
  143MOL   C21345937   4.937   4.944   4.327 -0.8960 -0.4721  0.0312
  143MOL   C21445938   4.890   4.890   4.449  0.1296 -0.1637  0.3802
  143MOL   F21545939   4.883   4.752   4.468  0.2997  0.1826 -0.0411
  143MOL   C21645940   4.840   4.982   4.547 -0.3360  0.1579  0.1059
  143MOL   C21745941   4.862   5.120   4.540 -0.2628  0.0045  0.5384
  143MOL   C21845942   5.082   5.367   4.404  0.2929 -0.7699  0.6126
  143MOL   H21945943   4.883   5.379   4.482 -2.6287 -0.4243 -0.8104
  143MOL   H22045944   5.004   5.120   4.224 -1.1937  2.5088  1.1383
  143MOL   H22145945   4.968   4.870   4.254 -1.1774 -0.8707  0.3160
  143MOL   H22245946   4.787   4.937   4.630 -0.2705 -2.4706 -1.2489
  143MOL   H22345947   4.821   5.178   4.621 -0.6350  0.7702 -0.1955
  143MOL   H22445948   5.123   5.302   4.327  0.7188 -0.3297  0.4694
  143MOL   H22545949   5.101   5.471   4.376 -0.6544 -0.5639  0.7061
  143MOL   C22645950   5.157   5.333   4.532  0.1902  0.1463 -0.5426
  143MOL   C22745951   5.309   5.344   4.518  0.1071  0.3004  0.6430
  143MOL   C22845952   5.381   5.466   4.495  0.1456  0.2361 -0.2985
  143MOL   C22945953   5.522   5.472   4.471  0.0990 -0.4234  0.0248
  143MOL   C23045954   5.593   5.350   4.465  0.7492 -0.1311  0.2542
  143MOL   F23145955   5.728   5.350   4.434 -0.5008  0.2325  0.0384
  143MOL   C23245956   5.529   5.227   4.486  0.7742 -0.2484 -0.2114
  143MOL   C23345957   5.385   5.226   4.514 -0.0680  0.2587  0.1828
  143MOL   C23445958   5.112   5.431   4.644 -0.3455 -0.4630 -0.4716
  143MOL   H23545959   5.136   5.230   4.561 -1.7914  0.2879 -1.3429
  143MOL   H23645960   5.324   5.558   4.498  1.2153  0.8350  2.5428
  143MOL   H23745961   5.569   5.569   4.461 -2.0190  0.6776  0.5517
  143MOL   H23845962   5.574   5.129   4.481  0.6362 -0.3879  1.0773
  143MOL   H23945963   5.328   5.135   4.516  1.2253 -0.5367  1.4699
  143MOL   H24045964   5.140   5.536   4.632 -1.4479 -0.0392  0.5981
  143MOL   H24145965   5.004   5.422   4.648 -0.5342  1.9530  0.9540
  143MOL   C24245966   5.141   5.406   4.789 -0.9054 -0.2374 -0.4671
  143MOL   C24345967   5.108   5.267   4.841 -0.0371  0.1399 -0.1181
  143MOL   C24445968   5.187   5.157   4.814 -0.1903  0.2966 -0.1458
  143MOL   C24545969   5.153   5.030   4.857 -0.2435 -0.5753 -0.3739
  143MOL   C24645970   5.037   5.014   4.932  0.5854 -0.5781  0.2886
  143MOL   F24745971   5.000   4.895   4.985  0.7255  0.5792 -0.1990
  143MOL   C24845972   4.952   5.125   4.959  0.4503 -0.0106  0.1172
  143MOL   C24945973   4.992   5.253   4.917  0.4199  0.6093 -0.8705
  143MOL   C25045974   5.280   5.451   4.837  0.4453  0.5724  0.0642
  143MOL   H25145975   5.077   5.480   4.836  0.2477 -0.1536  1.0214
  143MOL   H25245976   5.281   5.172   4.763 -0.0224  0.4473  0.2060
  143MOL   H25345977   5.219   4.945   4.846 -0.6289 -0.9242 -0.0224
  143MOL   H25445978   4.856   5.107   5.005 -0.1440 -0.4643 -1.2558
  143MOL   H25545979   4.922   5.331   4.942  0.1199  0.5860 -1.6144
  143MOL   H25645980   5.350   5.377   4.799  0.1276  0.5898 -0.5530
  143MOL   H25745981   5.313   5.541   4.785  0.2322  1.1358  0.8773
  143MOL   C25845982   5.291   5.469   4.989  0.1393  0.0574 -0.3155
  143MOL   C25945983   5.440   5.449   5.028 -0.1411  0.4568 -0.0057
  143MOL   C26045984   5.538   5.526   4.975 -0.1745 -0.1523  0.5085
  143MOL   C26145985   5.676   5.504   5.002  0.5127 -0.8498  0.6822
  143MOL   C26245986   5.708   5.388   5.074  0.0136 -0.7649  0.5193
  143MOL   F26345987   5.830   5.347   5.093  0.1132 -0.4045 -0.5497
  143MOL   C26445988   5.604   5.312   5.132 -0.0382 -0.5599  0.3115
  143MOL   C26545989   5.469   5.335   5.103 -0.0596  0.0027 -0.4979
  143MOL   C26645990   5.226   5.599   5.046 -0.0022  0.6423 -0.2816
  143MOL   H26745991   5.230   5.383   5.015  1.4389 -0.7760  0.0319
  143MOL   H26845992   5.516   5.615   4.919  2.3097 -1.2447 -2.4146
  143MOL   H26945993   5.747   5.572   4.959  0.9113 -1.7932 -0.1556
  143MOL   H27045994   5.641   5.228   5.190  0.3039 -0.1452  0.7010
  143MOL   H27145995   5.395   5.263   5.135 -0.5728  0.8687  0.2699
  143MOL   H27245996   5.293   5.684   5.031 -0.2634  0.8793 -0.1062
  143MOL   H27345997   5.131   5.621   4.998  0.6888  1.3414 -1.3538
  143MOL   C27445998   5.188   5.608   5.197 -0.9758  0.0807 -0.4023
  143MOL   C27545999   5.116   5.743   5.224 -0.3861  0.3096  0.4375
  143MOL   C27646000   4.986   5.764   5.164 -0.1845  0.0098 -0.6245
  143MOL   C27746001   4.930   5.889   5.162  0.2194  0.0872 -0.2756
  143MOL   C27846002   4.995   5.997   5.219  0.2996  0.1153 -0.1290
  143MOL   F27946003   4.932   6.118   5.211 -0.5324  0.5244  0.5801
  143MOL   C28046004   5.124   5.980   5.276 -0.0695  0.0224 -0.1037
  143MOL   C28146005   5.189   5.854   5.275  0.1671 -0.4684  0.1040
  143MOL   C28246006   5.121   5.475   5.245  0.2589  0.0804  0.3804
  143MOL   H28346007   5.276   5.625   5.259  0.1466  0.0629 -1.9658
  143MOL   H28446008   4.928   5.687   5.115  1.0468 -0.6192 -1.1375
  143MOL   H28546009   4.830   5.907   5.126  1.1083 -0.4193 -3.1438
  143MOL   H28646010   5.179   6.065   5.314 -0.3660  0.4217 -0.5591
  143MOL   H28746011   5.290   5.843   5.311  0.9554  0.3484 -1.7881
  143MOL   H28846012   5.042   5.445   5.177 -0.6253  1.4943  0.7575
  143MOL   H28946013   5.202   5.405   5.265  2.2397  2.2510  0.2520
  143MOL   C29046014   5.058   5.495   5.385 -0.3591 -0.1096 -0.3135
  143MOL   C29146015   4.950   5.398   5.420  0.4778 -0.2742  0.4855
  143MOL   C29246016   4.975   5.262   5.445 -0.2072  0.6266 -0.0541
  143MOL   C29346017   4.878   5.178   5.515 -0.3182  0.3306 -0.4795
  143MOL   C29446018   4.755   5.234   5.542 -0.3395 -1.1314 -0.0420
  143MOL   F29546019   4.662   5.159   5.610 -0.0750 -0.2490  0.3089
  143MOL   C29646020   4.722   5.360   5.510 -0.2998 -0.4369 -0.2951
  143MOL   C29746021   4.818   5.445   5.450 -0.1634 -0.5858 -0.1604
  143MOL   C29846022   5.157   5.508   5.507  0.3278 -0.3726 -0.3165
  143MOL   H29946023   5.006   5.591   5.388 -0.7343 -0.2109 -2.6268
  143MOL   H30046024   5.073   5.221   5.421 -0.8767  0.0992 -1.9940
  143MOL   H30146025   4.892   5.075   5.544 -1.3565  0.5482  0.8586
  143MOL   H30246026   4.640   5.414   5.553  0.7239  2.0629 -1.3679
  143MOL   H30346027   4.797   5.548   5.427 -0.1240 -0.3583  0.8199
  143MOL   H30446028   5.206   5.411   5.513  1.4265  0.1896 -0.0379
  143MOL   H30546029   5.230   5.584   5.476  0.2390 -0.0581  0.2454
  143MOL   C30646030   5.121   5.543   5.652  0.3691 -0.3005 -0.1517
  143MOL   C30746031   5.121   5.695   5.676  0.0886  0.1025  0.3162
  143MOL   C30846032   5.176   5.740   5.796  0.1536  0.5639  0.5987
  143MOL   C30946033   5.182   5.877   5.827  0.0622 -0.6309  0.6730
  143MOL   C31046034   5.120   5.968   5.742 -0.1086 -0.4601  0.7108
  143MOL   F31146035   5.128   6.098   5.769 -0.4888 -0.3174 -0.2991
  143MOL   C31246036   5.070   5.922   5.619 -0.0186  0.6197 -0.0298
  143MOL   C31346037   5.067   5.785   5.582  0.2852 -0.2922  0.5001
  143MOL   C31446038   5.004   5.471   5.714  0.1713 -0.0212  0.0922
  143MOL   H31546039   5.202   5.507   5.715 -0.7191 -1.0541  0.8390
  143MOL   H31646040   5.233   5.682   5.867  0.6736  0.2270 -0.0868
  143MOL   H31746041   5.228   5.907   5.920  0.7570 -2.5635  0.9759
  143MOL   H31846042   5.030   5.995   5.551 -2.7431 -1.0497 -0.2746
  143MOL   H31946043   5.027   5.749   5.488  1.4826  1.0749 -0.5454
  143MOL   H32046044   4.998   5.466   5.822 -1.4493 -2.5522 -0.0528
  143MOL   H32146045   4.909   5.513   5.681  0.4598  1.0783  0.6748
  143MOL   H32246046   5.007   5.364   5.692 -0.5416 -0.4169  1.8650
  144MOL     C146047   1.951   2.148   2.907 -0.7077 -0.8976  0.1378
  144MOL     C246048   2.030   2.195   2.789 -0.3062 -0.0015  0.0500
  144MOL     C346049   1.964   2.261   2.679  0.1079 -0.0170  0.4770
  144MOL     C446050   2.047   2.299   2.571  0.0743  0.3795  0.6204
  144MOL     C546051   2.188   2.291   2.577 -0.0715  0.0286 -0.2564
  144MOL     F646052   2.262   2.334   2.473  0.4773 -0.5774 -0.6179
  144MOL     C746053   2.249   2.231   2.685 -0.3088 -0.2712  0.2165
  144MOL     C846054   2.170   2.182   2.792  0.2546 -0.3831  0.0532
  144MOL     C946055   1.932   1.988   2.905 -0.0629  0.2453 -0.2986
  144MOL    H1046056   1.856   2.202   2.910 -0.5651 -0.5947 -0.5896
  144MOL    H1146057   1.856   2.266   2.682  0.0721 -0.4826  0.1196
  144MOL    H1246058   2.005   2.347   2.484  2.5811  0.9210 -0.3204
  144MOL    H1346059   2.355   2.209   2.682 -0.1250  0.5822  0.1887
  144MOL    H1446060   2.229   2.134   2.869 -0.6571  0.1019  1.0782
  144MOL    H1546061   1.888   1.980   2.805 -1.6539 -2.3549  0.5658
  144MOL    H1646062   2.028   1.936   2.895 -1.1893 -2.2860  1.5956
  144MOL    H1746063   2.014   2.177   2.991 -1.3384  0.5297  0.1449
  144MOL    C1846064   1.832   1.914   2.997 -0.1871  0.6846  0.3168
  144MOL    C1946065   1.718   2.003   3.027  0.1254  0.2879  0.0571
  144MOL    C2046066   1.690   2.035   3.162 -0.3531 -0.0028  0.1788
  144MOL    C2146067   1.591   2.132   3.194  0.7765  0.5080  0.5708
  144MOL    C2246068   1.513   2.190   3.095  0.0873 -0.2794 -0.3834
  144MOL    F2346069   1.418   2.283   3.124  0.2361 -0.5966 -0.4729
  144MOL    C2446070   1.535   2.147   2.958 -0.0619 -0.5676 -0.6431
  144MOL    C2546071   1.641   2.061   2.923 -0.5014  0.2455 -0.0942
  144MOL    C2646072   1.799   1.766   2.943 -0.7260  0.0349  0.8825
  144MOL    H2746073   1.895   1.912   3.086 -0.9059 -1.1465  0.8079
  144MOL    H2846074   1.745   1.991   3.244  1.1141  0.6619 -0.4406
  144MOL    H2946075   1.561   2.149   3.296  1.7442 -0.6263  1.0634
  144MOL    H3046076   1.479   2.194   2.878 -1.2742  0.8470  1.0152
  144MOL    H3146077   1.666   2.057   2.819  0.8610 -0.2438  0.2446
  144MOL    H3246078   1.761   1.771   2.840 -0.6870 -1.1607  0.8102
  144MOL    H3346079   1.902   1.734   2.928 -0.0427  1.9514  1.2999
  144MOL    C3446080   1.719   1.666   3.032 -0.5270 -0.0571 -1.3466
  144MOL    C3546081   1.729   1.531   2.971  0.5788  0.9931 -0.5341
  144MOL    C3646082   1.848   1.456   2.965  0.2326 -0.4699 -0.0769
  144MOL    C3746083   1.839   1.327   2.909  0.2007 -0.2132 -0.6536
  144MOL    C3846084   1.727   1.276   2.850  0.4302 -0.2285  0.2552
  144MOL    F3946085   1.722   1.150   2.809 -0.4556 -0.5598  0.2136
  144MOL    C4046086   1.612   1.351   2.846  0.6443  0.3325  0.5068
  144MOL    C4146087   1.611   1.476   2.907 -0.3579 -0.4131  0.0262
  144MOL    C4246088   1.757   1.658   3.185  0.1485 -0.0228 -0.0652
  144MOL    H4346089   1.616   1.704   3.029 -0.0351  1.2738 -2.1592
  144MOL    H4446090   1.946   1.482   3.003  0.1859 -0.5738  0.1176
  144MOL    H4546091   1.926   1.263   2.913 -0.6331 -1.2978  1.2552
  144MOL    H4646092   1.525   1.300   2.809  1.1707  3.2609 -5.2643
  144MOL    H4746093   1.522   1.537   2.912 -0.4808 -0.7503  3.3036
  144MOL    H4846094   1.827   1.578   3.212  0.8009  1.2166  2.0050
  144MOL    H4946095   1.823   1.734   3.225 -0.9854  1.2800 -0.6417
  144MOL    C5046096   1.634   1.635   3.277  0.1531 -0.2341  0.3983
  144MOL    C5146097   1.562   1.501   3.251  0.7311  0.1135 -0.4009
  144MOL    C5246098   1.636   1.385   3.271 -0.0040 -0.1224 -0.2521
  144MOL    C5346099   1.564   1.265   3.254  0.1357  0.0453  0.1614
  144MOL    C5446100   1.437   1.259   3.202 -0.0332  0.1816  0.4664
  144MOL    F5546101   1.370   1.145   3.187 -0.1766 -0.4964  0.3223
  144MOL    C5646102   1.372   1.380   3.173 -0.0348  0.0130 -0.2991
  144MOL    C5746103   1.428   1.504   3.204 -0.1337 -0.6537 -0.5827
  144MOL    C5846104   1.681   1.650   3.425 -0.3589  0.4018  0.0666
  144MOL    H5946105   1.575   1.719   3.239  1.8850  0.1590 -1.4961
  144MOL    H6046106   1.742   1.395   3.287 -0.2471 -0.1216  1.3751
  144MOL    H6146107   1.629   1.180   3.268 -1.1140 -0.8272  0.7517
  144MOL    H6246108   1.273   1.367   3.132 -0.6181  0.7596  0.8708
  144MOL    H6346109   1.388   1.603   3.186 -0.6487 -0.1899  2.7724
  144MOL    H6446110   1.762   1.584   3.454 -1.0730 -0.2614  0.6001
  144MOL    H6546111   1.714   1.754   3.431  0.8700 -0.0377  1.1945
  144MOL    C6646112   1.569   1.644   3.531  0.4093 -0.5104  0.2394
  144MOL    C6746113   1.520   1.503   3.556  0.3271 -0.0632 -0.4279
  144MOL    C6846114   1.380   1.465   3.542 -0.3692  0.4778 -0.2308
  144MOL    C6946115   1.335   1.337   3.563 -0.5518  0.3733  0.2130
  144MOL    C7046116   1.425   1.236   3.601  0.2746  0.0837  0.0978
  144MOL    F7146117   1.374   1.113   3.624 -0.7660  0.2230  0.1391
  144MOL    C7246118   1.563   1.261   3.612  0.2079  0.6986 -0.2690
  144MOL    C7346119   1.608   1.393   3.594  0.5009  0.1573  0.3909
  144MOL    C7446120   1.612   1.711   3.663  0.1163 -0.8344 -0.4402
  144MOL    H7546121   1.486   1.703   3.491  2.7839  2.5175 -0.3442
  144MOL    H7646122   1.309   1.540   3.509 -1.9927 -1.2373 -0.6967
  144MOL    H7746123   1.232   1.316   3.538 -0.3619 -0.5827  0.2484
  144MOL    H7846124   1.631   1.182   3.640 -1.2744 -0.2943  0.6563
  144MOL    H7946125   1.711   1.409   3.621  0.7100  1.1727 -0.9403
  144MOL    H8046126   1.554   1.674   3.748  1.5075  2.3104  1.9674
  144MOL    H8146127   1.717   1.689   3.686  0.5571  0.8387 -0.8053
  144MOL    C8246128   1.584   1.862   3.653 -0.0765 -0.4564 -0.1945
  144MOL    C8346129   1.439   1.905   3.658  1.1578  0.8635 -0.3735
  144MOL    C8446130   1.351   1.839   3.747  0.3583  0.3378 -0.3635
  144MOL    C8546131   1.211   1.872   3.744  0.5205 -0.5092 -0.0403
  144MOL    C8646132   1.164   1.973   3.655  0.3323 -0.1621 -0.3303
  144MOL    F8746133   1.027   1.991   3.647  0.2116  0.2869  0.3887
  144MOL    C8846134   1.254   2.031   3.567 -0.0160 -0.1121 -0.0120
  144MOL    C8946135   1.388   2.006   3.574 -0.3570  0.4638 -0.3400
  144MOL    C9046136   1.662   1.948   3.752  0.5765 -0.1838 -0.7028
  144MOL    H9146137   1.619   1.897   3.556 -1.8193  2.1673  0.0874
  144MOL    H9246138   1.379   1.761   3.816  1.0580  0.0471 -0.9756
  144MOL    H9346139   1.149   1.814   3.810 -2.0775 -1.1763 -2.9577
  144MOL    H9446140   1.230   2.110   3.497  1.1719 -1.0906 -1.5638
  144MOL    H9546141   1.454   2.056   3.504  0.4589  0.0100  0.0928
  144MOL    H9646142   1.625   2.051   3.753  1.1637  0.0161  0.8803
  144MOL    H9746143   1.644   1.921   3.856  1.7736  0.1937 -0.3953
  144MOL    C9846144   1.818   1.957   3.735  0.5784  0.4615  0.1630
  144MOL    C9946145   1.858   2.018   3.599 -0.0606  0.6369 -0.2735
  144MOL   C10046146   1.808   2.147   3.561  0.3701  0.9677  1.4584
  144MOL   C10146147   1.853   2.193   3.433  0.1043  0.0384 -0.2968
  144MOL   C10246148   1.940   2.113   3.350  0.2970 -0.1209 -0.2208
  144MOL   F10346149   1.975   2.166   3.230  0.2855  0.0938  0.4291
  144MOL   C10446150   1.982   1.982   3.388  0.3368 -0.6608 -0.0125
  144MOL   C10546151   1.942   1.942   3.516  0.2350  0.1114  0.9345
  144MOL   C10646152   1.881   2.029   3.855 -0.1683 -0.5796 -0.7516
  144MOL   H10746153   1.854   1.854   3.736 -1.3952 -0.2589  1.5512
  144MOL   H10846154   1.747   2.211   3.623 -2.2779 -0.1590  0.1073
  144MOL   H10946155   1.830   2.291   3.394 -0.7840 -0.4055 -0.9199
  144MOL   H11046156   2.038   1.919   3.320 -0.0133 -1.3745  0.3688
  144MOL   H11146157   1.979   1.846   3.546 -2.0068 -1.3115 -0.6959
  144MOL   H11246158   1.983   2.060   3.834 -0.5984  0.8068 -0.8849
  144MOL   H11346159   1.833   2.126   3.867 -0.1538 -0.6028 -0.5082
  144MOL   C11446160   1.884   1.957   3.994  0.0041 -0.1518 -0.3269
  144MOL   C11546161   1.962   1.826   3.992 -0.2151  0.1947  0.4298
  144MOL   C11646162   2.095   1.822   3.944  0.0864 -0.3036 -0.1393
  144MOL   C11746163   2.168   1.708   3.947  0.0990  0.8297 -0.1013
  144MOL   C11846164   2.114   1.592   3.998 -1.0771  0.0049 -0.9321
  144MOL   F11946165   2.192   1.484   3.995  0.0689 -0.6868 -0.2711
  144MOL   C12046166   1.985   1.593   4.051 -0.9635  0.1365  0.5330
  144MOL   C12146167   1.904   1.707   4.047  0.1822 -0.7562 -0.4584
  144MOL   C12246168   1.933   2.051   4.111  0.2831  0.2038  0.5596
  144MOL   H12346169   1.782   1.928   4.019 -0.4238  0.2508 -1.5870
  144MOL   H12446170   2.147   1.900   3.891  1.0908 -0.5550  0.4525
  144MOL   H12546171   2.267   1.705   3.904  0.2414 -0.4523  0.2943
  144MOL   H12646172   1.947   1.503   4.097  1.4412 -1.0247  0.3074
  144MOL   H12746173   1.804   1.709   4.087  1.1356  2.3758  2.0054
  144MOL   H12846174   2.002   1.997   4.175  0.6849  0.0595  0.0111
  144MOL   H12946175   2.000   2.127   4.073  1.0567 -0.4063  0.7018
  144MOL   C13046176   1.816   2.106   4.187  0.6538 -0.0093 -0.1399
  144MOL   C13146177   1.734   1.995   4.255 -0.1749  0.1972  0.4281
  144MOL   C13246178   1.778   1.914   4.364  0.5392  0.5288  0.1228
  144MOL   C13346179   1.698   1.809   4.414  0.0828 -0.0830 -0.1564
  144MOL   C13446180   1.566   1.789   4.365 -0.7585 -0.1166 -0.6212
  144MOL   F13546181   1.503   1.686   4.419  0.4761  0.2376  0.3245
  144MOL   C13646182   1.515   1.876   4.266  0.6221  0.6629  0.5722
  144MOL   C13746183   1.597   1.980   4.213  0.0350  0.5104 -0.3050
  144MOL   C13846184   1.855   2.222   4.282 -0.0452 -0.4643 -0.2505
  144MOL   H13946185   1.748   2.154   4.115 -2.5214 -1.1311  2.0038
  144MOL   H14046186   1.870   1.924   4.418 -0.5359 -2.4843  2.6785
  144MOL   H14146187   1.747   1.743   4.486  2.0769 -0.0489 -1.4384
  144MOL   H14246188   1.418   1.863   4.219  1.0196 -1.0864  0.1987
  144MOL   H14346189   1.552   2.039   4.135  0.5098  1.0168 -0.2008
  144MOL   H14446190   1.769   2.253   4.342  0.6571  0.1960  0.4327
  144MOL   H14546191   1.927   2.184   4.355 -1.5833 -1.8677  0.5528
  144MOL   C14646192   1.898   2.353   4.215  0.0231 -0.5265  0.1641
  144MOL   C14746193   1.795   2.408   4.117  0.8052  0.1698  0.4970
  144MOL   C14846194   1.656   2.411   4.149 -0.5053 -0.2894 -0.0962
  144MOL   C14946195   1.567   2.456   4.050  0.4555 -0.4501 -0.2998
  144MOL   C15046196   1.619   2.501   3.926 -0.4487  0.0945 -0.3764
  144MOL   F15146197   1.536   2.548   3.828  0.0666 -0.1002  0.7585
  144MOL   C15246198   1.756   2.489   3.889  0.3166 -0.1990 -0.6712
  144MOL   C15346199   1.842   2.454   3.994 -0.0336  0.4886  0.1732
  144MOL   C15446200   1.951   2.461   4.311  0.4439  0.1567  0.9622
  144MOL   H15546201   1.985   2.332   4.152 -0.0864 -0.5176  0.0080
  144MOL   H15646202   1.625   2.360   4.239  1.6942  0.1586  0.9437
  144MOL   H15746203   1.461   2.454   4.070  0.1835  0.2199 -1.6107
  144MOL   H15846204   1.790   2.519   3.791 -1.3401  0.9542 -0.9266
  144MOL   H15946205   1.947   2.454   3.969 -0.5065 -3.0287 -2.2951
  144MOL   H16046206   1.881   2.545   4.311  2.6804  2.0826  0.2955
  144MOL   H16146207   1.930   2.426   4.412  1.0689  0.7431  1.3063
  144MOL   C16246208   2.108   2.503   4.297  0.4421 -0.2451 -0.5129
  144MOL   C16346209   2.131   2.588   4.165 -0.0266  0.1860  0.4674
  144MOL   C16446210   2.222   2.544   4.070 -0.7506 -0.0351  0.1373
  144MOL   C16546211   2.245   2.623   3.957  0.1845 -0.1591  0.1081
  144MOL   C16646212   2.179   2.747   3.943  0.2826  0.3497 -0.3858
  144MOL   F16746213   2.210   2.833   3.841 -0.3966 -0.0987 -0.1207
  144MOL   C16846214   2.086   2.789   4.034  0.4229 -0.1163  0.4916
  144MOL   C16946215   2.057   2.709   4.147  0.1257  0.5316  0.4997
  144MOL   C17046216   2.160   2.594   4.408 -0.1907  0.0180 -0.0754
  144MOL   H17146217   2.163   2.410   4.282  1.0864 -0.5500  3.1658
  144MOL   H17246218   2.282   2.454   4.078 -3.3825 -1.7092  1.4921
  144MOL   H17346219   2.318   2.597   3.882 -0.7764 -0.9359 -0.5880
  144MOL   H17446220   2.034   2.881   4.014 -1.0886 -1.3540 -1.4075
  144MOL   H17546221   2.001   2.744   4.232  1.4737  0.5630  1.3853
  144MOL   H17646222   2.259   2.633   4.386  1.3227 -3.3799  0.4124
  144MOL   H17746223   2.086   2.674   4.413  0.4451  0.8941 -3.2445
  144MOL   C17846224   2.175   2.528   4.548 -0.4290  0.0833 -0.0102
  144MOL   C17946225   2.293   2.422   4.545 -0.3404 -0.1319  0.7873
  144MOL   C18046226   2.430   2.457   4.551 -0.5763  0.2116  0.7587
  144MOL   C18146227   2.530   2.358   4.534 -0.2697 -0.5703 -0.0429
  144MOL   C18246228   2.495   2.225   4.529 -0.3230  0.2502 -0.5336
  144MOL   F18346229   2.581   2.122   4.515  0.3784  0.0330 -0.3274
  144MOL   C18446230   2.356   2.188   4.532 -1.2850  0.3677  0.6917
  144MOL   C18546231   2.259   2.285   4.545 -0.3431  0.3246  0.3652
  144MOL   C18646232   2.185   2.625   4.673 -0.2479  0.2903 -0.3421
  144MOL   H18746233   2.081   2.478   4.569  1.1274 -2.1756  1.8369
  144MOL   H18846234   2.454   2.561   4.568 -1.0897  0.4194  0.2634
  144MOL   H18946235   2.634   2.385   4.534  0.1307 -1.8401 -2.8973
  144MOL   H19046236   2.333   2.083   4.529  0.3568  0.0274 -1.5036
  144MOL   H19146237   2.156   2.261   4.569  0.4139 -2.9689  0.6293
  144MOL   H19246238   2.208   2.560   4.757  1.8885 -0.6836 -1.6238
  144MOL   H19346239   2.259   2.704   4.663 -0.0066  0.2148  0.8058
  144MOL   C19446240   2.043   2.686   4.715  0.5024  0.5194 -0.2507
  144MOL   C19546241   1.931   2.582   4.723  0.4543  0.4320 -0.5102
  144MOL   C19646242   1.843   2.580   4.618 -1.1148  0.4085 -0.4185
  144MOL   C19746243   1.743   2.482   4.627  0.6274  0.2646 -0.2455
  144MOL   C19846244   1.732   2.394   4.730  0.3133  0.1383 -0.4201
  144MOL   F19946245   1.643   2.303   4.728  0.4584  0.6680  0.0471
  144MOL   C20046246   1.815   2.402   4.841  0.4505  0.5973  0.2472
  144MOL   C20146247   1.924   2.496   4.834  0.9921  0.5431 -0.4376
  144MOL   C20246248   2.056   2.779   4.842 -0.1439  0.2281 -0.2121
  144MOL   H20346249   2.014   2.750   4.632 -0.6926 -3.0566 -2.7262
  144MOL   H20446250   1.854   2.642   4.530 -0.5295  0.6028 -0.2114
  144MOL   H20546251   1.677   2.468   4.543 -0.2222 -2.3153  0.7816
  144MOL   H20646252   1.804   2.340   4.928 -0.7275  0.2876 -0.1156
  144MOL   H20746253   1.996   2.509   4.914  1.0390  0.7861 -0.5194
  144MOL   H20846254   2.089   2.726   4.932  0.0784  1.3639  0.3921
  144MOL   H20946255   2.129   2.857   4.822  0.1987 -0.0381 -0.0059
  144MOL   C21046256   1.924   2.855   4.870  0.9216 -0.5477  0.0346
  144MOL   C21146257   1.910   2.908   5.013 -0.1209 -0.9546  0.5542
  144MOL   C21246258   1.975   3.026   5.057  0.3030 -0.0434 -0.0404
  144MOL   C21346259   1.945   3.081   5.181 -0.6071  0.3498 -0.8298
  144MOL   C21446260   1.845   3.024   5.260 -0.2897 -0.3464  0.0786
  144MOL   F21546261   1.801   3.091   5.366 -0.9479  0.3539 -0.1846
  144MOL   C21646262   1.794   2.902   5.229  0.3324 -0.2456  0.0156
  144MOL   C21746263   1.834   2.838   5.109 -0.1532  0.0787  0.8081
  144MOL   C21846264   1.896   2.969   4.770 -0.1716 -0.3489  0.4142
  144MOL   H21946265   1.839   2.787   4.863 -0.2959  1.0553 -0.9302
  144MOL   H22046266   2.041   3.080   4.990  3.0676 -0.4615  2.2119
  144MOL   H22146267   1.994   3.169   5.219 -1.7681  1.8716 -2.7985
  144MOL   H22246268   1.720   2.849   5.287  1.0408  0.4399  1.5829
  144MOL   H22346269   1.796   2.738   5.092 -0.2274  0.3567 -0.7639
  144MOL   H22446270   1.941   3.062   4.805 -0.2401  0.7262 -2.2492
  144MOL   H22546271   1.951   2.944   4.679  2.3820 -1.6517  2.2323
  144MOL   C22646272   1.745   2.999   4.742  0.1217 -0.3429 -0.0490
  144MOL   C22746273   1.658   3.018   4.871  0.0977  0.0034 -0.1535
  144MOL   C22846274   1.675   3.127   4.953 -0.0008 -0.5698 -0.3918
  144MOL   C22946275   1.589   3.146   5.061  0.0222 -0.3698 -0.2047
  144MOL   C23046276   1.494   3.049   5.093  0.1490  0.1711 -0.2454
  144MOL   F23146277   1.421   3.063   5.207 -0.1142 -0.2146  0.1442
  144MOL   C23246278   1.482   2.940   5.013  0.1741 -0.7098  0.3665
  144MOL   C23346279   1.557   2.927   4.894  0.5052  0.0923  0.0784
  144MOL   C23446280   1.733   3.118   4.644  0.1259 -1.1722 -0.1842
  144MOL   H23546281   1.713   2.905   4.697 -0.5941 -0.1717  0.0960
  144MOL   H23646282   1.754   3.200   4.941 -1.5985  1.2237 -0.1959
  144MOL   H23746283   1.588   3.221   5.139 -0.6055 -2.1348  1.5332
  144MOL   H23846284   1.398   2.877   5.035 -0.1327  0.6547  3.3526
  144MOL   H23946285   1.550   2.848   4.820 -0.7037  0.3297 -0.0629
  144MOL   H24046286   1.651   3.185   4.669  1.6419  0.3143  0.8745
  144MOL   H24146287   1.815   3.184   4.671  1.3184 -2.2806 -1.0545
  144MOL   C24246288   1.741   3.078   4.495 -0.6679 -0.2245 -0.3437
  144MOL   C24346289   1.646   2.964   4.457 -0.4172 -0.3148 -0.1709
  144MOL   C24446290   1.509   2.970   4.482  0.6784  0.1705 -0.2086
  144MOL   C24546291   1.437   2.851   4.454  0.4501 -0.5451 -0.3907
  144MOL   C24646292   1.490   2.727   4.413  0.5332 -0.1857  0.1801
  144MOL   F24746293   1.407   2.619   4.397 -0.2561  0.0267 -0.0124
  144MOL   C24846294   1.625   2.729   4.381  0.3962 -0.1661  0.5567
  144MOL   C24946295   1.704   2.846   4.405 -0.3080  0.0734 -0.5787
  144MOL   C25046296   1.715   3.203   4.403 -0.0810  0.7848 -0.4059
  144MOL   H25146297   1.844   3.048   4.476 -0.7216 -0.8150  0.2823
  144MOL   H25246298   1.473   3.052   4.544  2.3929  0.0137  1.0182
  144MOL   H25346299   1.331   2.852   4.475  0.7896  0.8830  1.2558
  144MOL   H25446300   1.675   2.639   4.347  0.1586 -0.0358 -0.1522
  144MOL   H25546301   1.805   2.846   4.370  0.9461 -0.0956  2.7993
  144MOL   H25646302   1.696   3.168   4.301 -0.2810 -0.1155 -0.0611
  144MOL   H25746303   1.620   3.249   4.430 -0.9291 -1.6304  0.8611
  144MOL   C25846304   1.828   3.314   4.416  0.0127  0.8077  0.4184
  144MOL   C25946305   1.956   3.271   4.353  0.5312  0.3887 -0.4838
  144MOL   C26046306   1.961   3.222   4.220  0.0487  0.0075  0.1427
  144MOL   C26146307   2.088   3.187   4.164 -0.1939 -0.2467  0.7425
  144MOL   C26246308   2.206   3.202   4.238 -0.3235 -0.3093  0.3794
  144MOL   F26346309   2.323   3.180   4.174 -0.2626 -0.2223  0.1631
  144MOL   C26446310   2.208   3.266   4.359  0.1500 -0.3934 -0.5370
  144MOL   C26546311   2.083   3.301   4.415 -0.0225  0.1069  0.1670
  144MOL   C26646312   1.782   3.446   4.352 -0.0008 -0.3876 -0.2707
  144MOL   H26746313   1.849   3.330   4.522  4.0222 -0.3741 -0.1127
  144MOL   H26846314   1.873   3.191   4.165  0.0871 -2.3936  1.3837
  144MOL   H26946315   2.090   3.160   4.059 -0.2953 -3.2628  1.4762
  144MOL   H27046316   2.305   3.279   4.406 -0.0799  1.6209 -0.6029
  144MOL   H27146317   2.077   3.339   4.516 -1.5091  0.5991 -0.0954
  144MOL   H27246318   1.873   3.489   4.309  0.8118 -1.0468  0.7519
  144MOL   H27346319   1.737   3.419   4.256  1.0241  0.3225 -0.9605
  144MOL   C27446320   1.727   3.562   4.448 -0.4501 -0.1655 -0.4507
  144MOL   C27546321   1.678   3.678   4.354  0.5293  0.4473  0.9403
  144MOL   C27646322   1.552   3.675   4.287  0.1849 -0.3593  0.0135
  144MOL   C27746323   1.523   3.777   4.194 -0.0811  0.2319  0.0931
  144MOL   C27846324   1.605   3.887   4.174  0.1828 -0.4860  0.5904
  144MOL   F27946325   1.563   3.993   4.097 -0.0083 -0.1480  0.7746
  144MOL   C28046326   1.727   3.895   4.241 -0.2807 -0.2079 -0.1290
  144MOL   C28146327   1.763   3.788   4.329  0.2558  0.2087  0.8114
  144MOL   C28246328   1.620   3.518   4.555  0.9269  0.2437 -0.1884
  144MOL   H28346329   1.816   3.599   4.498 -0.8389  0.3375 -0.1250
  144MOL   H28446330   1.491   3.588   4.308 -1.0639  0.9911  2.1590
  144MOL   H28546331   1.425   3.769   4.149  0.3825 -2.3418 -0.5292
  144MOL   H28646332   1.787   3.982   4.219 -0.2268 -0.1022  0.4488
  144MOL   H28746333   1.854   3.799   4.387  0.5894  2.2570 -0.0405
  144MOL   H28846334   1.527   3.499   4.501  1.3658 -2.4001 -0.0667
  144MOL   H28946335   1.636   3.421   4.601  0.2156 -0.7353 -1.9654
  144MOL   C29046336   1.576   3.610   4.664 -0.6821  0.5684  0.3122
  144MOL   C29146337   1.440   3.563   4.714 -0.5996 -0.0749  0.5699
  144MOL   C29246338   1.431   3.442   4.791  0.8309  0.3300  1.1021
  144MOL   C29346339   1.311   3.413   4.865 -0.2094 -0.2764 -0.1313
  144MOL   C29446340   1.199   3.495   4.850 -0.0293  0.4727  0.0098
  144MOL   F29546341   1.087   3.479   4.925 -0.2529 -0.6435 -0.1278
  144MOL   C29646342   1.213   3.616   4.770  1.0012  0.5533  0.4032
  144MOL   C29746343   1.335   3.652   4.704  0.2131  0.9956 -0.3095
  144MOL   C29846344   1.683   3.634   4.772 -0.5549 -0.1512 -0.4697
  144MOL   H29946345   1.558   3.703   4.610  1.8826  0.8322 -0.1445
  144MOL   H30046346   1.509   3.369   4.799  2.1000  1.2543 -2.1763
  144MOL   H30146347   1.306   3.326   4.929  1.3193 -0.2564  0.0225
  144MOL   H30246348   1.128   3.681   4.755  1.1502  0.4531 -0.9163
  144MOL   H30346349   1.325   3.742   4.645  0.2958 -0.4683 -2.6204
  144MOL   H30446350   1.713   3.539   4.818  0.9240  0.1091 -0.8456
  144MOL   H30546351   1.777   3.658   4.722 -0.9376  0.9466 -0.6822
  144MOL   C30646352   1.661   3.741   4.876  0.2147  0.0653 -0.5418
  144MOL   C30746353   1.562   3.698   4.982 -0.1860 -0.3168 -0.8110
  144MOL   C30846354   1.561   3.569   5.049  0.2255  0.1526  0.3248
  144MOL   C30946355   1.465   3.540   5.146 -0.2956 -0.4550 -0.2400
  144MOL   C31046356   1.373   3.638   5.190  0.4588 -0.5159  0.2444
  144MOL   F31146357   1.287   3.602   5.291 -0.0020  0.1549 -0.0036
  144MOL   C31246358   1.375   3.767   5.126 -0.3541 -0.5341  0.1528
  144MOL   C31346359   1.468   3.794   5.025 -0.0923  0.2960  0.5267
  144MOL   C31446360   1.787   3.785   4.941 -0.5344  0.4207 -0.0167
  144MOL   H31546361   1.612   3.827   4.830 -2.9718 -1.7685 -0.7164
  144MOL   H31646362   1.629   3.491   5.019 -0.0395  0.3556 -0.8308
  144MOL   H31746363   1.470   3.440   5.188 -0.5451  0.4358  1.9500
  144MOL   H31846364   1.317   3.850   5.163 -1.7010 -1.0214 -0.8331
  144MOL   H31946365   1.482   3.897   4.994 -1.3536  1.2358  2.9358
  144MOL   H32046366   1.855   3.832   4.870  1.5961 -0.5592  1.3525
  144MOL   H32146367   1.761   3.854   5.021 -0.2700 -1.1242  1.4199
  144MOL   H32246368   1.838   3.696   4.977 -0.7906 -0.4579 -1.7346
  145MOL     C146369   1.534   5.797   1.791 -0.2553  0.0755 -0.1404
  145MOL     C246370   1.575   5.663   1.838 -0.2787  0.5172  0.2900
  145MOL     C346371   1.712   5.637   1.850  0.3945  0.1121 -0.1832
  145MOL     C446372   1.747   5.512   1.898 -0.2919 -0.4586 -0.4375
  145MOL     C546373   1.651   5.414   1.935 -0.2527 -0.4320 -0.8065
  145MOL     F646374   1.696   5.294   1.988 -0.1665 -0.2120  0.6290
  145MOL     C746375   1.516   5.439   1.918  0.1017 -0.0461  0.4489
  145MOL     C846376   1.477   5.566   1.866 -0.1314  0.4274  0.5764
  145MOL     C946377   1.579   5.825   1.648 -0.2832 -0.2937 -0.2870
  145MOL    H1046378   1.590   5.869   1.850  1.0003 -1.4870  0.6192
  145MOL    H1146379   1.784   5.709   1.813 -2.8050  3.2126 -0.6624
  145MOL    H1246380   1.849   5.477   1.896 -0.5104 -1.1042 -0.5346
  145MOL    H1346381   1.438   5.367   1.941  1.0513 -1.4979 -0.7917
  145MOL    H1446382   1.373   5.593   1.860 -0.3902 -0.9701 -1.7279
  145MOL    H1546383   1.568   5.933   1.635  1.2702 -0.1611 -0.5262
  145MOL    H1646384   1.681   5.787   1.643 -0.4121 -0.5127 -1.5474
  145MOL    H1746385   1.429   5.819   1.806 -0.3420  0.4903 -1.2735
  145MOL    C1846386   1.496   5.755   1.547 -0.0544  0.6114  0.0442
  145MOL    C1946387   1.343   5.790   1.540  0.5980 -0.0641  0.3830
  145MOL    C2046388   1.247   5.702   1.591  1.0434  0.8131 -0.0919
  145MOL    C2146389   1.114   5.732   1.583  0.1067  0.3063 -0.0206
  145MOL    C2246390   1.072   5.856   1.534 -0.4366 -0.0826 -0.0472
  145MOL    F2346391   0.937   5.888   1.532 -0.4020 -0.1459  0.2142
  145MOL    C2446392   1.160   5.947   1.479 -0.2689 -0.0946 -0.4613
  145MOL    C2546393   1.294   5.912   1.486 -0.6311  0.2874  0.3588
  145MOL    C2646394   1.563   5.769   1.408  0.1214  1.3752 -0.2115
  145MOL    H2746395   1.488   5.650   1.574 -0.2137  0.4849 -0.4900
  145MOL    H2846396   1.279   5.609   1.636  0.0888  0.5524  0.0688
  145MOL    H2946397   1.039   5.662   1.615 -0.6734  1.0941 -0.1227
  145MOL    H3046398   1.115   6.037   1.440  2.3985  1.9044  0.9010
  145MOL    H3146399   1.369   5.974   1.440  0.1634 -1.9568 -1.4868
  145MOL    H3246400   1.580   5.874   1.385  3.2443  0.8726 -0.5060
  145MOL    H3346401   1.663   5.726   1.414 -0.5572 -0.4656 -1.7221
  145MOL    C3446402   1.494   5.720   1.279 -0.7949 -0.7387  0.2213
  145MOL    C3546403   1.542   5.781   1.151 -0.0549  0.1813  0.3549
  145MOL    C3646404   1.673   5.751   1.113 -0.2968  0.1331  0.4275
  145MOL    C3746405   1.735   5.803   0.995  0.1013  0.0416  0.5008
  145MOL    C3846406   1.653   5.877   0.905 -0.5356 -0.2987 -0.4516
  145MOL    F3946407   1.701   5.911   0.784 -0.1581 -0.0070 -0.4267
  145MOL    C4046408   1.522   5.904   0.943 -0.6907  0.0601  0.7913
  145MOL    C4146409   1.467   5.856   1.065 -0.8090 -0.4298  0.2775
  145MOL    C4246410   1.482   5.565   1.276 -0.5994  0.1247  0.1262
  145MOL    H4346411   1.391   5.756   1.286  0.1469  2.0058  0.2345
  145MOL    H4446412   1.734   5.684   1.172 -1.1801 -0.2678  0.8838
  145MOL    H4546413   1.837   5.773   0.978 -1.1289 -2.4965 -3.0503
  145MOL    H4646414   1.463   5.961   0.873 -0.4797 -0.5447  0.1120
  145MOL    H4746415   1.365   5.876   1.093 -0.5137 -1.1462  1.9274
  145MOL    H4846416   1.529   5.520   1.188 -0.5478 -1.8780  1.1373
  145MOL    H4946417   1.536   5.533   1.365  0.1634 -1.6319 -0.9258
  145MOL    C5046418   1.333   5.518   1.284  0.4240 -0.3508 -0.3854
  145MOL    C5146419   1.261   5.561   1.158 -0.2493 -0.4983  0.2989
  145MOL    C5246420   1.295   5.502   1.037  0.1702 -0.0129  0.3168
  145MOL    C5346421   1.233   5.547   0.917 -0.6062 -0.5987 -0.2120
  145MOL    C5446422   1.136   5.645   0.912  0.0513  0.1281  0.1026
  145MOL    F5546423   1.094   5.678   0.789  0.3651  0.1602  0.4441
  145MOL    C5646424   1.101   5.705   1.037  0.6860  0.1945  0.0635
  145MOL    C5746425   1.165   5.662   1.158  0.1312  0.6007  0.8731
  145MOL    C5846426   1.322   5.362   1.302  0.0651  0.3512 -0.1287
  145MOL    H5946427   1.283   5.563   1.370  1.7928 -0.0243  0.2652
  145MOL    H6046428   1.367   5.421   1.038 -0.0749 -0.2263  0.9661
  145MOL    H6146429   1.263   5.498   0.826  0.1300 -0.3674 -0.0944
  145MOL    H6246430   1.019   5.775   1.039  0.2137 -0.3379  3.2477
  145MOL    H6346431   1.136   5.707   1.251  0.9283 -1.5623  2.2172
  145MOL    H6446432   1.229   5.323   1.262  0.6858  0.8439 -2.0916
  145MOL    H6546433   1.408   5.327   1.244 -1.3819 -2.1780 -0.8274
  145MOL    C6646434   1.327   5.296   1.445  0.1591 -0.1557 -0.2119
  145MOL    C6746435   1.215   5.340   1.541 -0.2219 -0.6671 -0.7142
  145MOL    C6846436   1.252   5.351   1.677  0.1547  0.0850 -0.3085
  145MOL    C6946437   1.157   5.384   1.773  0.1709  0.5357 -0.4877
  145MOL    C7046438   1.023   5.391   1.741 -0.5520 -0.2569 -0.3228
  145MOL    F7146439   0.934   5.420   1.829  0.0955  0.1605 -0.3474
  145MOL    C7246440   0.987   5.398   1.606 -1.1106  0.1811 -0.5566
  145MOL    C7346441   1.085   5.367   1.504 -0.1914 -0.5418  0.5553
  145MOL    C7446442   1.315   5.143   1.436 -0.0538  0.8928  0.0137
  145MOL    H7546443   1.428   5.309   1.484  0.4599 -3.2068  0.1769
  145MOL    H7646444   1.351   5.320   1.704 -0.3009 -0.6999  0.5125
  145MOL    H7746445   1.187   5.387   1.877 -2.6844  2.3376  0.3627
  145MOL    H7846446   0.883   5.410   1.581 -1.8989 -2.1414  1.3454
  145MOL    H7946447   1.062   5.365   1.399 -0.0600 -1.7824  0.5420
  145MOL    H8046448   1.308   5.103   1.538  0.1428 -0.7510 -0.6028
  145MOL    H8146449   1.217   5.118   1.397 -1.3910  1.5882  2.8028
  145MOL    C8246450   1.440   5.075   1.378  0.0787  0.5201  0.2666
  145MOL    C8346451   1.566   5.107   1.451  0.2230 -0.1210 -0.1863
  145MOL    C8446452   1.586   5.074   1.592  0.1722 -0.1228  0.5268
  145MOL    C8546453   1.700   5.113   1.661 -0.1794 -0.3085  0.6543
  145MOL    C8646454   1.801   5.183   1.592 -0.3014 -0.2774 -0.2353
  145MOL    F8746455   1.902   5.230   1.661 -0.2596 -0.3549  0.4582
  145MOL    C8846456   1.788   5.219   1.456  0.2632  0.1852 -0.1248
  145MOL    C8946457   1.674   5.176   1.386 -0.0294  0.2950  0.7805
  145MOL    C9046458   1.428   4.921   1.367 -0.0229  0.3702  0.4797
  145MOL    H9146459   1.451   5.123   1.280  2.5899 -1.1899 -0.3221
  145MOL    H9246460   1.508   5.014   1.637  0.0063 -1.0514 -0.9498
  145MOL    H9346461   1.717   5.100   1.767  2.2333  1.1931  0.4958
  145MOL    H9446462   1.864   5.272   1.401  2.0359 -0.8140  1.2821
  145MOL    H9546463   1.667   5.208   1.283  3.6648  3.4667  1.4027
  145MOL    H9646464   1.518   4.860   1.352 -0.6491 -0.2588 -0.7971
  145MOL    H9746465   1.391   4.874   1.458 -4.3096  0.1932 -1.2362
  145MOL    C9846466   1.337   4.893   1.251 -0.9788 -0.4239  0.2756
  145MOL    C9946467   1.421   4.902   1.119  0.8822 -0.0433 -0.4259
  145MOL   C10046468   1.520   4.807   1.083  0.3673 -1.0244  0.2042
  145MOL   C10146469   1.592   4.825   0.963 -0.3866  0.1788  0.1656
  145MOL   C10246470   1.556   4.921   0.878 -0.3507 -0.5578 -0.7547
  145MOL   F10346471   1.605   4.921   0.749  0.4380 -0.1864 -0.0481
  145MOL   C10446472   1.471   5.026   0.917  0.4084 -0.1033  0.3410
  145MOL   C10546473   1.401   5.014   1.035  0.3117  0.1806  0.8267
  145MOL   C10646474   1.262   4.762   1.253 -0.1483 -0.8166 -0.8980
  145MOL   H10746475   1.258   4.968   1.251 -1.8227 -1.2836  2.6609
  145MOL   H10846476   1.539   4.726   1.151 -0.9938  0.7261  2.7213
  145MOL   H10946477   1.661   4.745   0.942 -0.5903 -0.3816  1.5973
  145MOL   H11046478   1.463   5.103   0.842  2.7361 -0.0359  0.1455
  145MOL   H11146479   1.328   5.090   1.058  0.7317  1.4903 -1.9081
  145MOL   H11246480   1.222   4.768   1.153  2.4278 -0.7459 -1.9720
  145MOL   H11346481   1.337   4.684   1.260  1.0702  0.4625  0.9662
  145MOL   C11446482   1.136   4.743   1.349  0.2224  0.1213  0.6454
  145MOL   C11546483   1.035   4.863   1.342  0.2579  0.1202 -0.8721
  145MOL   C11646484   1.000   4.931   1.464 -0.6749 -0.0419  0.0491
  145MOL   C11746485   0.933   5.057   1.457 -1.1551  0.4744  0.2368
  145MOL   C11846486   0.882   5.096   1.333  0.6704 -0.1495  0.0626
  145MOL   F11946487   0.820   5.212   1.322 -0.2668  0.0620 -0.0500
  145MOL   C12046488   0.913   5.024   1.216  0.2681  0.1354  0.4482
  145MOL   C12146489   0.992   4.910   1.217  0.2786 -0.2258 -0.2636
  145MOL   C12246490   1.058   4.613   1.310  0.1561 -0.1578 -0.1851
  145MOL   H12346491   1.175   4.728   1.449 -2.7703  0.2307  1.8721
  145MOL   H12446492   1.038   4.892   1.557 -1.2561  0.3978  0.4780
  145MOL   H12546493   0.919   5.122   1.542 -2.1373  0.4086  0.1307
  145MOL   H12646494   0.888   5.066   1.119 -0.8850 -1.2133  0.1500
  145MOL   H12746495   1.015   4.859   1.124  1.8703 -0.6331  0.3421
  145MOL   H12846496   1.010   4.630   1.213  1.8449  1.1037 -0.8346
  145MOL   H12946497   1.132   4.535   1.293  2.0083  1.4724  0.1312
  145MOL   C13046498   0.950   4.563   1.407  0.2496 -0.0453 -0.1508
  145MOL   C13146499   0.871   4.442   1.347 -1.0064 -0.0466  0.2552
  145MOL   C13246500   0.943   4.328   1.302 -0.1974 -0.1020  0.5313
  145MOL   C13346501   0.874   4.222   1.242 -0.0691 -0.4263  0.5076
  145MOL   C13446502   0.735   4.228   1.229  0.3394 -0.2092 -0.3941
  145MOL   F13546503   0.667   4.122   1.185 -0.1626 -0.9646  0.2850
  145MOL   C13646504   0.665   4.340   1.271  0.4752  0.2659  0.3769
  145MOL   C13746505   0.732   4.442   1.336  0.2903 -0.3458  0.0839
  145MOL   C13846506   1.011   4.531   1.548 -0.0557  0.9068  0.5014
  145MOL   H13946507   0.870   4.635   1.421 -2.0042 -2.4421 -0.2091
  145MOL   H14046508   1.051   4.328   1.313 -0.2306 -2.4190  1.0932
  145MOL   H14146509   0.932   4.134   1.218  1.7899  0.9710 -0.2272
  145MOL   H14246510   0.558   4.350   1.275  0.5046  0.4475  0.7396
  145MOL   H14346511   0.673   4.527   1.369 -1.3930 -1.4579  0.0102
  145MOL   H14446512   1.099   4.468   1.534 -0.0518  0.3990  2.5837
  145MOL   H14546513   1.049   4.611   1.612  0.4745  0.5601  0.6221
  145MOL   C14646514   0.929   4.427   1.634 -0.0636  0.3123  0.7138
  145MOL   C14746515   1.004   4.372   1.752 -0.3179  0.0446 -0.6601
  145MOL   C14846516   1.041   4.451   1.862 -0.5382 -0.3981  0.5027
  145MOL   C14946517   1.113   4.392   1.964 -0.3962  0.7393  0.5519
  145MOL   C15046518   1.140   4.254   1.967  0.3566  0.5560 -0.0980
  145MOL   F15146519   1.201   4.220   2.076  0.0539 -0.1850 -0.3751
  145MOL   C15246520   1.117   4.175   1.849 -0.9067 -0.0809  0.0496
  145MOL   C15346521   1.045   4.235   1.746  0.6343  0.2173 -1.3530
  145MOL   C15446522   0.790   4.480   1.688  0.5727 -0.5891 -0.3351
  145MOL   H15546523   0.908   4.343   1.568 -0.8049  1.5311 -0.6353
  145MOL   H15646524   1.015   4.555   1.874 -2.0149 -0.9241  1.8695
  145MOL   H15746525   1.130   4.456   2.048 -2.4601  0.8241  0.9316
  145MOL   H15846526   1.154   4.074   1.844 -0.5981  0.1269 -2.2550
  145MOL   H15946527   1.043   4.177   1.655  0.4892 -2.6007  0.3923
  145MOL   H16046528   0.805   4.559   1.762  0.6451 -0.6621 -0.2713
  145MOL   H16146529   0.725   4.520   1.611  0.2811  0.1852  0.2990
  145MOL   C16246530   0.703   4.370   1.765  0.4349  0.0925  0.2984
  145MOL   C16346531   0.624   4.430   1.880 -0.2952  0.3981  0.9807
  145MOL   C16446532   0.557   4.558   1.876 -0.1739  0.1884  0.2467
  145MOL   C16546533   0.475   4.592   1.984 -0.2896 -0.4482 -0.0320
  145MOL   C16646534   0.485   4.520   2.103 -0.6495 -0.3540 -0.0430
  145MOL   F16746535   0.417   4.555   2.208  0.3163 -0.2860 -0.0903
  145MOL   C16846536   0.549   4.398   2.112 -0.2896  0.4145 -0.0576
  145MOL   C16946537   0.625   4.354   2.002  0.9065  0.2766  0.4872
  145MOL   C17046538   0.610   4.314   1.656  0.1877  0.0665  0.7792
  145MOL   H17146539   0.772   4.298   1.809  0.1383 -0.1557  0.3619
  145MOL   H17246540   0.560   4.619   1.787  2.4640  3.2146  2.2931
  145MOL   H17346541   0.410   4.678   1.982  0.4163  0.0888  0.1341
  145MOL   H17446542   0.542   4.340   2.203 -0.9687  0.9538  0.2371
  145MOL   H17546543   0.682   4.262   2.006  0.2560 -0.1868 -0.5759
  145MOL   H17646544   0.537   4.391   1.633  0.7570  0.0223 -1.2836
  145MOL   H17746545   0.667   4.297   1.565  0.9572 -2.0787  1.6222
  145MOL   C17846546   0.533   4.181   1.692  0.3783  0.1530  0.2886
  145MOL   C17946547   0.417   4.192   1.792  0.8661  0.2430  0.4127
  145MOL   C18046548   0.303   4.262   1.748 -0.1460  0.0697 -1.0216
  145MOL   C18146549   0.197   4.290   1.841  0.3223  0.7073  0.4210
  145MOL   C18246550   0.205   4.241   1.968  0.2792 -0.3300  0.6536
  145MOL   F18346551   0.099   4.262   2.055  0.3966 -0.6693  0.5766
  145MOL   C18446552   0.315   4.171   2.020 -0.4339 -0.8191  0.8670
  145MOL   C18546553   0.420   4.148   1.927  0.0233  1.0067  0.0893
  145MOL   C18646554   0.490   4.115   1.565 -0.5130  0.4983  0.2065
  145MOL   H18746555   0.603   4.115   1.743  0.8108  0.3687 -0.0205
  145MOL   H18846556   0.307   4.304   1.649  0.7138  1.4353 -0.4216
  145MOL   H18946557   0.106   4.344   1.819  0.7874  0.7380 -1.4921
  145MOL   H19046558   0.317   4.133   2.121  0.1315 -1.0348  0.7722
  145MOL   H19146559   0.511   4.103   1.965  0.1862  1.5711  0.3775
  145MOL   H19246560   0.420   4.183   1.515  1.2613  1.2980 -1.2265
  145MOL   H19346561   0.577   4.107   1.500 -1.2287  2.3347 -1.0293
  145MOL   C19446562   0.430   3.969   1.580  0.1895 -0.0263 -1.2560
  145MOL   C19546563   0.345   3.920   1.463 -0.4045 -0.4367 -1.1013
  145MOL   C19646564   0.203   3.909   1.479 -0.6195 -0.2012 -0.1180
  145MOL   C19746565   0.124   3.907   1.362 -1.1548 -0.6737 -0.3409
  145MOL   C19846566   0.176   3.904   1.230  0.5255 -0.1223 -0.3390
  145MOL   F19946567   0.093   3.916   1.120  0.1411 -0.4655 -0.1084
  145MOL   C20046568   0.316   3.909   1.213  0.7946 -0.5264  0.5581
  145MOL   C20146569   0.392   3.912   1.331 -0.0061 -0.7633 -0.6632
  145MOL   C20246570   0.536   3.865   1.612 -0.1072 -0.5187  0.3060
  145MOL   H20346571   0.369   3.977   1.670  1.3896  0.4480 -0.4810
  145MOL   H20446572   0.152   3.908   1.574 -0.0560  2.8155  0.2533
  145MOL   H20546573   0.017   3.906   1.376 -1.5987 -1.1388 -3.3669
  145MOL   H20646574   0.365   3.929   1.119  1.5644 -2.9464  0.4110
  145MOL   H20746575   0.499   3.918   1.318 -0.0184 -1.5571 -1.1518
  145MOL   H20846576   0.581   3.830   1.519 -0.4515 -1.4494  0.4770
  145MOL   H20946577   0.621   3.911   1.663  0.0894  1.6823 -1.9476
  145MOL   C21046578   0.487   3.741   1.693 -0.2622  0.9514  0.0430
  145MOL   C21146579   0.576   3.625   1.672 -0.1622 -0.1405 -0.0757
  145MOL   C21246580   0.532   3.524   1.586 -0.0629 -0.3336 -0.6236
  145MOL   C21346581   0.614   3.412   1.573  0.5879  0.0378 -0.4931
  145MOL   C21446582   0.734   3.397   1.644 -0.2330 -0.2752  0.7301
  145MOL   F21546583   0.810   3.285   1.625  0.0475 -0.0016 -0.5290
  145MOL   C21646584   0.775   3.492   1.736 -0.5898  0.5564  0.1524
  145MOL   C21746585   0.694   3.608   1.751 -0.6911 -0.2993 -0.2697
  145MOL   C21846586   0.474   3.780   1.843  0.6709 -0.0283 -0.5076
  145MOL   H21946587   0.385   3.718   1.663 -0.5397  1.3066  0.7076
  145MOL   H22046588   0.436   3.535   1.537 -0.3711  1.3195  0.2865
  145MOL   H22146589   0.598   3.334   1.499 -0.8100 -0.0832 -0.0621
  145MOL   H22246590   0.857   3.476   1.803  0.3706  1.0832 -0.8867
  145MOL   H22346591   0.721   3.681   1.825 -0.5417 -0.9202  0.2925
  145MOL   H22446592   0.567   3.826   1.877 -0.1006  1.2151 -0.0545
  145MOL   H22546593   0.399   3.858   1.849  0.1539 -0.5048 -0.7522
  145MOL   C22646594   0.425   3.669   1.944  0.3583 -0.0968 -0.1276
  145MOL   C22746595   0.436   3.713   2.091 -0.7258  0.0974  0.6144
  145MOL   C22846596   0.529   3.647   2.177  0.3429 -0.5168  0.4324
  145MOL   C22946597   0.539   3.680   2.310 -0.1458 -0.1552  0.6230
  145MOL   C23046598   0.470   3.793   2.359 -0.0666 -0.9378 -0.2514
  145MOL   F23146599   0.464   3.818   2.489  0.1789  0.1775 -0.2400
  145MOL   C23246600   0.387   3.873   2.277  0.2455  0.8307  0.8239
  145MOL   C23346601   0.362   3.825   2.143 -0.0253  0.1317 -0.4181
  145MOL   C23446602   0.281   3.624   1.919  0.1299 -0.7115  0.1154
  145MOL   H23546603   0.489   3.582   1.930 -0.9296 -1.1681  0.5666
  145MOL   H23646604   0.582   3.561   2.138  1.9747  0.9994 -0.8075
  145MOL   H23746605   0.607   3.624   2.372 -0.1047 -1.3280 -0.4669
  145MOL   H23846606   0.332   3.959   2.313 -0.0039 -0.8174  4.7024
  145MOL   H23946607   0.289   3.876   2.082 -1.1418 -2.1624 -1.0419
  145MOL   H24046608   0.215   3.702   1.957 -0.0738 -0.0102 -1.6056
  145MOL   H24146609   0.258   3.613   1.813  2.0355 -1.3597 -0.2487
  145MOL   C24246610   0.250   3.493   1.991 -0.4798 -0.0681 -0.0373
  145MOL   C24346611   0.351   3.380   1.971  0.5606  0.0622  0.0163
  145MOL   C24446612   0.382   3.347   1.837 -0.2756  0.1364 -0.5811
  145MOL   C24546613   0.459   3.232   1.819 -0.2604  0.5063 -0.0569
  145MOL   C24646614   0.510   3.154   1.924 -0.7729 -0.9315 -0.7393
  145MOL   F24746615   0.570   3.041   1.897  0.1088  0.2247 -0.5891
  145MOL   C24846616   0.487   3.188   2.052  0.0140 -0.8322 -1.0692
  145MOL   C24946617   0.401   3.297   2.080 -0.0748  0.2318 -0.3860
  145MOL   C25046618   0.199   3.495   2.137 -0.3030 -0.5968  0.1728
  145MOL   H25146619   0.155   3.468   1.944 -0.7921 -0.5136  0.8057
  145MOL   H25246620   0.326   3.386   1.753 -0.7000 -1.1506 -0.9169
  145MOL   H25346621   0.488   3.191   1.723 -2.5983 -2.5102  0.4597
  145MOL   H25446622   0.518   3.122   2.132 -1.6067 -0.0525  0.2395
  145MOL   H25546623   0.378   3.322   2.182  0.3433  0.1501 -0.2733
  145MOL   H25646624   0.168   3.398   2.177  3.5630 -0.7593  3.0551
  145MOL   H25746625   0.289   3.522   2.192 -0.2900 -1.0833  0.3966
  145MOL   C25846626   0.077   3.581   2.190  0.0038 -0.4426  0.1921
  145MOL   C25946627   8.173   3.556   2.131  0.4427  0.0389  1.7481
  145MOL   C26046628   8.107   3.429   2.154 -0.5683 -0.5506 -0.0345
  145MOL   C26146629   7.977   3.407   2.104  0.1013 -1.3422  0.5458
  145MOL   C26246630   7.913   3.506   2.024  0.1403 -0.6641  0.6125
  145MOL   F26346631   7.792   3.477   1.966 -0.2262  0.4203  0.7055
  145MOL   C26446632   7.972   3.632   2.009  0.1758 -0.1460  0.2940
  145MOL   C26546633   8.105   3.660   2.060  0.1861 -0.4295  0.0165
  145MOL   C26646634   0.064   3.586   2.343  0.1107  0.1098  0.2611
  145MOL   H26746635   0.093   3.686   2.167  0.2302 -0.0046  2.3201
  145MOL   H26846636   8.157   3.348   2.205  0.6058 -0.4837 -1.0566
  145MOL   H26946637   7.923   3.320   2.138 -1.9641  0.3793  1.8380
  145MOL   H27046638   7.921   3.707   1.951  1.3893  1.3984  1.1854
  145MOL   H27146639   8.154   3.755   2.044 -1.2877  0.1029 -1.6066
  145MOL   H27246640   8.231   3.506   2.372 -0.8688  0.8024 -0.0960
  145MOL   H27346641   0.160   3.572   2.393  0.1412  1.6046  0.6651
  145MOL   C27446642   0.001   3.711   2.403  0.2568  0.4071  0.0661
  145MOL   C27546643   8.201   3.688   2.556 -0.2175 -0.0845  0.1320
  145MOL   C27646644   0.061   3.644   2.652 -0.3023  0.1829 -0.2494
  145MOL   C27746645   0.026   3.625   2.784  0.2519 -0.6262 -0.4913
  145MOL   C27846646   8.129   3.628   2.822 -0.9939  0.6126 -0.0309
  145MOL   F27946647   8.088   3.596   2.950 -0.2564  0.1116  0.2864
  145MOL   C28046648   8.030   3.667   2.731  0.1136 -0.8284 -0.0457
  145MOL   C28146649   8.070   3.711   2.603  0.5104  0.7688 -0.4925
  145MOL   C28246650   0.073   3.851   2.398 -1.1870  0.1699 -0.1696
  145MOL   H28346651   8.139   3.697   2.355 -0.5885 -0.5527  2.0338
  145MOL   H28446652   0.163   3.628   2.621 -1.2743  0.8895 -4.2068
  145MOL   H28546653   0.100   3.601   2.858  1.6750 -1.9539 -2.2823
  145MOL   H28646654   7.933   3.671   2.778  1.4930  3.5061  2.7023
  145MOL   H28746655   7.989   3.748   2.542  0.3070  0.6349 -0.3046
  145MOL   H28846656   0.155   3.850   2.470 -2.2079  1.6113  1.0500
  145MOL   H28946657   0.110   3.852   2.296  1.0393 -0.5871  0.6080
  145MOL   C29046658   8.219   3.977   2.423  0.0583  0.3018  0.2163
  145MOL   C29146659   0.052   4.110   2.461  1.2615 -0.0025 -0.7528
  145MOL   C29246660   0.042   4.167   2.591 -0.2667  0.9071 -0.8070
  145MOL   C29346661   0.120   4.282   2.629 -0.3440  0.9031  0.3707
  145MOL   C29446662   0.212   4.331   2.540  0.2304 -0.7269  0.8214
  145MOL   F29546663   0.282   4.440   2.575  0.1279  0.3092 -0.2860
  145MOL   C29646664   0.222   4.278   2.407 -0.9240 -0.1856 -0.1781
  145MOL   C29746665   0.138   4.168   2.373  0.1897  0.4897  0.1191
  145MOL   C29846666   8.121   4.010   2.298 -0.1144  0.4542  0.2091
  145MOL   H29946667   8.149   3.952   2.503 -0.6715 -0.8402 -0.7469
  145MOL   H30046668   8.212   4.123   2.666  0.6240  0.1125 -0.4894
  145MOL   H30146669   0.106   4.323   2.728  0.5436 -2.0833  1.8033
  145MOL   H30246670   0.307   4.306   2.347 -0.5671 -1.4042 -0.2610
  145MOL   H30346671   0.162   4.125   2.277  0.4416  0.9139 -0.0103
  145MOL   H30446672   8.182   4.033   2.210 -3.2726  0.3230 -2.1163
  145MOL   H30546673   8.067   3.918   2.274 -1.8249  1.8329 -1.3030
  145MOL   C30646674   8.020   4.127   2.322 -0.1724  0.2453 -0.4367
  145MOL   C30746675   7.975   4.180   2.181  0.6442  0.0694 -0.1615
  145MOL   C30846676   8.032   4.299   2.125  0.1261 -0.5537  0.3519
  145MOL   C30946677   7.980   4.355   2.005 -0.6224 -0.8152  0.6030
  145MOL   C31046678   7.884   4.283   1.928 -0.0640 -0.1003  0.7806
  145MOL   F31146679   7.854   4.322   1.805  0.2202 -0.0960 -0.0295
  145MOL   C31246680   7.819   4.173   1.991  0.6987 -0.0723 -0.3961
  145MOL   C31346681   7.864   4.126   2.113 -0.2286  0.1296 -0.4806
  145MOL   C31446682   7.900   4.068   2.400 -0.6966  0.2289  0.1186
  145MOL   H31546683   8.074   4.211   2.366 -1.3259  0.1790  1.1285
  145MOL   H31646684   8.105   4.355   2.181 -0.4422 -0.7171  1.2653
  145MOL   H31746685   8.022   4.443   1.957 -1.9754  0.2591  1.3560
  145MOL   H31846686   7.731   4.128   1.947  1.7472 -2.5716 -0.0095
  145MOL   H31946687   7.798   4.048   2.147  0.0232  0.3487  0.5306
  145MOL   H32046688   7.923   4.069   2.506 -4.6633 -0.5136  1.0652
  145MOL   H32146689   7.809   4.128   2.391 -0.4618  0.2931 -2.1021
  145MOL   H32246690   7.881   3.963   2.379  1.1220 -0.5269  2.0798
  146MOL     C146691   4.438   1.703   1.721 -0.2280 -0.2839 -0.5190
  146MOL     C246692   4.465   1.559   1.672  0.5982 -0.3414 -0.8981
  146MOL     C346693   4.479   1.540   1.530 -0.0340  0.1884 -0.1266
  146MOL     C446694   4.485   1.411   1.475  0.1549 -0.0764  0.6192
  146MOL     C546695   4.467   1.300   1.555 -0.5884 -0.3337  0.0540
  146MOL     F646696   4.478   1.176   1.507 -0.1554 -0.1069  0.1462
  146MOL     C746697   4.461   1.322   1.694 -0.2150 -0.3534  0.1145
  146MOL     C846698   4.469   1.449   1.756  0.5346  0.0899 -0.6794
  146MOL     C946699   4.291   1.720   1.778 -0.4183 -0.0256  0.2497
  146MOL    H1046700   4.445   1.771   1.636 -1.9523  0.7055  0.1002
  146MOL    H1146701   4.469   1.620   1.458  0.5787  0.9817  0.6624
  146MOL    H1246702   4.490   1.396   1.368 -0.8669  3.3467 -0.0031
  146MOL    H1346703   4.468   1.243   1.767  1.5185  0.8850  1.3264
  146MOL    H1446704   4.465   1.456   1.863 -2.4843  0.4164 -0.7647
  146MOL    H1546705   4.267   1.825   1.795 -0.3561  0.0560 -0.1520
  146MOL    H1646706   4.223   1.691   1.698  1.0623 -0.5548 -0.8471
  146MOL    H1746707   4.505   1.737   1.800 -0.2627  0.1656 -0.6822
  146MOL    C1846708   4.266   1.647   1.911  0.1989 -0.5787 -0.6106
  146MOL    C1946709   4.369   1.677   2.022 -0.2816 -0.0998 -0.6124
  146MOL    C2046710   4.397   1.812   2.055  0.3220  0.0684  0.1341
  146MOL    C2146711   4.497   1.844   2.149 -0.0488  0.0081  1.1031
  146MOL    C2246712   4.570   1.742   2.214 -0.5012 -0.7705  0.1085
  146MOL    F2346713   4.667   1.775   2.303 -0.1049 -0.1400 -0.4572
  146MOL    C2446714   4.537   1.605   2.188  0.6740  0.0346  0.6575
  146MOL    C2546715   4.432   1.574   2.102  0.3898  0.3500  0.4118
  146MOL    C2646716   4.112   1.661   1.959  0.8606  0.2168  0.5685
  146MOL    H2746717   4.295   1.543   1.894  1.5167 -0.4496  0.7650
  146MOL    H2846718   4.355   1.898   2.005 -0.8486 -0.4576  0.1975
  146MOL    H2946719   4.516   1.948   2.168  0.4981  0.2164 -0.5001
  146MOL    H3046720   4.576   1.530   2.255  0.8016 -0.0855  0.4461
  146MOL    H3146721   4.414   1.467   2.098 -0.7789  0.5343  0.5055
  146MOL    H3246722   4.113   1.635   2.065  1.8418 -2.2584 -0.0246
  146MOL    H3346723   4.079   1.765   1.957  1.8625  0.5119 -1.7403
  146MOL    C3446724   4.016   1.566   1.886  0.0905  0.2949  0.2354
  146MOL    C3546725   4.083   1.428   1.881  0.0358  0.3814 -1.0882
  146MOL    C3646726   4.127   1.352   1.998 -1.1273  0.2966  0.3653
  146MOL    C3746727   4.183   1.221   1.979 -0.3324  0.5375 -0.0201
  146MOL    C3846728   4.205   1.171   1.850  0.0477 -0.1987 -0.3174
  146MOL    F3946729   4.257   1.053   1.823  0.0266 -0.3248 -0.1241
  146MOL    C4046730   4.167   1.250   1.736  0.4953  0.5683  0.2256
  146MOL    C4146731   4.117   1.381   1.756  0.1740  0.1973 -0.0175
  146MOL    C4246732   3.867   1.561   1.941  0.4493 -0.4146  0.1863
  146MOL    H4346733   4.015   1.601   1.782 -0.4031  1.6617  0.6948
  146MOL    H4446734   4.099   1.387   2.096  0.0869  1.3780  0.3471
  146MOL    H4546735   4.218   1.170   2.067 -0.4139  2.1142  0.9431
  146MOL    H4646736   4.189   1.213   1.637 -3.0797  0.9314 -0.7799
  146MOL    H4746737   4.096   1.440   1.668  1.9401  0.7463 -0.0914
  146MOL    H4846738   3.800   1.499   1.881  0.1756 -0.0697  0.1294
  146MOL    H4946739   3.874   1.512   2.037 -0.3000  0.6043  0.7723
  146MOL    C5046740   3.799   1.698   1.957 -0.4068  0.6377 -0.1026
  146MOL    C5146741   3.808   1.795   1.840  0.5344  0.5168  0.0841
  146MOL    C5246742   3.745   1.747   1.722 -0.3488 -0.2678  0.0649
  146MOL    C5346743   3.750   1.829   1.608 -0.5492  0.4307 -0.0513
  146MOL    C5446744   3.812   1.955   1.604 -0.1803  0.3815  0.2005
  146MOL    F5546745   3.810   2.034   1.495  0.8039 -0.4165 -0.3429
  146MOL    C5646746   3.873   2.001   1.724 -0.1121 -0.1012 -0.0980
  146MOL    C5746747   3.872   1.922   1.845  0.0634  0.0769  0.8718
  146MOL    C5846748   3.665   1.698   2.027  0.3268  0.2439  0.9848
  146MOL    H5946749   3.867   1.757   2.020 -0.8424  0.2914  0.7073
  146MOL    H6046750   3.705   1.648   1.718  2.2638 -1.2967 -2.8652
  146MOL    H6146751   3.708   1.789   1.517 -0.4566 -1.5729  0.7604
  146MOL    H6246752   3.914   2.101   1.734  0.9473 -0.4437 -0.8732
  146MOL    H6346753   3.914   1.957   1.938  0.8226 -1.2623  1.0391
  146MOL    H6446754   3.588   1.668   1.955  4.1198 -2.0335 -2.2723
  146MOL    H6546755   3.652   1.619   2.101 -1.3121  0.9583  1.4959
  146MOL    C6646756   3.616   1.840   2.080  0.0845  0.0227  0.3161
  146MOL    C6746757   3.464   1.856   2.054 -0.0158  0.1471  0.4044
  146MOL    C6846758   3.371   1.776   2.122  0.2028 -0.4618 -0.2843
  146MOL    C6946759   3.231   1.790   2.099 -0.4418  0.1338 -0.0372
  146MOL    C7046760   3.187   1.887   2.009  0.0441 -0.3057  0.3479
  146MOL    F7146761   3.054   1.901   1.983  0.3318 -0.2365 -0.1740
  146MOL    C7246762   3.279   1.963   1.941  0.1921  0.1597 -0.3940
  146MOL    C7346763   3.418   1.951   1.961 -0.0531 -0.4735 -0.2242
  146MOL    C7446764   3.666   1.872   2.224 -0.2939  0.0318 -0.1247
  146MOL    H7546765   3.659   1.920   2.019  2.2244 -1.0137  0.4001
  146MOL    H7646766   3.409   1.719   2.205 -0.6088 -1.9035 -0.8841
  146MOL    H7746767   3.155   1.730   2.146  0.5298  0.0000  1.3887
  146MOL    H7846768   3.242   2.029   1.864 -2.0930 -2.6123 -1.7498
  146MOL    H7946769   3.481   2.020   1.908 -1.9590  2.1966  0.8579
  146MOL    H8046770   3.647   1.779   2.278 -0.2081  0.8892  1.3879
  146MOL    H8146771   3.769   1.903   2.242  0.2088 -1.9782  0.5785
  146MOL    C8246772   3.585   1.970   2.313  0.7537 -0.1280 -0.0515
  146MOL    C8346773   3.612   1.938   2.455 -0.3993 -0.5441  0.0290
  146MOL    C8446774   3.743   1.969   2.508 -0.4986  0.2115  0.4729
  146MOL    C8546775   3.784   1.927   2.636 -0.0935 -0.1965  0.5236
  146MOL    C8646776   3.699   1.855   2.722  0.3677 -0.1484  0.0656
  146MOL    F8746777   3.746   1.803   2.842 -0.0677 -0.3710 -0.6394
  146MOL    C8846778   3.571   1.829   2.672  0.3648 -0.1048 -0.4805
  146MOL    C8946779   3.527   1.868   2.542  0.6250  0.4103  0.1926
  146MOL    C9046780   3.590   2.116   2.267  0.3452  0.0468 -0.0949
  146MOL    H9146781   3.479   1.952   2.298  0.1738  3.1178 -0.1723
  146MOL    H9246782   3.818   2.022   2.452  0.7290  0.5967  2.4370
  146MOL    H9346783   3.881   1.956   2.673  0.6772 -0.4917 -1.2279
  146MOL    H9446784   3.506   1.774   2.738  1.6482  0.2594  1.1394
  146MOL    H9546785   3.428   1.843   2.507  1.3629  1.2703 -2.5774
  146MOL    H9646786   3.692   2.148   2.248 -0.2313  3.0111  1.4434
  146MOL    H9746787   3.549   2.108   2.166  0.1757  1.9941 -0.2122
  146MOL    C9846788   3.527   2.216   2.353  0.1922 -0.0990 -0.2008
  146MOL    C9946789   3.601   2.354   2.354  0.7527 -0.3129 -0.2065
  146MOL   C10046790   3.573   2.445   2.253  0.4334  0.4372  0.8706
  146MOL   C10146791   3.630   2.573   2.257  0.6479  0.2126  0.3020
  146MOL   C10246792   3.718   2.607   2.359 -0.7600 -0.7202  0.7243
  146MOL   F10346793   3.756   2.733   2.366  0.2614 -0.0005 -0.5591
  146MOL   C10446794   3.759   2.509   2.455 -0.4269  0.0551 -0.2809
  146MOL   C10546795   3.694   2.385   2.460  1.0918  0.4032  0.4847
  146MOL   C10646796   3.371   2.227   2.329  0.4718 -0.6419  0.1122
  146MOL   H10746797   3.538   2.176   2.454  1.2499 -1.1339 -0.7184
  146MOL   H10846798   3.503   2.425   2.174 -1.5128 -0.5873  2.7901
  146MOL   H10946799   3.598   2.650   2.189 -0.7512 -0.0853  0.6235
  146MOL   H11046800   3.831   2.536   2.531 -0.5548  0.7424 -0.4033
  146MOL   H11146801   3.704   2.320   2.546  3.8002  0.0450 -0.0288
  146MOL   H11246802   3.339   2.296   2.251 -1.9985 -1.7293  0.1082
  146MOL   H11346803   3.343   2.130   2.287  0.9743 -0.6322 -0.2428
  146MOL   C11446804   3.291   2.251   2.454  0.1545  0.5611 -0.3766
  146MOL   C11546805   3.325   2.375   2.525  0.1663 -0.6595  0.2106
  146MOL   C11646806   3.315   2.501   2.458  0.5187 -0.2101  0.0243
  146MOL   C11746807   3.348   2.618   2.523  0.2878 -0.1863 -0.9027
  146MOL   C11846808   3.416   2.612   2.650 -0.1829  0.4462 -0.2168
  146MOL   F11946809   3.459   2.719   2.720  0.4967  0.6622  0.5977
  146MOL   C12046810   3.425   2.490   2.715  1.0280  0.5789 -0.5553
  146MOL   C12146811   3.381   2.372   2.653 -0.3494 -0.2882  1.0083
  146MOL   C12246812   3.134   2.230   2.420 -0.0914 -0.6153 -0.0336
  146MOL   H12346813   3.316   2.168   2.520 -2.3449  0.4242  0.4685
  146MOL   H12446814   3.285   2.502   2.355 -4.2560  2.6824  1.2890
  146MOL   H12546815   3.333   2.715   2.477 -0.1696  1.0069  1.6543
  146MOL   H12646816   3.465   2.486   2.815  1.7832 -0.9369 -0.9041
  146MOL   H12746817   3.380   2.277   2.706  1.9195  0.0955  1.7695
  146MOL   H12846818   3.102   2.318   2.365 -0.3039 -1.7270 -1.7191
  146MOL   H12946819   3.116   2.141   2.361  1.2633 -1.3527  0.6466
  146MOL   C13046820   3.030   2.226   2.540 -0.3846 -0.0333  0.7130
  146MOL   C13146821   2.892   2.283   2.512  0.2409  0.4667  0.1709
  146MOL   C13246822   2.818   2.242   2.404  0.3894  0.4395 -0.1061
  146MOL   C13346823   2.684   2.279   2.406  0.1096  0.3951  0.6593
  146MOL   C13446824   2.630   2.365   2.507  0.0076 -0.1383 -0.0562
  146MOL   F13546825   2.498   2.398   2.502  0.3091 -0.7506 -0.1234
  146MOL   C13646826   2.710   2.409   2.615  0.4428 -0.0198 -0.1975
  146MOL   C13746827   2.839   2.371   2.611 -0.6481 -0.9658 -0.2826
  146MOL   C13846828   3.018   2.086   2.593  0.2844 -0.9519 -0.2570
  146MOL   H13946829   3.071   2.297   2.612  0.5282 -0.0730  0.2419
  146MOL   H14046830   2.867   2.181   2.329 -0.8508  0.3949 -0.9067
  146MOL   H14146831   2.619   2.265   2.321 -0.7557 -1.0936  1.5446
  146MOL   H14246832   2.671   2.467   2.697  0.9476  1.1023 -0.7505
  146MOL   H14346833   2.895   2.416   2.691  0.4091 -0.3454 -1.3531
  146MOL   H14446834   2.930   2.041   2.546 -0.2433 -0.2248  0.0364
  146MOL   H14546835   3.110   2.030   2.573  1.1339 -0.6612  2.6291
  146MOL   C14646836   2.990   2.075   2.750 -0.4426  0.4949  1.0835
  146MOL   C14746837   2.955   1.931   2.783 -1.4956 -0.4117  0.2675
  146MOL   C14846838   2.859   1.912   2.885 -0.9321 -0.0590 -0.6262
  146MOL   C14946839   2.820   1.785   2.926  0.1271 -0.5361  0.2932
  146MOL   C15046840   2.871   1.673   2.855  0.2198  0.3592 -0.0833
  146MOL   F15146841   2.834   1.551   2.901  0.2979  0.6132  0.3685
  146MOL   C15246842   2.967   1.691   2.756  0.5915 -0.5883  0.3956
  146MOL   C15346843   3.006   1.817   2.715  0.4046 -0.1606  0.4663
  146MOL   C15446844   3.115   2.106   2.823  0.1728 -0.3575  0.5107
  146MOL   H15546845   2.916   2.149   2.779  1.0889  2.9860 -1.1560
  146MOL   H15646846   2.820   2.000   2.935 -5.0458 -1.5058 -1.1025
  146MOL   H15746847   2.760   1.777   3.016 -0.2286  2.2493  0.3493
  146MOL   H15846848   3.010   1.600   2.716 -0.8782 -0.7109 -0.9750
  146MOL   H15946849   3.079   1.815   2.635 -1.1842 -1.2938 -1.0019
  146MOL   H16046850   3.170   2.013   2.834  1.1786  0.2327  0.5479
  146MOL   H16146851   3.181   2.173   2.767 -0.3802  2.0425  2.6277
  146MOL   C16246852   3.097   2.164   2.967  0.2152  0.0394  0.9654
  146MOL   C16346853   3.228   2.136   3.046 -0.1020  0.3348 -0.1814
  146MOL   C16446854   3.347   2.206   3.004  0.3899  0.1863 -0.5797
  146MOL   C16546855   3.468   2.172   3.069  0.3823 -0.4372 -0.3369
  146MOL   C16646856   3.475   2.088   3.179  0.6172 -0.3927 -0.0685
  146MOL   F16746857   3.588   2.057   3.240 -0.2818  0.2022  0.4648
  146MOL   C16846858   3.361   2.018   3.214  0.2206  0.7631 -0.8618
  146MOL   C16946859   3.234   2.042   3.152  0.6559  0.4463 -0.0446
  146MOL   C17046860   3.058   2.314   2.976 -0.4825  0.3258  0.1801
  146MOL   H17146861   3.025   2.100   3.018 -1.7688  0.8434 -0.7723
  146MOL   H17246862   3.356   2.276   2.922 -0.4990 -0.0017 -0.8398
  146MOL   H17346863   3.555   2.228   3.039 -0.8384  0.9506 -1.3526
  146MOL   H17446864   3.354   1.944   3.291  1.6407  1.6331  0.1338
  146MOL   H17546865   3.143   1.990   3.176 -0.9196  1.4085 -3.6348
  146MOL   H17646866   3.138   2.387   2.986 -0.4943  0.1982  1.3007
  146MOL   H17746867   3.020   2.340   2.877 -1.8575  0.8141  0.8353
  146MOL   C17846868   2.939   2.347   3.065  0.6823  0.4644  0.4219
  146MOL   C17946869   2.971   2.289   3.201 -0.4494 -0.9310  1.2866
  146MOL   C18046870   3.087   2.329   3.274  0.6479 -1.0000  0.2039
  146MOL   C18146871   3.103   2.291   3.408 -0.0078 -0.5203  0.4282
  146MOL   C18246872   3.017   2.206   3.473  0.2252  0.2539 -0.3807
  146MOL   F18346873   3.044   2.160   3.600  0.1310  0.1552 -0.1325
  146MOL   C18446874   2.911   2.160   3.399 -0.0034 -0.2172 -0.5239
  146MOL   C18546875   2.884   2.201   3.267  0.3510 -0.2448  0.3086
  146MOL   C18646876   2.906   2.496   3.076 -1.0150  0.5284  0.3267
  146MOL   H18746877   2.851   2.291   3.034  1.7310 -0.6482 -0.5784
  146MOL   H18846878   3.150   2.402   3.225 -0.5688  0.7382  1.1620
  146MOL   H18946879   3.190   2.325   3.461  0.2464  0.8372 -0.8536
  146MOL   H19046880   2.845   2.085   3.440 -1.2144  0.9753 -0.2441
  146MOL   H19146881   2.791   2.173   3.221  0.9005  0.7447 -1.4614
  146MOL   H19246882   3.000   2.550   3.087 -0.9344  0.3811  0.3642
  146MOL   H19346883   2.875   2.525   2.975  0.1957  2.5563  0.5026
  146MOL   C19446884   2.801   2.552   3.177 -0.1729  0.0583 -0.3798
  146MOL   C19546885   2.813   2.707   3.184 -0.1046  0.3595  0.6801
  146MOL   C19646886   2.870   2.772   3.297  0.0450  0.2623  0.0873
  146MOL   C19746887   2.872   2.915   3.300  0.6351  0.4481  0.7110
  146MOL   C19846888   2.826   2.992   3.191  0.5551  0.6062 -0.2282
  146MOL   F19946889   2.806   3.124   3.211  0.0163 -0.2806  0.1405
  146MOL   C20046890   2.774   2.931   3.075 -0.0439  0.5302  0.0423
  146MOL   C20146891   2.767   2.790   3.072 -0.2139 -0.2764 -0.0847
  146MOL   C20246892   2.663   2.499   3.146  0.7769  0.2015  0.6310
  146MOL   H20346893   2.834   2.514   3.274 -1.7945  0.4558  0.3298
  146MOL   H20446894   2.889   2.704   3.379 -0.8862  1.5164  1.3516
  146MOL   H20546895   2.889   2.968   3.392 -0.6181  2.3307 -0.1048
  146MOL   H20646896   2.738   2.988   2.990 -0.9101  0.5736  0.4352
  146MOL   H20746897   2.738   2.743   2.980 -2.3889  0.7357  0.0560
  146MOL   H20846898   2.596   2.579   3.113 -0.1270 -0.0086  1.9406
  146MOL   H20946899   2.665   2.425   3.066  0.8267 -0.3064  1.1032
  146MOL   C21046900   2.594   2.437   3.281 -0.3147  0.2691 -0.6653
  146MOL   C21146901   2.632   2.500   3.419 -0.1851  0.4357 -0.5128
  146MOL   C21246902   2.700   2.418   3.509  0.1845  0.5303 -0.0523
  146MOL   C21346903   2.734   2.458   3.638 -0.4648  0.5690  0.6369
  146MOL   C21446904   2.687   2.583   3.689  0.8560 -0.3517  0.2556
  146MOL   F21546905   2.688   2.613   3.821 -0.1118 -0.0112 -0.1320
  146MOL   C21646906   2.618   2.665   3.597  0.1140  0.4894 -0.2118
  146MOL   C21746907   2.599   2.633   3.463  0.7216  0.1748 -0.3764
  146MOL   C21846908   2.440   2.432   3.271 -0.8134 -0.0244  0.3630
  146MOL   H21946909   2.631   2.335   3.284 -0.8552 -0.0200 -3.0406
  146MOL   H22046910   2.733   2.319   3.483  0.2426  0.8411 -1.1776
  146MOL   H22146911   2.795   2.393   3.699 -1.4318 -0.3224  0.6661
  146MOL   H22246912   2.573   2.760   3.620 -2.0996 -0.5641 -0.0093
  146MOL   H22346913   2.545   2.703   3.400 -0.6325 -0.0744  0.4994
  146MOL   H22446914   2.401   2.391   3.364  0.1221  0.8002  1.1156
  146MOL   H22546915   2.400   2.533   3.259 -0.1965  0.3186  1.1902
  146MOL   C22646916   2.377   2.354   3.148  0.6424 -0.2938  0.0785
  146MOL   C22746917   2.415   2.204   3.149  0.0772 -0.8097  0.7197
  146MOL   C22846918   2.414   2.130   3.273 -0.1660  0.5213 -0.0888
  146MOL   C22946919   2.430   1.992   3.262  0.0258  0.3281 -0.3445
  146MOL   C23046920   2.461   1.929   3.139 -0.0609 -0.5575 -0.3754
  146MOL   F23146921   2.507   1.797   3.140  0.4650  0.1023  0.4791
  146MOL   C23246922   2.475   2.002   3.023 -0.0016  0.2873  1.0914
  146MOL   C23346923   2.445   2.143   3.027  0.4774  0.6604 -0.0519
  146MOL   C23446924   2.224   2.374   3.147 -0.9411 -0.0010 -0.4026
  146MOL   H23546925   2.419   2.385   3.053  2.2297 -2.2395  0.1163
  146MOL   H23646926   2.388   2.184   3.362 -1.9500 -0.6927  0.1618
  146MOL   H23746927   2.418   1.925   3.346 -1.7841 -0.6990 -1.3786
  146MOL   H23846928   2.508   1.949   2.936 -2.3450 -0.2576  0.4958
  146MOL   H23946929   2.449   2.206   2.939  0.2491 -0.2061 -0.6896
  146MOL   H24046930   2.183   2.307   3.071 -1.9522  0.8456 -0.6169
  146MOL   H24146931   2.171   2.335   3.234 -0.2614 -1.6744 -0.7235
  146MOL   C24246932   2.161   2.512   3.113  0.3264  0.5426 -0.3627
  146MOL   C24346933   2.248   2.576   3.010 -0.7668  0.6134  0.0365
  146MOL   C24446934   2.247   2.527   2.879 -0.7664 -0.2859  0.6734
  146MOL   C24546935   2.320   2.589   2.774  0.7615  0.4192 -0.3230
  146MOL   C24646936   2.407   2.698   2.803  0.1624  0.3027  0.3655
  146MOL   F24746937   2.477   2.757   2.708 -0.6512 -0.1789 -0.4010
  146MOL   C24846938   2.403   2.750   2.935  0.3555  0.4666 -0.5653
  146MOL   C24946939   2.329   2.691   3.044  0.0073 -0.1793 -0.3613
  146MOL   C25046940   2.006   2.502   3.074  0.1784  0.2543 -0.8821
  146MOL   H25146941   2.171   2.572   3.204  0.1963  2.9519 -1.8897
  146MOL   H25246942   2.172   2.455   2.851 -1.9992  1.6396 -1.1466
  146MOL   H25346943   2.300   2.558   2.673  0.0403 -0.1373 -0.0180
  146MOL   H25446944   2.457   2.841   2.956 -0.2026  0.6293  0.1821
  146MOL   H25546945   2.329   2.745   3.138  0.0263 -2.8108  1.1914
  146MOL   H25646946   1.986   2.421   3.003 -1.4473 -0.1022 -0.0228
  146MOL   H25746947   1.940   2.498   3.160 -0.2734  0.7834 -1.2013
  146MOL   C25846948   1.947   2.626   2.998  0.2243 -0.8023  0.3166
  146MOL   C25946949   1.804   2.617   2.941 -0.0255  0.2978  0.0822
  146MOL   C26046950   1.753   2.711   2.848  0.1168 -0.3708 -0.3199
  146MOL   C26146951   1.610   2.698   2.813 -1.0151 -0.7069  0.1435
  146MOL   C26246952   1.536   2.590   2.867  0.0622 -0.4972 -0.2707
  146MOL   F26346953   1.408   2.575   2.834 -0.1952 -0.0986 -0.2684
  146MOL   C26446954   1.597   2.495   2.944 -0.7786  0.2394  0.2909
  146MOL   C26546955   1.729   2.505   2.983 -0.2929  0.3986 -0.1979
  146MOL   C26646956   1.954   2.753   3.079 -0.1338 -0.7949  0.9527
  146MOL   H26746957   2.013   2.650   2.914  0.2994  0.8510  0.8425
  146MOL   H26846958   1.817   2.787   2.805  0.1831 -1.4459 -2.1887
  146MOL   H26946959   1.562   2.776   2.756  0.0227  0.7930  1.3044
  146MOL   H27046960   1.537   2.413   2.983  0.1218  0.3197  1.9142
  146MOL   H27146961   1.759   2.416   3.036 -2.3678 -0.7990 -0.9507
  146MOL   H27246962   2.056   2.787   3.099 -0.4626  0.5629  0.4306
  146MOL   H27346963   1.914   2.834   3.018  0.1801 -0.3379  1.3489
  146MOL   C27446964   1.874   2.755   3.209 -0.1379 -0.0441  0.1675
  146MOL   C27546965   1.962   2.708   3.333 -0.2065 -1.1611  0.5265
  146MOL   C27646966   2.075   2.779   3.375  0.2955 -0.3068  0.1009
  146MOL   C27746967   2.160   2.735   3.474 -0.2673  0.9248  0.2049
  146MOL   C27846968   2.132   2.612   3.535  0.8195  1.2221 -0.1981
  146MOL   F27946969   2.228   2.554   3.609  0.1181  0.3298  0.3551
  146MOL   C28046970   2.014   2.538   3.505 -0.0900 -0.1228  0.2828
  146MOL   C28146971   1.935   2.596   3.406  0.5678 -0.4013 -0.7622
  146MOL   C28246972   1.822   2.900   3.237 -0.4760 -0.6886 -0.1550
  146MOL   H28346973   1.783   2.695   3.209 -0.3221  0.2318  0.8193
  146MOL   H28446974   2.101   2.873   3.327 -0.6860  0.2040  0.5714
  146MOL   H28546975   2.250   2.791   3.494 -0.5293  1.3002  0.3424
  146MOL   H28646976   2.003   2.457   3.575 -0.4526  0.1377  0.5356
  146MOL   H28746977   1.841   2.548   3.382 -0.1924  0.0433  1.2243
  146MOL   H28846978   1.914   2.958   3.231  0.2920 -1.8055  0.6049
  146MOL   H28946979   1.762   2.947   3.159  0.5404 -0.0348 -0.5619
  146MOL   C29046980   1.758   2.924   3.374  0.2668  0.4892 -0.3560
  146MOL   C29146981   1.849   2.988   3.477  0.5402 -0.1887  0.1922
  146MOL   C29246982   1.903   3.116   3.451 -0.7077  1.0780 -0.1138
  146MOL   C29346983   1.984   3.179   3.545 -0.1932 -0.2734  1.2401
  146MOL   C29446984   1.993   3.124   3.678 -0.8143  0.0808  0.0529
  146MOL   F29546985   2.055   3.190   3.780 -0.0749  0.2316  0.2305
  146MOL   C29646986   1.937   2.997   3.707 -0.3046 -0.6959 -0.4833
  146MOL   C29746987   1.864   2.927   3.607  0.3458  0.4829 -0.0133
  146MOL   C29846988   1.618   2.999   3.368  0.5447 -0.2165 -0.8252
  146MOL   H29946989   1.726   2.827   3.410 -1.5365  1.1119 -0.2005
  146MOL   H30046990   1.886   3.169   3.358 -0.6660 -0.8366 -1.2246
  146MOL   H30146991   2.025   3.275   3.520 -2.4300 -0.0091 -1.5684
  146MOL   H30246992   1.949   2.956   3.807  0.4470 -0.1645 -0.3543
  146MOL   H30346993   1.843   2.823   3.628  3.1577 -0.2384 -0.4636
  146MOL   H30446994   1.576   3.013   3.468 -0.0114  1.5278 -1.2938
  146MOL   H30546995   1.635   3.100   3.332 -2.0217  0.5196 -0.0867
  146MOL   C30646996   1.500   2.934   3.289  0.4151  0.6765  0.1984
  146MOL   C30746997   1.474   2.793   3.338  0.1730 -0.5463  0.5873
  146MOL   C30846998   1.507   2.670   3.268 -0.6687  0.0095 -0.1000
  146MOL   C30946999   1.475   2.549   3.327 -0.2196  0.6044 -0.6054
  146MOL   C31047000   1.414   2.532   3.450  0.1790 -0.7392  0.2016
  146MOL   F31147001   1.393   2.413   3.505  0.7425  0.0515 -0.5898
  146MOL   C31247002   1.376   2.656   3.515 -0.0411  0.9427 -0.5082
  146MOL   C31347003   1.411   2.779   3.462 -0.2131  0.4860  0.2978
  146MOL   C31447004   1.378   3.025   3.288  0.4086  0.2655 -0.1561
  146MOL   H31547005   1.527   2.913   3.185 -1.3320  1.8586 -0.5229
  146MOL   H31647006   1.553   2.676   3.170  2.3103  0.6582  1.2558
  146MOL   H31747007   1.495   2.456   3.276 -0.1056 -0.0526  0.6088
  146MOL   H31847008   1.323   2.657   3.609 -0.5305 -1.8840 -0.7131
  146MOL   H31947009   1.385   2.867   3.519  4.1908  1.4261  1.0404
  146MOL   H32047010   1.300   2.960   3.248 -0.0836  0.7844 -0.0463
  146MOL   H32147011   1.360   3.059   3.390  0.4948  0.0815 -0.0790
  146MOL   H32247012   1.396   3.115   3.230  0.0298  1.2146  1.1693
  147MOL     C147013   4.847   4.792   0.275 -0.5758  0.6054 -0.2370
  147MOL     C247014   4.976   4.760   0.350 -0.7999  0.7730  0.6840
  147MOL     C347015   4.994   4.793   0.485  0.2297 -0.3554 -0.1702
  147MOL     C447016   5.113   4.774   0.553  0.5893 -0.1039  0.6340
  147MOL     C547017   5.220   4.713   0.485  0.1193 -0.1975  0.0602
  147MOL     F647018   5.326   4.677   0.554 -0.1396  0.1026 -0.2173
  147MOL     C747019   5.203   4.675   0.352 -0.7675  0.3128 -0.1637
  147MOL     C847020   5.077   4.693   0.284 -0.0185  0.0500 -0.0609
  147MOL     C947021   4.800   4.706   0.155  0.9690  0.2134 -0.4336
  147MOL    H1047022   4.865   4.898   0.254 -0.7263  0.6256 -0.2662
  147MOL    H1147023   4.917   4.846   0.539  0.9604 -0.2879  0.8173
  147MOL    H1247024   5.134   4.801   0.655 -0.1802 -0.0366  0.7809
  147MOL    H1347025   5.286   4.637   0.294  0.7365  0.3822  1.8919
  147MOL    H1447026   5.084   4.684   0.177  0.5472 -0.8229  0.0425
  147MOL    H1547027   4.866   4.715   0.069  2.4210 -0.7250  0.5642
  147MOL    H1647028   4.799   4.603   0.191  0.7217 -0.0118 -1.0755
  147MOL    H1747029   4.775   4.771   0.354  0.3380 -0.9662  0.2050
  147MOL    C1847030   4.662   4.758   0.109  0.1927  0.5418 -0.2338
  147MOL    C1947031   4.674   4.900   0.058  0.1844  0.0588 -0.7754
  147MOL    C2047032   4.720   4.929   8.164  0.4596  0.4906 -0.4819
  147MOL    C2147033   4.735   5.060   8.116  0.2287 -0.2896  0.0468
  147MOL    C2247034   4.712   5.169   8.205 -0.4327  0.5208  0.5252
  147MOL    F2347035   4.730   5.298   8.168 -0.1659  0.2922  0.4019
  147MOL    C2447036   4.653   5.139   0.098 -0.4982  0.2892 -0.1253
  147MOL    C2547037   4.627   5.007   0.134 -0.0047  0.0261  0.2178
  147MOL    C2647038   4.609   4.654   0.011 -0.1225 -0.0893 -0.0046
  147MOL    H2747039   4.607   4.744   0.202 -2.5657  0.3764 -1.8458
  147MOL    H2847040   4.760   4.844   8.111 -1.4139 -0.4034 -0.5271
  147MOL    H2947041   4.778   5.080   8.019 -0.5727  2.5998  0.2527
  147MOL    H3047042   4.618   5.217   0.164  2.5373  0.7948  0.9585
  147MOL    H3147043   4.573   4.990   0.226  1.3229 -0.5617  0.9064
  147MOL    H3247044   4.657   4.657   8.148 -2.0149  0.0795 -0.9547
  147MOL    H3347045   4.626   4.555   0.052 -0.8011  0.3968  1.4636
  147MOL    C3447046   4.454   4.664   8.221 -0.1602  0.7188  0.5736
  147MOL    C3547047   4.427   4.672   8.066 -0.2776 -0.3793  0.4264
  147MOL    C3647048   4.329   4.761   8.019  0.3246 -1.1132  0.5203
  147MOL    C3747049   4.303   4.781   7.882 -0.4722 -0.4094  0.4059
  147MOL    C3847050   4.365   4.698   7.786 -0.4705 -0.5892 -0.3469
  147MOL    F3947051   4.342   4.706   7.652  0.0437  0.3873 -0.2346
  147MOL    C4047052   4.458   4.608   7.831 -0.1886 -0.4556 -0.8389
  147MOL    C4147053   4.487   4.591   7.966  0.0959 -0.6280  0.1539
  147MOL    C4247054   4.361   4.561   0.042  0.7779  0.2108 -0.3531
  147MOL    H4347055   4.422   4.762   0.022 -3.2369 -0.2200  0.5515
  147MOL    H4447056   4.277   4.821   8.092 -1.1542 -1.0050 -0.6052
  147MOL    H4547057   4.229   4.856   7.858  1.5583  2.2109  1.9560
  147MOL    H4647058   4.508   4.546   7.758 -2.2110 -0.7678 -1.9942
  147MOL    H4747059   4.569   4.523   7.985  1.8272  0.6201 -2.5877
  147MOL    H4847060   4.261   4.575   0.002  0.5340 -0.8131 -0.1103
  147MOL    H4947061   4.397   4.476   8.219 -0.3363  0.3259 -1.2265
  147MOL    C5047062   4.358   4.549   0.196  0.6078 -1.0126 -0.3763
  147MOL    C5147063   4.299   4.672   0.265  0.0866  0.3890 -0.1704
  147MOL    C5247064   4.183   4.735   0.222 -0.1874  0.4607  0.5504
  147MOL    C5347065   4.128   4.852   0.287 -0.1817 -0.2698  0.5001
  147MOL    C5447066   4.197   4.913   0.390  0.0356 -1.2599  0.2359
  147MOL    F5547067   4.153   5.029   0.440 -0.2909  0.0001  0.1046
  147MOL    C5647068   4.314   4.857   0.430  0.1129 -0.3692 -0.6998
  147MOL    C5747069   4.361   4.733   0.376  0.4470 -0.0820  0.0535
  147MOL    C5847070   4.295   4.413   0.250 -0.6832 -0.1663  0.7254
  147MOL    H5947071   4.464   4.538   0.218  1.5573  0.2904 -3.8902
  147MOL    H6047072   4.122   4.691   0.144 -2.1326  1.0762  1.6694
  147MOL    H6147073   4.033   4.899   0.265  0.4236  1.3613  1.3162
  147MOL    H6247074   4.369   4.888   0.517 -0.0255  1.1691 -1.1458
  147MOL    H6347075   4.443   4.677   0.420  0.1689 -1.0511 -0.6597
  147MOL    H6447076   4.186   4.419   0.250 -0.5634  2.6023  1.0245
  147MOL    H6547077   4.321   4.338   0.175 -0.1206 -1.9482  2.6470
  147MOL    C6647078   4.358   4.359   0.375  0.2927 -0.4179 -0.9197
  147MOL    C6747079   4.301   4.429   0.504 -0.0228 -1.1911 -0.4604
  147MOL    C6847080   4.162   4.451   0.514 -0.0415  0.4009 -0.3453
  147MOL    C6947081   4.113   4.495   0.636  0.0539 -0.6812 -0.0025
  147MOL    C7047082   4.193   4.538   0.743 -0.0632  0.4873  0.6575
  147MOL    F7147083   4.140   4.589   0.858  0.3921  0.2335 -0.7909
  147MOL    C7247084   4.339   4.526   0.728 -0.0959 -0.9414  0.4537
  147MOL    C7347085   4.390   4.472   0.605 -0.2357 -0.1997 -0.1554
  147MOL    C7447086   4.340   4.212   0.382  0.4205  0.2678 -0.8336
  147MOL    H7547087   4.465   4.378   0.374  0.2481 -0.1302 -3.1015
  147MOL    H7647088   4.098   4.434   0.429  0.9591 -0.4454 -0.9476
  147MOL    H7747089   4.005   4.504   0.645  0.0479  0.4702 -0.9945
  147MOL    H7847090   4.409   4.565   0.801  1.1292 -2.0469 -0.1068
  147MOL    H7947091   4.497   4.456   0.599 -0.1275  0.1316  0.7696
  147MOL    H8047092   4.236   4.189   0.406 -0.2645  2.1803 -1.9022
  147MOL    H8147093   4.348   4.162   0.285  2.2747  2.3603 -1.7937
  147MOL    C8247094   4.431   4.136   0.492  0.8459 -0.9592 -0.1329
  147MOL    C8347095   4.343   4.026   0.547  0.0964 -0.3868  0.3584
  147MOL    C8447096   4.348   3.893   0.493 -0.5417  0.4451 -0.6422
  147MOL    C8547097   4.277   3.787   0.559  0.9331 -0.2808 -0.2256
  147MOL    C8647098   4.213   3.808   0.678  0.0321  0.2815 -0.1680
  147MOL    F8747099   4.152   3.708   0.752 -0.2911 -0.5450 -0.5481
  147MOL    C8847100   4.208   3.935   0.736  0.2565 -0.4055  0.1708
  147MOL    C8947101   4.268   4.043   0.669 -0.1370 -0.1180  0.4749
  147MOL    C9047102   4.565   4.080   0.432  0.1830 -0.4315  0.1563
  147MOL    H9147103   4.451   4.200   0.578  0.2189  0.6077 -1.1333
  147MOL    H9247104   4.410   3.873   0.407  0.7190  2.3018 -0.1688
  147MOL    H9347105   4.285   3.687   0.519  0.8315 -0.5467  0.4228
  147MOL    H9447106   4.155   3.950   0.829 -0.6684  0.4329 -0.4758
  147MOL    H9547107   4.271   4.142   0.711 -2.7778  0.5720 -0.8976
  147MOL    H9647108   4.601   3.994   0.490  0.2274  0.2370  1.1386
  147MOL    H9747109   4.542   4.025   0.341 -2.3959  0.9833 -0.1022
  147MOL    C9847110   4.676   4.193   0.397  1.1838 -0.1908 -0.6764
  147MOL    C9947111   4.718   4.282   0.518  0.4140 -0.3665  0.1862
  147MOL   C10047112   4.745   4.219   0.642 -0.1268 -0.5123 -0.4198
  147MOL   C10147113   4.793   4.296   0.749  0.4866 -0.8053 -0.3040
  147MOL   C10247114   4.802   4.438   0.736  0.3208  0.4590  0.0373
  147MOL   F10347115   4.839   4.514   0.840 -0.1483 -0.6495 -0.3737
  147MOL   C10447116   4.793   4.496   0.613 -0.2812 -0.6478 -0.8251
  147MOL   C10547117   4.742   4.421   0.507  0.2680  0.3310  0.2838
  147MOL   C10647118   4.804   4.144   0.328 -0.2016  0.2345  0.3726
  147MOL   H10747119   4.623   4.252   0.323  4.3461  1.2086 -1.9022
  147MOL   H10847120   4.740   4.112   0.655  3.8508 -0.7058  0.0148
  147MOL   H10947121   4.806   4.248   0.845  0.7525 -1.5163 -0.6916
  147MOL   H11047122   4.805   4.603   0.608 -0.0996 -0.6159  0.0654
  147MOL   H11147123   4.730   4.469   0.411 -1.5869 -0.4272  0.1306
  147MOL   H11247124   4.875   4.226   0.327  0.8845 -0.6911 -1.2022
  147MOL   H11347125   4.852   4.078   0.400 -0.6424 -0.4417  0.0482
  147MOL   C11447126   4.793   4.063   0.187 -0.6001 -0.3563 -0.9589
  147MOL   C11547127   4.794   4.169   0.078  0.5222  0.2936 -0.0866
  147MOL   C11647128   4.689   4.187   8.222 -0.2489  0.4281  0.6413
  147MOL   C11747129   4.688   4.283   8.121  0.1193  0.0486 -0.3059
  147MOL   C11847130   4.801   4.364   8.110  0.5723  0.7899 -0.0833
  147MOL   F11947131   4.802   4.461   8.018 -0.1438 -0.5287  0.5145
  147MOL   C12047132   4.915   4.343   8.188 -0.4847  0.3588 -0.2840
  147MOL   C12147133   4.910   4.243   0.054 -0.1242 -0.3613 -0.1909
  147MOL   C12247134   4.915   3.966   0.165 -0.5448  0.8000 -0.6329
  147MOL   H12347135   4.697   4.011   0.178 -1.6523  0.8853  2.2858
  147MOL   H12447136   4.600   4.127   0.001 -0.5869  0.6015 -0.7199
  147MOL   H12547137   4.604   4.296   8.055  0.3678 -1.7749 -1.0109
  147MOL   H12647138   5.003   4.406   8.178  0.1629 -0.4587  0.2176
  147MOL   H12747139   5.000   4.226   0.110 -0.8011  0.6001  1.2309
  147MOL   H12847140   5.006   4.018   0.195 -1.5514  0.4946  3.2177
  147MOL   H12947141   4.904   3.888   0.240 -1.2028  2.4530  1.0406
  147MOL   C13047142   4.931   3.903   0.026  0.0541  1.2106  0.5278
  147MOL   C13147143   5.082   3.861   0.013 -0.6160  0.1234  0.1381
  147MOL   C13247144   5.186   3.950   8.228  0.1805 -0.1882 -0.4906
  147MOL   C13347145   5.324   3.913   0.004 -0.6188  0.3561  0.0622
  147MOL   C13447146   5.360   3.778   0.023  0.0955 -0.2338  0.7617
  147MOL   F13547147   5.488   3.740   0.007  0.3830 -0.5480  0.3340
  147MOL   C13647148   5.256   3.683   0.038  0.3123 -0.1301 -0.1683
  147MOL   C13747149   5.121   3.728   0.041  0.6274  0.0953 -0.6715
  147MOL   C13847150   4.823   3.792   8.226  0.1920 -0.2619  0.2987
  147MOL   H13947151   4.927   3.985   8.188 -0.0556  0.4975 -0.2934
  147MOL   H14047152   5.166   4.054   8.208 -1.8740  0.2302  3.2666
  147MOL   H14147153   5.400   3.987   8.219  0.8210 -1.6279 -2.0340
  147MOL   H14247154   5.280   3.581   0.062 -0.6258 -1.5611 -4.7996
  147MOL   H14347155   5.051   3.647   0.054  0.7259 -0.0006 -0.7487
  147MOL   H14447156   4.850   3.693   0.025  0.2445 -1.5836 -3.3689
  147MOL   H14547157   4.726   3.820   0.033  0.8408 -0.9253  2.2754
  147MOL   C14647158   4.779   3.780   8.081 -0.4500  0.0885  0.4050
  147MOL   C14747159   4.898   3.770   7.984 -0.0643 -0.0885 -0.7125
  147MOL   C14847160   4.931   3.869   7.891  0.0905 -0.2314  1.2883
  147MOL   C14947161   5.046   3.857   7.804 -0.4204  0.1113 -0.2017
  147MOL   C15047162   5.128   3.739   7.811  0.6360 -0.3770 -0.1979
  147MOL   F15147163   5.229   3.721   7.720  0.8301 -0.2348 -0.3156
  147MOL   C15247164   5.098   3.642   7.912  0.3036  0.4931 -0.1158
  147MOL   C15347165   4.978   3.653   7.984 -0.0205 -0.1018  0.1604
  147MOL   C15447166   4.678   3.664   8.063 -0.4989  0.0981 -0.3561
  147MOL   H15547167   4.741   3.881   8.065  2.0554  1.0591  0.3461
  147MOL   H15647168   4.878   3.962   7.899  2.2133  0.9794  1.8460
  147MOL   H15747169   5.063   3.934   7.730 -0.4206  0.7733  0.4816
  147MOL   H15847170   5.151   3.548   7.915  1.9913  1.4422  0.4204
  147MOL   H15947171   4.963   3.569   8.050 -1.8052 -0.1499 -0.2902
  147MOL   H16047172   4.637   3.680   7.964  2.2134  0.3226 -1.4764
  147MOL   H16147173   4.732   3.570   8.058  0.5102  0.6992 -0.9384
  147MOL   C16247174   4.550   3.664   8.166 -0.0656  0.0646 -0.0881
  147MOL   C16347175   4.472   3.796   8.183  0.4906  0.3039  0.2912
  147MOL   C16447176   4.444   3.887   8.077 -0.4782 -0.3552 -0.6213
  147MOL   C16547177   4.366   4.005   8.102 -0.1576  0.0691  0.1410
  147MOL   C16647178   4.327   4.026   8.234  0.1166  0.8210  0.6254
  147MOL   F16747179   4.259   4.141   0.023 -0.1129 -0.0040  0.4925
  147MOL   C16847180   4.356   3.942   0.107  0.1090 -0.5475 -0.6596
  147MOL   C16947181   4.425   3.821   0.082  0.8084 -0.0022  0.1281
  147MOL   C17047182   4.452   3.546   8.143  0.2843 -0.5881 -0.6782
  147MOL   H17147183   4.596   3.648   0.029  0.5457 -1.5251 -0.6271
  147MOL   H17247184   4.483   3.880   7.977  1.7009 -1.2566  0.2400
  147MOL   H17347185   4.343   4.074   8.022  0.6693  0.9484  0.6618
  147MOL   H17447186   4.312   3.961   0.204  1.9157  0.3577  0.0154
  147MOL   H17547187   4.442   3.746   0.157 -0.4497  0.9877  1.4435
  147MOL   H17647188   4.368   3.546   8.212 -0.1541 -0.5671 -1.2119
  147MOL   H17747189   4.411   3.551   8.042 -0.7256  0.3803 -0.2226
  147MOL   C17847190   4.515   3.405   8.148 -0.1112  0.3990 -0.0119
  147MOL   C17947191   4.585   3.387   0.042 -0.1650  0.3141  0.2393
  147MOL   C18047192   4.521   3.391   0.168 -0.6365 -0.8335 -0.6119
  147MOL   C18147193   4.595   3.387   0.289 -0.1456 -0.3203  0.9936
  147MOL   C18247194   4.735   3.374   0.283  0.4401 -0.6875 -0.5954
  147MOL   F18347195   4.803   3.394   0.397  0.4101  0.3342  0.2800
  147MOL   C18447196   4.801   3.352   0.163  0.7305  0.1225  0.1896
  147MOL   C18547197   4.727   3.369   0.042  0.5047 -0.6267  0.4778
  147MOL   C18647198   4.411   3.296   8.133 -0.0834 -0.5007 -0.1375
  147MOL   H18747199   4.587   3.396   8.066 -1.3533  2.1050 -1.3307
  147MOL   H18847200   4.413   3.399   0.165 -0.5773  0.1812 -0.2081
  147MOL   H18947201   4.544   3.410   0.381 -0.4031  1.5289  0.4220
  147MOL   H19047202   4.907   3.335   0.162  0.9245  1.2727  0.9665
  147MOL   H19147203   4.781   3.359   8.184 -0.8894  2.1245 -0.7232
  147MOL   H19247204   4.461   3.203   8.160 -0.7237 -0.3574  1.5615
  147MOL   H19347205   4.337   3.302   8.213 -1.2234 -0.1238 -1.2069
  147MOL   C19447206   4.333   3.283   8.002  0.5701 -0.2383 -0.4063
  147MOL   C19547207   4.401   3.191   7.910  0.0313  0.0899  0.1260
  147MOL   C19647208   4.390   3.051   7.924  0.2956 -0.1833  0.1682
  147MOL   C19747209   4.453   2.959   7.837  0.1647 -0.3407  0.3860
  147MOL   C19847210   4.528   3.011   7.739 -1.0399 -0.0864 -0.1715
  147MOL   F19947211   4.580   2.934   7.641  0.4906  0.1736  0.0927
  147MOL   C20047212   4.547   3.150   7.726  0.5746  0.2285 -0.3782
  147MOL   C20147213   4.488   3.243   7.814  0.1151  0.1331 -0.2470
  147MOL   C20247214   4.180   3.266   8.022  0.8260  0.4780  0.6561
  147MOL   H20347215   4.346   3.375   7.945 -0.9727  1.0908  1.3184
  147MOL   H20447216   4.323   3.003   7.994 -0.0276 -2.2606 -1.5245
  147MOL   H20547217   4.436   2.852   7.838  0.3508 -0.3674  1.5177
  147MOL   H20647218   4.613   3.188   7.650 -0.9063 -0.5598 -2.0907
  147MOL   H20747219   4.518   3.347   7.815  1.3489 -0.1945  3.1444
  147MOL   H20847220   4.133   3.237   7.928  2.1631  0.9463 -0.1714
  147MOL   H20947221   4.167   3.184   8.093  0.2382  0.6333  0.7321
  147MOL   C21047222   4.100   3.388   8.085 -0.1358  0.6828 -0.1618
  147MOL   C21147223   4.100   3.516   8.001  0.3815  0.4666 -0.4187
  147MOL   C21247224   4.127   3.639   8.061 -0.5561  0.1227 -0.0197
  147MOL   C21347225   4.133   3.756   7.987  0.2676 -0.4502  0.6007
  147MOL   C21447226   4.115   3.750   7.848  0.7508 -0.1862 -0.2648
  147MOL   F21547227   4.110   3.859   7.764  0.1605 -0.6383 -0.1889
  147MOL   C21647228   4.083   3.625   7.788  0.1737 -0.4407 -0.2492
  147MOL   C21747229   4.075   3.507   7.861 -0.2520  0.2950 -0.3881
  147MOL   C21847230   3.955   3.362   8.127  0.1601 -0.0678  0.1742
  147MOL   H21947231   4.160   3.404   8.175 -0.7961  0.5871  0.3010
  147MOL   H22047232   4.131   3.659   8.167  1.8154 -0.3141 -0.0191
  147MOL   H22147233   4.150   3.849   8.039 -2.8515  0.6051 -0.1993
  147MOL   H22247234   4.067   3.624   7.681 -0.3204 -0.9043 -0.1719
  147MOL   H22347235   4.054   3.411   7.816  3.8074  0.1592 -2.1085
  147MOL   H22447236   3.905   3.456   8.149  3.2232  1.6795 -0.0180
  147MOL   H22547237   3.904   3.328   8.037 -0.6999  1.6968 -0.0083
  147MOL   C22647238   3.947   3.262   0.013  0.2688  0.4530 -0.7236
  147MOL   C22747239   4.026   3.307   0.139  0.2495 -0.5211  0.2455
  147MOL   C22847240   4.103   3.211   0.204  0.4291 -0.3724  0.2815
  147MOL   C22947241   4.184   3.249   0.314 -0.4690 -0.2494  0.8432
  147MOL   C23047242   4.198   3.390   0.345  0.5450  0.0298  0.4036
  147MOL   F23147243   4.280   3.418   0.445  0.1734  0.0127  0.3692
  147MOL   C23247244   4.123   3.488   0.278  0.5264 -0.5815  0.4710
  147MOL   C23347245   4.032   3.440   0.178  0.5401  1.0135  0.2074
  147MOL   C23447246   3.803   3.216   0.047 -0.2406 -0.5064 -0.5038
  147MOL   H23547247   3.994   3.170   8.213  0.1499  0.6411 -1.4022
  147MOL   H23647248   4.102   3.111   0.163  1.6574 -0.4321  0.3717
  147MOL   H23747249   4.224   3.168   0.373 -1.1585 -0.4025  1.1068
  147MOL   H23847250   4.134   3.592   0.302  0.3466 -0.6212  0.7225
  147MOL   H23947251   3.974   3.515   0.125 -0.5743  1.0802  1.4832
  147MOL   H24047252   3.759   3.296   0.107  0.3209  0.2376 -1.0789
  147MOL   H24147253   3.749   3.198   8.189 -3.3389 -0.1401  1.1682
  147MOL   C24247254   3.787   3.085   0.134 -0.1487 -0.1489 -0.4650
  147MOL   C24347255   3.642   3.081   0.187  0.8097 -0.4926  0.3067
  147MOL   C24447256   3.526   3.098   0.104  0.3352 -0.6769  0.3446
  147MOL   C24547257   3.400   3.104   0.160  0.6776  0.3430  0.5989
  147MOL   C24647258   3.382   3.094   0.294 -0.2267  0.3342  0.6021
  147MOL   F24747259   3.264   3.099   0.345  0.0621  0.2966 -0.2770
  147MOL   C24847260   3.496   3.077   0.381  0.9978 -0.7395 -0.6407
  147MOL   C24947261   3.626   3.069   0.327  0.2108  0.0162 -0.7158
  147MOL   C25047262   3.835   2.957   0.062  0.4141 -0.0411 -0.1724
  147MOL   H25147263   3.847   3.105   0.223  0.8023  2.8415 -1.7018
  147MOL   H25247264   3.527   3.093   8.230 -0.9547 -0.1460  0.2946
  147MOL   H25347265   3.318   3.116   0.090  1.1749  1.7398  0.2397
  147MOL   H25447266   3.492   3.060   0.488  0.3666 -1.7665 -0.8140
  147MOL   H25547267   3.703   3.056   0.401  2.1836  0.0623 -2.7147
  147MOL   H25647268   3.943   2.963   0.048  0.5536 -0.6132  0.6126
  147MOL   H25747269   3.829   2.880   0.139 -1.8117  1.5622  1.3554
  147MOL   C25847270   3.766   2.906   8.173  0.2762  0.2063 -0.6289
  147MOL   C25947271   3.830   2.962   8.045 -0.0905  0.8118 -0.3236
  147MOL   C26047272   3.970   2.940   8.017 -0.4232 -0.5180  0.2421
  147MOL   C26147273   4.034   2.995   7.904  0.6310  0.2922 -0.2915
  147MOL   C26247274   3.947   3.052   7.804 -0.1913  0.0160  0.3914
  147MOL   F26347275   4.000   3.101   7.690  0.0851  0.0544 -0.0240
  147MOL   C26447276   3.816   3.085   7.833  0.0015 -0.6712 -0.4357
  147MOL   C26547277   3.751   3.035   7.952 -0.3943 -0.1532 -0.3648
  147MOL   C26647278   3.756   2.751   8.169 -0.2890 -0.4153  0.3413
  147MOL   H26747279   3.673   2.962   8.166  0.6545  0.7788 -1.1526
  147MOL   H26847280   4.035   2.888   8.086  0.9606  1.0948  0.1758
  147MOL   H26947281   4.141   2.988   7.898  0.6515  1.0206 -0.7347
  147MOL   H27047282   3.762   3.148   7.763 -0.0123 -0.8279 -0.5677
  147MOL   H27147283   3.649   3.060   7.976 -0.7078 -1.7972  0.0750
  147MOL   H27247284   3.747   2.714   8.067  1.3791  2.9043 -1.0812
  147MOL   H27347285   3.857   2.718   8.194  0.2812  1.0524  0.0259
  147MOL   C27447286   3.647   2.672   0.009  0.2098 -0.2278  0.2574
  147MOL   C27547287   3.509   2.742   8.227  0.2690 -0.8017 -0.4555
  147MOL   C27647288   3.414   2.748   0.102 -0.3991 -0.6638  0.7721
  147MOL   C27747289   3.291   2.809   0.084  0.0194  0.1987 -0.1239
  147MOL   C27847290   3.253   2.860   8.196 -0.0530 -0.4322 -0.3116
  147MOL   F27947291   3.125   2.902   8.173 -0.3039  0.2893  0.4044
  147MOL   C28047292   3.336   2.833   8.082 -0.4494 -0.3283 -0.1402
  147MOL   C28147293   3.468   2.786   8.102  0.1389 -0.6580  0.1775
  147MOL   C28247294   3.630   2.521   8.213 -0.4331 -0.4768  0.3717
  147MOL   H28347295   3.694   2.679   0.108  2.2238 -0.7769 -0.6240
  147MOL   H28447296   3.432   2.706   0.200  0.3452  0.2873  1.0445
  147MOL   H28547297   3.221   2.816   0.166  0.6262 -0.9311  0.5078
  147MOL   H28647298   3.312   2.868   7.983 -0.3347  4.5867  1.4363
  147MOL   H28747299   3.533   2.775   8.016 -1.2400 -2.0210 -0.7249
  147MOL   H28847300   3.552   2.481   0.043 -0.6233  1.2464  1.2435
  147MOL   H28947301   3.602   2.516   8.108 -0.4565  1.3502  0.2750
  147MOL   C29047302   3.762   2.447   8.233  0.6147  0.0090  0.2523
  147MOL   C29147303   3.796   2.408   0.144  0.8000 -0.1441  0.1739
  147MOL   C29247304   3.908   2.461   0.207 -0.0548 -0.1054  0.3610
  147MOL   C29347305   3.947   2.408   0.330 -0.2125  0.2235 -0.0991
  147MOL   C29447306   3.881   2.308   0.397  0.0869 -0.4067  0.5813
  147MOL   F29547307   3.924   2.259   0.513  0.1715  0.4957 -0.2886
  147MOL   C29647308   3.762   2.260   0.335  0.7840 -0.0705 -0.0496
  147MOL   C29747309   3.721   2.313   0.210  0.5221  0.5774 -0.2223
  147MOL   C29847310   3.754   2.322   8.146 -0.5378 -0.0967 -0.1620
  147MOL   H29947311   3.848   2.504   8.200  2.1168 -2.6686 -0.6347
  147MOL   H30047312   3.969   2.539   0.163  1.4814 -0.3758  1.9947
  147MOL   H30147313   4.043   2.440   0.368  0.7854 -1.6385 -0.9763
  147MOL   H30247314   3.709   2.183   0.390  0.1781  0.3887  0.0109
  147MOL   H30347315   3.638   2.259   0.164  1.5684 -0.4612 -0.9349
  147MOL   H30447316   3.836   2.259   8.181 -0.9008 -1.4663 -1.7394
  147MOL   H30547317   3.665   2.259   8.155  0.1886 -0.9223  1.3469
  147MOL   C30647318   3.772   2.333   7.994 -0.3782  0.2310 -0.1554
  147MOL   C30747319   3.882   2.428   7.955  0.0830 -0.1260  0.4076
  147MOL   C30847320   3.849   2.543   7.879 -0.2173 -0.0226 -0.0089
  147MOL   C30947321   3.946   2.641   7.857 -0.0979 -0.0471 -0.2395
  147MOL   C31047322   4.080   2.621   7.912  0.6149 -0.2748 -0.4521
  147MOL   F31147323   4.169   2.721   7.913  0.1774 -0.3403  0.2365
  147MOL   C31247324   4.109   2.507   7.991  0.5905  0.7164 -0.0473
  147MOL   C31347325   4.013   2.403   8.005  0.7983  0.1712  0.2614
  147MOL   C31447326   3.798   2.199   7.922 -0.1954 -0.2235 -0.3907
  147MOL   H31547327   3.673   2.360   7.956 -0.0225 -1.5031 -2.4178
  147MOL   H31647328   3.747   2.546   7.845  0.1687  0.5374 -1.1457
  147MOL   H31747329   3.920   2.737   7.814  1.2349  0.6578  0.4962
  147MOL   H31847330   4.210   2.507   8.029  0.8351  0.2715 -0.6889
  147MOL   H31947331   4.043   2.309   8.050  1.6325 -0.8647 -2.3839
  147MOL   H32047332   3.799   2.202   7.813 -1.0257  2.9809 -0.3399
  147MOL   H32147333   3.894   2.165   7.959 -0.3159 -0.8527 -0.6396
  147MOL   H32247334   3.729   2.116   7.938 -1.9289  0.6308 -3.0398
  148MOL     C147335   1.745   3.854   0.413  0.4935  0.4320  0.4274
  148MOL     C247336   1.817   3.983   0.443 -0.2568  0.4249 -0.1703
  148MOL     C347337   1.779   4.063   0.555  0.2418  0.1974  0.7905
  148MOL     C447338   1.856   4.177   0.579  0.5081  0.2242  0.1005
  148MOL     C547339   1.962   4.216   0.498  0.5089  0.0666 -0.2689
  148MOL     F647340   2.023   4.337   0.528  0.2048 -0.2234  0.1922
  148MOL     C747341   2.004   4.133   0.392 -0.7471  0.2203  0.0410
  148MOL     C847342   1.925   4.018   0.359 -0.2466 -0.2598 -0.7572
  148MOL     C947343   1.772   3.749   0.530  0.1487 -1.0055 -0.0773
  148MOL    H1047344   1.784   3.827   0.314  0.5565  0.7275  0.3694
  148MOL    H1147345   1.689   4.046   0.613 -1.0567  2.6779 -0.3912
  148MOL    H1247346   1.826   4.243   0.659 -0.2897 -1.2791  1.0515
  148MOL    H1347347   2.090   4.161   0.334 -1.3945  1.3161 -0.4024
  148MOL    H1447348   1.945   3.956   0.273 -1.0791  1.6825 -2.3782
  148MOL    H1547349   1.880   3.745   0.538  0.1419 -1.5881 -0.2126
  148MOL    H1647350   1.729   3.782   0.624  0.3511  0.1578 -0.3838
  148MOL    H1747351   1.639   3.879   0.406  0.4027  0.0418  0.4029
  148MOL    C1847352   1.738   3.609   0.488  0.1775 -0.3290 -0.3261
  148MOL    C1947353   1.785   3.504   0.591  0.1316  0.1385  0.1679
  148MOL    C2047354   1.704   3.473   0.704 -0.4861 -0.0500  0.6871
  148MOL    C2147355   1.746   3.376   0.795  0.3150  0.4984 -0.8544
  148MOL    C2247356   1.862   3.298   0.776 -0.2028 -0.6165 -0.0698
  148MOL    F2347357   1.895   3.208   0.866  0.4637  0.6081  0.2680
  148MOL    C2447358   1.937   3.316   0.658  0.4149  0.7539  0.3019
  148MOL    C2547359   1.890   3.414   0.567 -0.1705  0.2713 -0.1335
  148MOL    C2647360   1.592   3.596   0.440  0.3596  0.2149  0.3418
  148MOL    H2747361   1.797   3.593   0.398  0.1487  0.6177 -0.5163
  148MOL    H2847362   1.616   3.535   0.712 -2.0387 -2.2100  0.8040
  148MOL    H2947363   1.687   3.354   0.883  0.0824 -1.4021 -1.4602
  148MOL    H3047364   2.019   3.248   0.641 -0.6613 -0.1787 -1.2331
  148MOL    H3147365   1.960   3.414   0.484  1.9369 -0.7387  1.5745
  148MOL    H3247366   1.517   3.625   0.513 -2.4038 -0.6378 -2.1012
  148MOL    H3347367   1.576   3.675   0.368  0.7059  0.9168  1.0271
  148MOL    C3447368   1.561   3.473   0.354 -0.3266 -0.4836 -0.0721
  148MOL    C3547369   1.544   3.347   0.433 -0.4920 -0.8890 -0.2741
  148MOL    C3647370   1.642   3.244   0.415  0.3308 -0.4227 -0.3274
  148MOL    C3747371   1.634   3.132   0.494 -0.2746 -0.1740  0.0847
  148MOL    C3847372   1.526   3.113   0.588  0.0375  0.2758  0.2287
  148MOL    F3947373   1.525   3.008   0.671 -0.0798 -0.3162 -0.7895
  148MOL    C4047374   1.431   3.213   0.599  0.3764 -0.0364  0.8236
  148MOL    C4147375   1.429   3.331   0.523  0.4329  0.3906 -0.8490
  148MOL    C4247376   1.452   3.494   0.244 -0.2175  0.3370 -0.5481
  148MOL    H4347377   1.650   3.456   0.293  0.4018 -3.4117  1.7324
  148MOL    H4447378   1.718   3.247   0.338 -1.2876  1.6790 -1.8940
  148MOL    H4547379   1.705   3.052   0.486  0.7559  0.3208  3.5493
  148MOL    H4647380   1.355   3.201   0.675 -0.4429  1.7921  0.3065
  148MOL    H4747381   1.347   3.400   0.528  0.1618  0.1797 -2.1156
  148MOL    H4847382   1.426   3.398   0.200  0.6813 -0.2858  0.2415
  148MOL    H4947383   1.361   3.533   0.289 -0.3673 -2.5577  1.8118
  148MOL    C5047384   1.508   3.580   0.122 -0.2769 -0.0907 -0.0591
  148MOL    C5147385   1.595   3.492   0.030 -0.3829  0.3252 -0.1090
  148MOL    C5247386   1.544   3.381   8.190  0.3982  0.5464 -0.4140
  148MOL    C5347387   1.619   3.313   8.097  0.3504 -0.3124  0.2116
  148MOL    C5447388   1.751   3.349   8.077 -0.4121  0.3759 -0.2545
  148MOL    F5547389   1.825   3.299   7.978 -0.0772  0.4611 -0.0464
  148MOL    C5647390   1.811   3.445   8.163  0.5311 -0.3518 -1.4020
  148MOL    C5747391   1.732   3.526   0.016 -0.7935 -0.2895  0.6469
  148MOL    C5847392   1.400   3.651   0.040  0.0220  0.4658 -0.0063
  148MOL    H5947393   1.577   3.655   0.161  1.6671 -0.5076 -2.5894
  148MOL    H6047394   1.438   3.364   8.204  0.4137  1.5782  1.0781
  148MOL    H6147395   1.577   3.238   8.032 -0.4769  0.9097 -0.6893
  148MOL    H6247396   1.914   3.469   8.142  0.4743  0.3286 -0.9222
  148MOL    H6347397   1.778   3.611   0.063 -0.7614 -0.1349  0.3337
  148MOL    H6447398   1.439   3.693   8.182 -0.6584 -2.6263 -1.7976
  148MOL    H6547399   1.327   3.587   8.224  0.6763  2.1401 -3.1347
  148MOL    C6647400   1.323   3.755   0.112 -0.0002  0.1777 -0.0522
  148MOL    C6747401   1.411   3.877   0.127 -0.1732 -0.0567  0.4981
  148MOL    C6847402   1.408   3.936   0.254  0.1691  0.3182 -0.3212
  148MOL    C6947403   1.485   4.054   0.270 -0.2755  0.2654  0.4175
  148MOL    C7047404   1.554   4.111   0.162  0.0430 -0.2089 -0.2295
  148MOL    F7147405   1.634   4.215   0.164  0.1088 -0.1798 -0.1585
  148MOL    C7247406   1.545   4.050   0.038  0.0477  0.3914 -0.0339
  148MOL    C7347407   1.477   3.928   0.018  0.2853  0.4486 -0.1155
  148MOL    C7447408   1.187   3.781   0.059  0.3746  0.0472  0.2741
  148MOL    H7547409   1.318   3.729   0.218 -1.8817  0.4101 -0.0649
  148MOL    H7647410   1.343   3.898   0.331  1.2387 -0.4472  0.2261
  148MOL    H7747411   1.499   4.100   0.367 -0.2368  0.8447  0.1411
  148MOL    H7847412   1.587   4.098   8.185  0.8821 -0.8026 -0.2892
  148MOL    H7947413   1.483   3.889   8.152 -1.7240  0.8770 -0.4169
  148MOL    H8047414   1.169   3.885   0.086  0.7185  0.0183  0.6232
  148MOL    H8147415   1.186   3.798   8.186 -1.4224 -1.0181  0.1038
  148MOL    C8247416   1.074   3.676   0.076  0.2627 -0.3795 -0.5381
  148MOL    C8347417   1.015   3.681   0.212 -0.0207  0.2795  0.3695
  148MOL    C8447418   0.951   3.798   0.259 -0.1355 -0.1325 -0.6999
  148MOL    C8547419   0.897   3.804   0.388 -0.1204  0.2960  0.8882
  148MOL    C8647420   0.925   3.701   0.480  0.0526 -0.4620 -0.6010
  148MOL    F8747421   0.874   3.701   0.607  0.2756 -0.5773 -0.0374
  148MOL    C8847422   0.992   3.584   0.432 -0.4382 -0.3184 -0.3331
  148MOL    C8947423   1.033   3.569   0.299  0.2979 -0.3659 -0.3177
  148MOL    C9047424   0.971   3.679   8.194 -0.2160  0.4157 -0.6401
  148MOL    H9147425   1.113   3.576   0.056  0.4789 -0.2962 -0.5443
  148MOL    H9247426   0.938   3.880   0.189  0.5835  0.4957 -0.1047
  148MOL    H9347427   0.845   3.892   0.422 -0.7758 -0.6003  2.2302
  148MOL    H9447428   1.014   3.509   0.508  1.4409 -0.1393 -0.6608
  148MOL    H9547429   1.082   3.482   0.257  1.0120 -0.0188 -0.2103
  148MOL    H9647430   0.930   3.780   8.199  1.5527  1.0871  1.3406
  148MOL    H9747431   1.022   3.666   8.099  1.3431 -2.1654  0.4877
  148MOL    C9847432   0.852   3.580   8.200  0.7034  0.8269  0.0083
  148MOL    C9947433   0.751   3.621   8.095  0.0745 -0.1027 -0.3099
  148MOL   C10047434   0.619   3.650   8.135 -0.8292  0.3943 -0.5309
  148MOL   C10147435   0.524   3.668   8.031 -0.4335  0.0904  0.1135
  148MOL   C10247436   0.556   3.663   7.898 -0.0985  0.5201  0.1203
  148MOL   F10347437   0.467   3.698   7.800  0.3041  0.1536  0.1759
  148MOL   C10447438   0.688   3.635   7.857  0.3081  0.4225  0.5552
  148MOL   C10547439   0.781   3.614   7.961  0.0204  0.3259 -0.1413
  148MOL   C10647440   0.898   3.430   8.179 -0.0175 -0.3549  0.5620
  148MOL   H10747441   0.797   3.588   0.059 -0.5303  0.6471 -0.7021
  148MOL   H10847442   0.592   3.661   0.005 -3.0119 -3.4957 -0.6182
  148MOL   H10947443   0.421   3.695   8.049 -0.4693  0.7118 -0.9391
  148MOL   H11047444   0.715   3.641   7.753  0.7199 -1.4419  0.5289
  148MOL   H11147445   0.879   3.589   7.925  0.1591  2.0508 -1.0239
  148MOL   H11247446   0.975   3.421   8.102 -0.4952 -1.4798  0.2038
  148MOL   H11347447   0.944   3.401   0.039  0.0698  3.0082  1.6296
  148MOL   C11447448   0.787   3.326   8.130 -0.1104  0.2755  0.3566
  148MOL   C11547449   0.854   3.196   8.104 -0.8526 -0.1425  0.0949
  148MOL   C11647450   0.856   3.151   7.968  0.2708 -0.4283 -0.9521
  148MOL   C11747451   0.907   3.026   7.932 -0.5173 -0.4073  0.5130
  148MOL   C11847452   0.957   2.945   8.035  0.0477  0.0607 -0.4162
  148MOL   F11947453   1.007   2.826   7.998  0.3495 -0.6080 -0.1928
  148MOL   C12047454   0.958   2.980   8.171  0.0080  0.2975 -0.1228
  148MOL   C12147455   0.904   3.112   8.207 -0.2498  0.6872 -0.0360
  148MOL   C12247456   0.669   3.318   8.230  0.0831  0.2924 -0.7088
  148MOL   H12347457   0.761   3.366   8.032 -1.1930  0.3509  0.6774
  148MOL   H12447458   0.820   3.218   7.891 -1.5130 -1.1745 -0.7868
  148MOL   H12547459   0.915   3.007   7.826 -0.6203  1.3371  0.1736
  148MOL   H12647460   1.006   2.928   0.018  0.4617  0.0630 -0.5368
  148MOL   H12747461   0.908   3.155   0.071 -0.6062 -0.3466  0.4365
  148MOL   H12847462   0.708   3.283   0.091  0.7629  0.6724 -0.8487
  148MOL   H12947463   0.629   3.418   0.013  0.1491  0.7323 -3.0271
  148MOL   C13047464   0.558   3.217   8.196 -0.6567  0.3134  0.3361
  148MOL   C13147465   0.473   3.195   0.081 -0.1493 -0.8937 -0.7027
  148MOL   C13247466   0.470   3.075   0.149 -0.2131  0.1075 -0.1949
  148MOL   C13347467   0.371   3.048   0.245 -0.2979  0.1988  0.7019
  148MOL   C13447468   0.277   3.146   0.287  0.0592  0.2125 -0.4747
  148MOL   F13547469   0.202   3.135   0.396  0.1719  0.2494  0.4589
  148MOL   C13647470   0.288   3.273   0.218 -0.0500 -0.5425  0.2039
  148MOL   C13747471   0.386   3.298   0.120  0.0366  0.6550  0.1896
  148MOL   C13847472   0.480   3.269   8.068  0.1459  0.2065 -0.2477
  148MOL   H13947473   0.604   3.124   8.164 -1.5808  0.2471 -0.8421
  148MOL   H14047474   0.540   2.999   0.118  0.2352  1.6123 -3.0461
  148MOL   H14147475   0.370   2.951   0.292 -1.9393 -1.2039 -2.1153
  148MOL   H14247476   0.225   3.350   0.260  0.4451 -0.1481  0.2316
  148MOL   H14347477   0.394   3.398   0.082  1.7635  0.1542 -0.8245
  148MOL   H14447478   0.433   3.364   8.095 -2.4429 -1.0787 -0.1085
  148MOL   H14547479   0.546   3.297   7.986 -1.9919  1.9318 -1.4135
  148MOL   C14647480   0.366   3.179   8.013  0.4102  1.1231 -0.3740
  148MOL   C14747481   0.273   3.253   7.922 -0.3383 -0.0995 -0.1978
  148MOL   C14847482   0.317   3.343   7.823  0.1386 -0.8183  0.5103
  148MOL   C14947483   0.217   3.410   7.747  0.0865  0.1180 -0.0105
  148MOL   C15047484   0.082   3.378   7.755 -0.1580 -0.3315 -0.1940
  148MOL   F15147485   8.227   3.444   7.680  0.0208 -0.1442  0.2134
  148MOL   C15247486   0.040   3.289   7.858  0.2079  0.1373 -0.2249
  148MOL   C15347487   0.135   3.219   7.933  0.1035  0.5333  0.0197
  148MOL   C15447488   0.420   3.051   7.936  0.0191 -0.1050  0.4631
  148MOL   H15547489   0.305   3.148   8.098  1.2222 -2.6410 -1.0512
  148MOL   H15647490   0.418   3.375   7.799 -1.0615  2.1127 -0.8420
  148MOL   H15747491   0.241   3.479   7.666 -0.2242 -1.0867 -1.1442
  148MOL   H15847492   8.170   3.263   7.869  0.2207  0.1399 -0.0904
  148MOL   H15947493   0.103   3.149   8.009  0.6253 -0.9150 -1.0755
  148MOL   H16047494   0.349   3.026   7.858 -1.2472  0.4508  1.4295
  148MOL   H16147495   0.516   3.078   7.891  1.0230  1.7773  3.5377
  148MOL   C16247496   0.440   2.921   8.023  0.3070 -0.2563 -0.2286
  148MOL   C16347497   0.308   2.863   8.080 -0.5487 -0.3944 -0.1684
  148MOL   C16447498   0.217   2.827   7.976 -0.1734  0.5195 -0.2146
  148MOL   C16547499   0.092   2.781   8.006  0.0880  0.5267 -0.4547
  148MOL   C16647500   0.047   2.783   8.139  0.7719 -0.0067 -0.0487
  148MOL   F16747501   8.158   2.746   8.173 -0.3568 -0.2813  0.0933
  148MOL   C16847502   0.132   2.817   0.010  0.4464  0.5871  0.5038
  148MOL   C16947503   0.265   2.868   8.213 -0.0520  0.1394  0.2702
  148MOL   C17047504   0.535   2.815   7.962  0.1308 -0.2304 -0.0835
  148MOL   H17147505   0.504   2.951   8.106 -1.2437 -1.2239  1.3696
  148MOL   H17247506   0.244   2.825   7.871 -1.9165  1.3292 -0.6953
  148MOL   H17347507   0.029   2.753   7.922  1.6358 -0.2925 -1.3535
  148MOL   H17447508   0.099   2.814   0.113 -1.8608 -0.9008 -0.2559
  148MOL   H17547509   0.330   2.903   0.058 -0.9704  0.9869  0.6552
  148MOL   H17647510   0.491   2.778   7.870  2.6224 -2.5281 -0.4314
  148MOL   H17747511   0.628   2.863   7.931 -0.7652  0.5976 -1.5038
  148MOL   C17847512   0.555   2.687   8.038  0.2177 -0.0962 -0.4559
  148MOL   C17947513   0.624   2.583   7.946 -0.2634  0.3152  0.0088
  148MOL   C18047514   0.747   2.596   7.873 -0.5337  0.1518  0.2062
  148MOL   C18147515   0.803   2.493   7.798 -0.2426  0.7664  0.1329
  148MOL   C18247516   0.738   2.365   7.806 -0.2673  0.2701  0.1221
  148MOL   F18347517   0.797   2.257   7.744  0.5785 -0.2707  0.1722
  148MOL   C18447518   0.615   2.350   7.877 -0.4237 -0.0518  0.4336
  148MOL   C18547519   0.557   2.460   7.939  0.3446  0.0572 -0.1056
  148MOL   C18647520   0.640   2.716   8.160 -0.0730 -0.1999  0.2243
  148MOL   H18747521   0.462   2.645   8.076 -0.4635  1.3181 -0.5444
  148MOL   H18847522   0.790   2.694   7.891  0.1600  0.1299 -1.2821
  148MOL   H18947523   0.893   2.511   7.741 -1.1214  2.0119 -0.8798
  148MOL   H19047524   0.564   2.255   7.876 -3.1807  1.3955 -1.2726
  148MOL   H19147525   0.463   2.446   7.990  0.1366  1.2448 -0.1577
  148MOL   H19247526   0.732   2.763   8.125  1.6534 -2.5435  1.4243
  148MOL   H19347527   0.589   2.775   0.001 -1.0792 -1.1860  0.3365
  148MOL   C19447528   0.696   2.589   8.233  1.3679  0.0767  0.1039
  148MOL   C19547529   0.842   2.615   0.022  0.3278  0.3754  0.3398
  148MOL   C19647530   0.939   2.566   8.164  0.4388 -0.4910 -0.1191
  148MOL   C19747531   1.078   2.587   8.192 -0.0129 -0.0969 -0.2688
  148MOL   C19847532   1.123   2.652   0.074  0.1059 -0.3215 -0.5432
  148MOL   F19947533   1.256   2.683   0.089  0.3812 -0.1348  0.3811
  148MOL   C20047534   1.026   2.707   0.157 -0.0093 -0.0653 -0.0917
  148MOL   C20147535   0.891   2.683   0.139 -0.3080  0.7208 -0.1266
  148MOL   C20247536   0.629   2.527   0.119  0.3264 -0.2653  0.4008
  148MOL   H20347537   0.684   2.505   8.165 -0.1724  0.6171 -0.3220
  148MOL   H20447538   0.903   2.507   8.081 -0.8932 -1.7386  1.3124
  148MOL   H20547539   1.153   2.552   8.122  0.0439 -0.4353 -0.0389
  148MOL   H20647540   1.065   2.762   0.241 -1.6454  0.5783  0.2721
  148MOL   H20747541   0.824   2.707   0.220  1.2318 -1.2199  1.8018
  148MOL   H20847542   0.626   2.599   0.200  3.1935 -0.5872  0.8136
  148MOL   H20947543   0.525   2.500   0.099  0.3619 -1.5189  1.8386
  148MOL   C21047544   0.689   2.392   0.180 -0.3466 -0.4004  1.1973
  148MOL   C21147545   0.620   2.342   0.309 -0.1719  0.0468  0.0522
  148MOL   C21247546   0.493   2.292   0.303 -0.4330  0.1710 -0.3463
  148MOL   C21347547   0.438   2.230   0.418  0.0420  0.2901 -0.1817
  148MOL   C21447548   0.498   2.235   0.541 -0.3371  0.1011 -0.3493
  148MOL   F21547549   0.434   2.200   0.654 -0.4964  0.1418  0.3074
  148MOL   C21647550   0.624   2.293   0.544 -0.3597  0.1538 -0.2992
  148MOL   C21747551   0.685   2.349   0.431  0.2337 -0.0067 -0.3879
  148MOL   C21847552   0.687   2.267   0.085  0.3759 -0.0319  0.2901
  148MOL   H21947553   0.794   2.412   0.203 -1.5052  2.0102  4.8800
  148MOL   H22047554   0.439   2.303   0.210  0.8248 -2.7925 -1.4716
  148MOL   H22147555   0.334   2.201   0.409  0.2650 -1.0679  1.3123
  148MOL   H22247556   0.676   2.297   0.639 -0.0062 -1.9423 -0.4009
  148MOL   H22347557   0.782   2.397   0.431 -0.8715  2.3583  1.8276
  148MOL   H22447558   0.585   2.235   0.065  0.3357  0.4255 -0.2463
  148MOL   H22547559   0.724   2.300   8.223 -0.0094  2.4204  0.9236
  148MOL   C22647560   0.770   2.144   0.121 -0.0470 -0.4174 -0.3544
  148MOL   C22747561   0.916   2.183   0.163 -0.1485 -0.9921  0.2519
  148MOL   C22847562   0.998   2.255   0.072  0.0333 -0.2177  0.7860
  148MOL   C22947563   1.128   2.286   0.115 -0.3443 -0.4511 -0.0694
  148MOL   C23047564   1.179   2.263   0.245 -0.3434  0.2105 -0.0231
  148MOL   F23147565   1.304   2.304   0.282  0.0426 -0.2100  0.3612
  148MOL   C23247566   1.096   2.190   0.330 -0.0283  0.7189  0.1081
  148MOL   C23347567   0.964   2.148   0.290  0.1390 -0.0070  0.1074
  148MOL   C23447568   0.697   2.053   0.218  0.8221  0.0392  0.4025
  148MOL   H23547569   0.777   2.091   0.026  3.3703  1.0706 -0.9999
  148MOL   H23647570   0.976   2.286   8.205 -0.1291 -2.8999 -0.0212
  148MOL   H23747571   1.185   2.351   0.050 -1.1999  1.4472  1.0004
  148MOL   H23847572   1.141   2.169   0.425 -0.0500  0.2115  0.0047
  148MOL   H23947573   0.909   2.087   0.361  0.9115  0.9342  1.5461
  148MOL   H24047574   0.704   2.094   0.319  1.0299  0.9311  0.0266
  148MOL   H24147575   0.590   2.048   0.202  1.0558  0.0909 -1.2855
  148MOL   C24247576   0.751   1.906   0.229 -0.6807 -0.2401 -0.4215
  148MOL   C24347577   0.695   1.825   0.337  0.0662  0.6397  0.1363
  148MOL   C24447578   0.585   1.867   0.409 -0.7064  0.2184 -0.6015
  148MOL   C24547579   0.553   1.800   0.526  0.3218 -0.7867  0.3220
  148MOL   C24647580   0.615   1.678   0.555 -0.5232  0.7885  0.5530
  148MOL   F24747581   0.577   1.602   0.663 -0.5656  0.1335  0.0487
  148MOL   C24847582   0.716   1.627   0.474  0.4249 -0.2898 -1.0495
  148MOL   C24947583   0.763   1.707   0.372  0.2264  0.1297 -0.1048
  148MOL   C25047584   0.737   1.825   0.094 -0.0480 -0.1225  0.2137
  148MOL   H25147585   0.859   1.903   0.245 -0.2565  0.2717 -2.9580
  148MOL   H25247586   0.535   1.959   0.384 -0.4207  0.9972  1.6056
  148MOL   H25347587   0.469   1.832   0.586 -0.2245 -0.9516 -0.3521
  148MOL   H25447588   0.753   1.528   0.499 -1.7410 -0.4962  1.5394
  148MOL   H25547589   0.852   1.670   0.322 -0.4473 -0.1801 -1.0717
  148MOL   H25647590   0.678   1.734   0.103 -0.9515  0.4569  0.1329
  148MOL   H25747591   0.672   1.878   0.025 -0.0492  0.8676  0.9654
  148MOL   C25847592   0.871   1.798   0.015 -0.4734  0.2091 -0.2279
  148MOL   C25947593   0.972   1.706   0.083  0.2038  0.0461 -0.4611
  148MOL   C26047594   1.099   1.753   0.126  0.3643 -0.4518  0.5882
  148MOL   C26147595   1.195   1.669   0.191  0.1654  0.0359  0.8541
  148MOL   C26247596   1.162   1.536   0.217 -0.4011 -0.9509  0.6708
  148MOL   F26347597   1.246   1.456   0.283  0.3547 -0.0861  0.4836
  148MOL   C26447598   1.042   1.484   0.166 -0.6871  0.9451 -0.1734
  148MOL   C26547599   0.950   1.568   0.099 -0.6932 -0.0892  0.3510
  148MOL   C26647600   0.844   1.762   8.105  0.1338 -0.0846 -1.1055
  148MOL   H26747601   0.922   1.895   0.010  0.3398 -0.2811 -1.4795
  148MOL   H26847602   1.131   1.854   0.104 -1.4828  0.2596  1.0282
  148MOL   H26947603   1.286   1.717   0.221  0.2705  1.2672 -1.3457
  148MOL   H27047604   1.023   1.381   0.193  3.1851  0.2094  0.0298
  148MOL   H27147605   0.851   1.534   0.071 -0.7812  0.2580  0.2402
  148MOL   H27247606   0.811   1.659   8.116 -0.7062  0.4615  2.3207
  148MOL   H27347607   0.761   1.819   8.063 -0.4023  0.0410  0.0851
  148MOL   C27447608   0.967   1.767   8.014  0.3013  0.1108  0.2953
  148MOL   C27547609   0.944   1.664   7.905 -0.1864 -1.0684  0.1604
  148MOL   C27647610   0.986   1.532   7.932  0.2866  0.4209 -0.2362
  148MOL   C27747611   0.955   1.429   7.840  0.0823  0.3740  0.2252
  148MOL   C27847612   0.899   1.459   7.712 -0.2254  0.0392 -0.7489
  148MOL   F27947613   0.882   1.355   7.628 -0.1462  0.3015 -0.5764
  148MOL   C28047614   0.842   1.584   7.690  0.6337  0.1269 -0.2354
  148MOL   C28147615   0.861   1.686   7.789 -0.1521  0.1757 -0.6914
  148MOL   C28247616   0.993   1.913   7.976  0.0078 -0.0234 -0.2689
  148MOL   H28347617   1.051   1.737   8.076 -0.3322 -2.4076  0.0003
  148MOL   H28447618   1.045   1.510   8.020  1.5056 -0.5101 -1.2646
  148MOL   H28547619   0.981   1.327   7.866 -2.1498 -1.0433 -2.8463
  148MOL   H28647620   0.789   1.608   7.599 -0.2848 -0.0175  0.2482
  148MOL   H28747621   0.824   1.784   7.766 -1.3761  0.0463  0.6800
  148MOL   H28847622   0.908   1.957   7.924 -0.2513  0.6895  0.7534
  148MOL   H28947623   1.004   1.964   8.071 -1.0030  0.5208 -0.4401
  148MOL   C29047624   1.121   1.944   7.896  0.9912  0.7236  0.6032
  148MOL   C29147625   1.091   1.938   7.747 -0.4901 -0.2487  0.4431
  148MOL   C29247626   1.030   2.049   7.681  0.0744 -0.5848 -0.3578
  148MOL   C29347627   1.015   2.045   7.539  0.3758 -0.6611  0.7502
  148MOL   C29447628   1.042   1.924   7.474 -0.1952  0.0342  0.2720
  148MOL   F29547629   1.011   1.916   7.344  0.2876 -0.4860  0.8635
  148MOL   C29647630   1.105   1.814   7.538  0.0174 -0.0990  0.4515
  148MOL   C29747631   1.124   1.821   7.674 -0.3964  0.3550  0.6980
  148MOL   C29847632   1.178   2.078   7.946 -0.2245  0.4734  0.5590
  148MOL   H29947633   1.184   1.861   7.928  0.6242  1.0675  2.2860
  148MOL   H30047634   0.996   2.137   7.734 -2.5148 -1.0785 -1.1399
  148MOL   H30147635   0.970   2.125   7.481 -1.6860 -2.4693 -0.2223
  148MOL   H30247636   1.124   1.726   7.479 -0.8235  0.0523 -0.0530
  148MOL   H30347637   1.156   1.735   7.731 -0.9080  1.7891  3.2147
  148MOL   H30447638   1.105   2.159   7.940 -0.4287  0.4335  2.2072
  148MOL   H30547639   1.200   2.070   8.052  2.2530  1.6753  0.1795
  148MOL   C30647640   1.294   2.141   7.866 -0.1990 -0.5188  0.2412
  148MOL   C30747641   1.342   2.276   7.927  0.2582 -0.2627 -0.0992
  148MOL   C30847642   1.392   2.279   8.057  1.0937 -0.4089 -0.4889
  148MOL   C30947643   1.435   2.404   8.110 -0.5100  0.1011 -0.2939
  148MOL   C31047644   1.420   2.524   8.037  0.1439 -0.4084  0.5668
  148MOL   F31147645   1.448   2.641   8.097 -0.1233 -0.0233 -0.6180
  148MOL   C31247646   1.362   2.516   7.906 -0.4328  0.0261 -0.5726
  148MOL   C31347647   1.340   2.391   7.846  0.1164  0.2977 -0.1005
  148MOL   C31447648   1.414   2.041   7.858 -0.1224 -0.2994  0.5133
  148MOL   H31547649   1.255   2.158   7.766 -0.9663  0.7131  0.7362
  148MOL   H31647650   1.405   2.189   8.115 -1.9836 -1.2263 -1.0025
  148MOL   H31747651   1.483   2.408   8.207 -2.2354 -0.2577  0.5867
  148MOL   H31847652   1.358   2.608   7.849  0.3366 -0.9939 -2.3077
  148MOL   H31947653   1.314   2.377   7.743 -0.8245  2.5525 -0.1979
  148MOL   H32047654   1.432   2.005   7.959 -0.2099 -0.7960  0.3491
  148MOL   H32147655   1.401   1.957   7.790  1.3471  1.2416 -1.7458
  148MOL   H32247656   1.505   2.096   7.834 -0.2065 -0.2635  0.2857
  149MOL     C147657   0.438   4.260   3.789  0.3239  0.4254  0.1097
  149MOL     C247658   0.583   4.230   3.769 -0.5941  0.4083 -0.7399
  149MOL     C347659   0.677   4.325   3.716  0.0169 -0.6745  0.0573
  149MOL     C447660   0.814   4.287   3.698  0.0086  0.0820 -0.3788
  149MOL     C547661   0.856   4.156   3.740 -0.6241  0.3546  0.3707
  149MOL     F647662   0.990   4.137   3.728  0.1952  0.0492  0.0161
  149MOL     C747663   0.768   4.067   3.805  0.2397  0.0447  0.9420
  149MOL     C847664   0.633   4.107   3.810 -0.1560 -0.2030  0.5683
  149MOL     C947665   0.417   4.394   3.872 -0.5125 -0.0540  0.2385
  149MOL    H1047666   0.384   4.175   3.831  1.8556  0.5272  2.3917
  149MOL    H1147667   0.647   4.424   3.684 -1.3261 -0.4785  1.8588
  149MOL    H1247668   0.884   4.359   3.660  1.1792 -0.3819  0.8688
  149MOL    H1347669   0.807   3.972   3.839  1.0844  0.3308  0.7988
  149MOL    H1447670   0.555   4.036   3.835 -1.0684 -0.2165 -2.1151
  149MOL    H1547671   0.469   4.400   3.968 -0.3949  0.0196  0.1716
  149MOL    H1647672   0.470   4.474   3.820 -0.3127  1.0791  2.1249
  149MOL    H1747673   0.397   4.260   3.688 -1.9954 -1.5611  1.0048
  149MOL    C1847674   0.272   4.429   3.889 -0.0389  0.1030 -0.2051
  149MOL    C1947675   0.251   4.531   3.999  0.6102 -0.2487 -1.1102
  149MOL    C2047676   0.151   4.517   4.093  0.1134  0.1948  0.2326
  149MOL    C2147677   0.138   4.611   4.193 -0.3533  0.4236 -0.0266
  149MOL    C2247678   0.218   4.731   4.188 -0.2078  0.7762 -0.3043
  149MOL    F2347679   0.208   4.826   4.283  0.1824  0.1781  0.1944
  149MOL    C2447680   0.312   4.749   4.091  0.1873  0.1403  0.2460
  149MOL    C2547681   0.335   4.645   3.995 -0.9899  1.1185 -0.2197
  149MOL    C2647682   0.198   4.471   3.758 -0.7558 -0.4279  0.8189
  149MOL    H2747683   0.218   4.340   3.920  2.9903 -0.8895  2.5308
  149MOL    H2847684   0.078   4.438   4.097 -1.6804  1.8734  0.8794
  149MOL    H2947685   0.068   4.609   4.275 -0.7053  0.4320 -0.3238
  149MOL    H3047686   0.371   4.839   4.089  1.5215 -0.7361 -0.9748
  149MOL    H3147687   0.409   4.661   3.918 -0.2136 -0.1310  0.2550
  149MOL    H3247688   0.201   4.389   3.686 -0.8747 -2.4159  3.0009
  149MOL    H3347689   0.090   4.475   3.774 -0.9770  0.8754 -0.8643
  149MOL    C3447690   0.241   4.601   3.687 -0.0445 -0.1671  0.7666
  149MOL    C3547691   0.376   4.581   3.608  0.1408 -0.2491 -0.3456
  149MOL    C3647692   0.481   4.680   3.622  0.1733  0.4171  0.4226
  149MOL    C3747693   0.598   4.668   3.548 -0.0713  0.0818 -0.3329
  149MOL    C3847694   0.610   4.561   3.460 -0.3149 -0.9060  0.4590
  149MOL    F3947695   0.718   4.553   3.381  0.0294 -0.0767  0.1356
  149MOL    C4047696   0.504   4.471   3.436 -0.0034 -0.4939 -0.0715
  149MOL    C4147697   0.386   4.483   3.509 -0.2960 -0.8299 -0.3221
  149MOL    C4247698   0.134   4.661   3.589  0.3915  0.0613 -0.5360
  149MOL    H4347699   0.267   4.685   3.752  0.1747  0.4837 -0.1441
  149MOL    H4447700   0.460   4.757   3.694 -1.8553 -0.0205  0.3291
  149MOL    H4547701   0.677   4.741   3.539 -1.4652  1.7574  0.6669
  149MOL    H4647702   0.524   4.388   3.370  2.8328 -0.0547  0.1440
  149MOL    H4747703   0.303   4.418   3.486 -0.1433 -2.1237  2.5091
  149MOL    H4847704   0.172   4.720   3.506 -0.6270  0.5229 -0.6845
  149MOL    H4947705   0.073   4.581   3.548 -1.3669 -0.2967  2.6169
  149MOL    C5047706   0.035   4.758   3.658 -0.4123 -0.3994  0.5165
  149MOL    C5147707   0.092   4.890   3.721 -0.1579 -0.3460 -0.3868
  149MOL    C5247708   0.033   4.949   3.833 -0.0475  0.6138  0.0254
  149MOL    C5347709   0.098   5.056   3.899 -0.7130 -0.3581  0.0779
  149MOL    C5447710   0.216   5.110   3.850  0.4828 -0.2317  0.8991
  149MOL    F5547711   0.273   5.216   3.913  0.1656 -0.1976 -0.4799
  149MOL    C5647712   0.274   5.062   3.733  0.1157  0.0844  0.4510
  149MOL    C5747713   0.217   4.944   3.674  0.8412 -0.2497 -0.1371
  149MOL    C5847714   8.137   4.785   3.578  0.4002 -0.2840 -0.2552
  149MOL    H5947715   8.226   4.710   3.745 -0.0927  0.8835  1.3959
  149MOL    H6047716   8.174   4.905   3.866 -0.1202  0.3488 -0.5302
  149MOL    H6147717   0.053   5.097   3.988 -0.2410 -1.2312  0.7169
  149MOL    H6247718   0.370   5.103   3.707  1.2433 -2.8416 -0.2291
  149MOL    H6347719   0.262   4.903   3.585  0.8996 -0.4969  0.0067
  149MOL    H6447720   8.087   4.850   3.650  1.4353 -0.5553  0.7151
  149MOL    H6547721   8.150   4.839   3.484 -0.7569 -1.4184 -1.0862
  149MOL    C6647722   8.040   4.669   3.554  0.4626 -1.3305  1.0548
  149MOL    C6747723   8.005   4.601   3.687  0.3401 -0.5268 -0.3328
  149MOL    C6847724   8.049   4.467   3.706  0.4516 -0.3951 -0.3920
  149MOL    C6947725   8.049   4.404   3.835  0.7215 -0.5650 -0.4515
  149MOL    C7047726   8.000   4.478   3.948 -0.4940 -0.5990  0.3793
  149MOL    F7147727   8.008   4.424   4.074 -0.1533  0.5764 -0.2279
  149MOL    C7247728   7.945   4.605   3.924 -0.6175 -0.1339 -0.7023
  149MOL    C7347729   7.949   4.670   3.798 -0.5905  0.4838 -0.8514
  149MOL    C7447730   7.917   4.714   3.471 -0.2352  0.1041  0.0010
  149MOL    H7547731   8.099   4.600   3.493  2.4789 -0.7435  2.2846
  149MOL    H7647732   8.098   4.420   3.621  1.6779  0.1389  0.0202
  149MOL    H7747733   8.087   4.304   3.849  1.0416 -0.2557  0.9911
  149MOL    H7847734   7.896   4.654   4.007  0.0244 -0.6363 -0.0167
  149MOL    H7947735   7.910   4.770   3.792 -0.2630  0.7784  1.3254
  149MOL    H8047736   7.842   4.637   3.487 -0.2374 -0.6447 -3.2181
  149MOL    H8147737   7.884   4.804   3.522  0.2395  0.4423 -0.2819
  149MOL    C8247738   7.939   4.736   3.322 -0.0137  0.5545 -0.2264
  149MOL    C8347739   7.891   4.619   3.242 -0.4053 -0.8625 -0.3372
  149MOL    C8447740   7.759   4.586   3.247 -0.4085  0.3707 -0.2193
  149MOL    C8547741   7.705   4.483   3.165  0.6918  0.2091  0.7855
  149MOL    C8647742   7.788   4.400   3.084  0.6241 -0.9112 -0.2950
  149MOL    F8747743   7.736   4.305   3.007 -0.0083 -0.2318 -0.0019
  149MOL    C8847744   7.925   4.425   3.095  0.6001 -0.4215 -0.3753
  149MOL    C8947745   7.977   4.539   3.163 -0.6366 -0.0198  0.0779
  149MOL    C9047746   7.867   4.869   3.278  0.5807 -0.5008  0.5539
  149MOL    H9147747   8.045   4.727   3.299 -0.2704 -0.4115 -1.0679
  149MOL    H9247748   7.689   4.635   3.313  0.6281  1.7362 -0.1218
  149MOL    H9347749   7.600   4.458   3.164  0.5423  0.8264 -0.0414
  149MOL    H9447750   7.993   4.355   3.048  2.8347  1.6027 -0.2451
  149MOL    H9547751   8.085   4.549   3.159 -0.5971 -0.3170  0.4786
  149MOL    H9647752   7.847   4.867   3.171  1.9436 -0.5307  0.2976
  149MOL    H9747753   7.766   4.869   3.319 -0.7493  1.2743 -2.6047
  149MOL    C9847754   7.946   4.995   3.319  0.5480 -0.0613  0.3672
  149MOL    C9947755   8.080   5.002   3.237 -0.9079 -0.1627 -1.1435
  149MOL   C10047756   8.083   4.996   3.094  0.0739 -0.4045  0.1008
  149MOL   C10147757   8.203   5.013   3.022  0.1353 -0.3518  0.0489
  149MOL   C10247758   0.085   5.045   3.094  0.0373 -0.1379 -0.4367
  149MOL   F10347759   0.203   5.082   3.028  0.0222  0.4768 -0.1938
  149MOL   C10447760   0.086   5.056   3.234  0.1785 -0.4348  0.3909
  149MOL   C10547761   8.202   5.030   3.306  0.1415  0.3844  0.0044
  149MOL   C10647762   7.853   5.120   3.314 -0.1914 -0.3507 -0.4168
  149MOL   H10747763   7.973   4.990   3.424 -1.0220  1.2635  0.8572
  149MOL   H10847764   7.993   4.966   3.041 -1.1818  2.7383  0.3304
  149MOL   H10947765   8.226   4.995   2.918  0.8924 -0.1616  0.1821
  149MOL   H11047766   0.177   5.084   3.285 -0.2594 -1.9103  2.0132
  149MOL   H11147767   8.204   5.040   3.413  2.7838 -0.9438  0.1076
  149MOL   H11247768   7.921   5.203   3.294  0.6211 -0.3856  1.9787
  149MOL   H11347769   7.784   5.109   3.231  1.3474  2.0846 -2.0962
  149MOL   C11447770   7.782   5.156   3.447  0.8130 -0.0939 -0.4609
  149MOL   C11547771   7.867   5.187   3.565 -0.9814 -0.0583 -0.6372
  149MOL   C11647772   7.940   5.312   3.577  0.1627  0.8708  0.0290
  149MOL   C11747773   8.020   5.336   3.689  0.4464  0.0399 -0.2180
  149MOL   C11847774   8.032   5.238   3.792  1.2400  0.3483  0.0956
  149MOL   F11947775   8.104   5.258   3.905  0.4754 -0.1442  0.4349
  149MOL   C12047776   7.955   5.117   3.766 -0.1421  0.8856  0.0885
  149MOL   C12147777   7.882   5.090   3.656  0.8008 -0.0486 -1.0994
  149MOL   C12247778   7.672   5.259   3.429  0.4051  0.5991 -0.4056
  149MOL   H12347779   7.730   5.067   3.482  2.7229 -0.3363  1.9427
  149MOL   H12447780   7.932   5.385   3.497 -1.2802 -2.4415 -2.9564
  149MOL   H12547781   8.063   5.435   3.688  0.5329 -0.0021 -0.6140
  149MOL   H12647782   7.962   5.039   3.840  0.9519  0.6171 -0.2756
  149MOL   H12747783   7.837   4.992   3.649 -0.3104  0.3159  0.5151
  149MOL   H12847784   7.632   5.285   3.527 -0.5361 -2.1834 -0.0040
  149MOL   H12947785   7.723   5.339   3.375 -1.0398  1.3326 -0.7036
  149MOL   C13047786   7.552   5.225   3.334  0.6120 -0.1414  0.0339
  149MOL   C13147787   7.500   5.080   3.338  0.3351 -0.0705  0.5929
  149MOL   C13247788   7.459   5.015   3.460 -1.1115  0.1118  0.3148
  149MOL   C13347789   7.414   4.885   3.456  0.3492  0.4372  0.0409
  149MOL   C13447790   7.416   4.813   3.342 -0.0304 -0.7829 -0.2205
  149MOL   F13547791   7.363   4.692   3.348  0.2865  0.1670  0.3531
  149MOL   C13647792   7.461   4.868   3.220 -0.0037  0.2179 -0.4798
  149MOL   C13747793   7.505   5.003   3.216  0.1124 -0.0175 -0.7441
  149MOL   C13847794   7.443   5.333   3.335  0.3853 -0.1186  0.0108
  149MOL   H13947795   7.586   5.243   3.232  3.6120  0.8735  1.1389
  149MOL   H14047796   7.445   5.065   3.555 -1.4733 -0.0014  0.3222
  149MOL   H14147797   7.379   4.849   3.552  1.7173  0.0048  0.3827
  149MOL   H14247798   7.474   4.809   3.130 -0.6219 -0.6949  0.0266
  149MOL   H14347799   7.551   5.044   3.127  2.3938 -4.0922 -1.5891
  149MOL   H14447800   7.485   5.434   3.343 -0.0784 -0.0639  1.8787
  149MOL   H14547801   7.412   5.338   3.230 -1.6588  1.1790  0.6498
  149MOL   C14647802   7.319   5.329   3.424  0.6336  0.5349 -0.0827
  149MOL   C14747803   7.272   5.464   3.471  0.7181  0.2950 -0.5028
  149MOL   C14847804   7.242   5.556   3.372 -0.0239 -0.8378  0.2910
  149MOL   C14947805   7.202   5.684   3.406  0.4420 -0.2918 -0.3298
  149MOL   C15047806   7.193   5.725   3.547 -0.2317 -0.0535 -0.9389
  149MOL   F15147807   7.153   5.848   3.582  0.2820 -0.3316 -0.5058
  149MOL   C15247808   7.235   5.632   3.642  0.3853  0.3366 -0.3098
  149MOL   C15347809   7.267   5.502   3.604 -0.5545 -0.0523  0.8507
  149MOL   C15447810   7.192   5.245   3.379  0.0878 -0.3648  0.4687
  149MOL   H15547811   7.358   5.286   3.516 -2.2518  0.8733  1.3529
  149MOL   H15647812   7.266   5.531   3.269  2.4319 -0.2596  0.6949
  149MOL   H15747813   7.184   5.760   3.331 -1.2392  0.4051  0.7425
  149MOL   H15847814   7.245   5.670   3.742  0.2634 -0.4997  0.0197
  149MOL   H15947815   7.293   5.429   3.680 -0.7372 -1.0570 -0.0298
  149MOL   H16047816   7.225   5.141   3.383 -1.0482 -0.6669  2.4061
  149MOL   H16147817   7.125   5.252   3.465  1.5685  1.8462  1.4726
  149MOL   C16247818   7.133   5.277   3.237  0.3622  0.0191 -0.2664
  149MOL   C16347819   7.137   5.156   3.139 -0.4121  0.0835  0.1185
  149MOL   C16447820   7.215   5.162   3.019  0.4472 -0.1905  0.0304
  149MOL   C16547821   7.218   5.053   2.930  1.0217 -0.2430 -0.4381
  149MOL   C16647822   7.143   4.935   2.958  0.5178 -0.0174 -0.1758
  149MOL   F16747823   7.153   4.824   2.874  0.1650 -0.1931  0.0517
  149MOL   C16847824   7.066   4.930   3.073  0.0057  0.1532  0.3187
  149MOL   C16947825   7.067   5.036   3.165 -0.1728  0.3636 -0.6651
  149MOL   C17047826   6.992   5.333   3.249  0.4901 -0.4352  0.3010
  149MOL   H17147827   7.197   5.355   3.196 -1.2520  2.6174  1.9949
  149MOL   H17247828   7.267   5.251   2.988 -1.2746  0.5796 -0.7504
  149MOL   H17347829   7.273   5.049   2.837  0.1835 -0.7734 -0.9203
  149MOL   H17447830   7.005   4.844   3.098 -0.5118  0.4742  0.1607
  149MOL   H17547831   7.018   5.021   3.260  2.3906  1.8523  0.9494
  149MOL   H17647832   6.925   5.248   3.251 -1.4555  0.9729 -2.4768
  149MOL   H17747833   6.997   5.386   3.344  0.1520 -0.6229  0.4226
  149MOL   C17847834   6.956   5.445   3.147  0.1563  0.1615 -0.0160
  149MOL   C17947835   6.966   5.400   3.004 -0.0219 -0.2649 -0.1690
  149MOL   C18047836   6.879   5.298   2.952  0.2305 -0.1067  0.3603
  149MOL   C18147837   6.884   5.256   2.815 -0.8949 -0.4129  0.6902
  149MOL   C18247838   6.966   5.323   2.725  0.5335 -0.2717  0.5478
  149MOL   F18347839   6.991   5.271   2.598 -0.1269 -0.4108  0.5261
  149MOL   C18447840   7.038   5.438   2.772  0.5013 -0.1001  0.1078
  149MOL   C18547841   7.035   5.476   2.907  0.3247  0.0176 -0.6856
  149MOL   C18647842   6.813   5.505   3.183  0.0082 -0.1895 -0.5098
  149MOL   H18747843   7.027   5.527   3.160  1.3174 -1.0170  1.2952
  149MOL   H18847844   6.820   5.247   3.027  1.5007  1.9779  2.8539
  149MOL   H18947845   6.840   5.160   2.796 -2.7753  0.3772  0.9305
  149MOL   H19047846   7.097   5.488   2.697 -0.0503 -0.7313 -0.7655
  149MOL   H19147847   7.086   5.565   2.941  0.9154  0.1292 -1.8384
  149MOL   H19247848   6.738   5.441   3.136 -0.4030 -0.5039  0.5765
  149MOL   H19347849   6.792   5.511   3.289 -1.4309 -0.6132 -0.7548
  149MOL   C19447850   6.783   5.642   3.115 -0.0356 -0.5591  0.0915
  149MOL   C19547851   6.634   5.669   3.117  0.3897  0.7711 -0.1428
  149MOL   C19647852   6.558   5.672   3.240 -0.4355 -0.1973  0.2717
  149MOL   C19747853   6.416   5.696   3.241 -0.1975  0.0563 -0.1264
  149MOL   C19847854   6.342   5.714   3.123 -0.8146 -0.5847  0.5209
  149MOL   F19947855   6.216   5.741   3.129  0.2870 -0.2113  0.3712
  149MOL   C20047856   6.413   5.708   3.002  0.0148 -0.4834 -0.1657
  149MOL   C20147857   6.553   5.680   2.998  0.1220 -0.3738 -0.2505
  149MOL   C20247858   6.860   5.766   3.185 -1.0280 -0.1209 -0.3654
  149MOL   H20347859   6.813   5.628   3.011  0.6679  1.8802 -0.0579
  149MOL   H20447860   6.607   5.673   3.336  0.1649 -0.6459 -0.0289
  149MOL   H20547861   6.367   5.699   3.337  1.2031 -0.9283  0.6340
  149MOL   H20647862   6.356   5.725   2.912  0.2068  0.0939 -0.1796
  149MOL   H20747863   6.594   5.667   2.899 -0.6773  1.8536 -0.9083
  149MOL   H20847864   6.821   5.777   3.287  2.1468 -4.7653  1.4852
  149MOL   H20947865   6.965   5.737   3.184 -1.0577 -0.3939  1.8192
  149MOL   C21047866   6.862   5.898   3.106 -0.2674  0.0752 -0.4055
  149MOL   C21147867   6.973   5.983   3.168 -0.0460  0.0967 -1.3284
  149MOL   C21247868   7.110   5.962   3.134  0.2015 -0.2705  0.7104
  149MOL   C21347869   7.219   6.038   3.190  0.1784 -0.1827  0.2579
  149MOL   C21447870   7.188   6.136   3.284 -0.3308  0.4766 -0.4524
  149MOL   F21547871   7.287   6.208   3.343  0.0751 -0.0109 -0.1988
  149MOL   C21647872   7.054   6.161   3.319  0.2824  0.0587  0.3317
  149MOL   C21747873   6.949   6.083   3.267 -0.3911  0.2577  0.4108
  149MOL   C21847874   6.866   5.890   2.950 -0.3249 -0.7336 -0.0166
  149MOL   H21947875   6.766   5.945   3.128 -0.4471 -0.0726 -0.8622
  149MOL   H22047876   7.128   5.890   3.056 -0.9228  0.9128 -0.6673
  149MOL   H22147877   7.321   6.032   3.155 -0.2728 -0.1465 -1.0517
  149MOL   H22247878   7.027   6.227   3.400 -1.1494  2.0609 -1.7178
  149MOL   H22347879   6.852   6.097   3.313 -1.1667  1.8316 -1.5954
  149MOL   H22447880   6.952   5.829   2.920 -1.6458 -2.4412 -0.3990
  149MOL   H22547881   6.782   5.825   2.928 -0.6506 -0.5559  0.6931
  149MOL   C22647882   6.860   6.021   2.872  0.5135 -0.2044 -0.2290
  149MOL   C22747883   6.999   6.077   2.856  0.1637  0.1232  0.3430
  149MOL   C22847884   7.040   6.186   2.942  0.3509  0.1673  0.2354
  149MOL   C22947885   7.172   6.234   2.934 -0.4282  0.2880  0.0437
  149MOL   C23047886   7.260   6.176   2.836 -0.6263  0.2284  0.0873
  149MOL   F23147887   7.384   6.219   2.822 -0.4713  0.2507 -0.0738
  149MOL   C23247888   7.220   6.066   2.754  0.3652 -0.6767 -0.0595
  149MOL   C23347889   7.089   6.023   2.760  0.6725  0.0573  0.2656
  149MOL   C23447890   6.790   6.001   2.732  0.0707 -0.2752 -0.0615
  149MOL   H23547891   6.801   6.100   2.919 -2.2347 -0.6788 -2.7257
  149MOL   H23647892   6.974   6.238   3.010  0.7379  0.4441  0.4030
  149MOL   H23747893   7.217   6.315   2.990  0.9113  1.4788 -2.6703
  149MOL   H23847894   7.297   6.031   2.688  1.1908  0.8882  0.0511
  149MOL   H23947895   7.062   5.933   2.707 -0.8768  1.4323 -1.3337
  149MOL   H24047896   6.813   6.090   2.674 -0.9477  0.3551  0.4833
  149MOL   H24147897   6.850   5.922   2.688  2.7977  1.0014  1.2964
  149MOL   C24247898   6.637   5.968   2.739 -0.3034  0.3494 -0.0554
  149MOL   C24347899   6.547   6.065   2.808  0.3708  0.0567  0.5604
  149MOL   C24447900   6.491   6.035   2.940 -0.2157  0.2754 -0.0282
  149MOL   C24547901   6.421   6.128   3.014  0.5737 -0.4661 -0.4688
  149MOL   C24647902   6.403   6.257   2.958  0.1868 -0.2445  0.9031
  149MOL   F24747903   6.324   6.346   3.023 -0.5252  0.0284 -0.2883
  149MOL   C24847904   6.454   6.295   2.832 -0.9092  0.6980  0.0001
  149MOL   C24947905   6.519   6.194   2.755  0.5369  0.4510 -0.4194
  149MOL   C25047906   6.578   5.933   2.600  0.5183 -0.3220  0.4264
  149MOL   H25147907   6.630   5.879   2.801  0.9227  0.7849  0.7193
  149MOL   H25247908   6.513   5.944   2.994  0.7291 -0.1132 -1.0668
  149MOL   H25347909   6.380   6.108   3.112 -2.2737  0.6387 -1.3927
  149MOL   H25447910   6.435   6.391   2.786  0.0095  0.6102 -0.5813
  149MOL   H25547911   6.569   6.224   2.665  1.2434 -0.6540 -0.4026
  149MOL   H25647912   6.469   5.931   2.608  0.6331 -0.1512  2.2430
  149MOL   H25747913   6.603   6.022   2.542  0.4580 -1.7252 -1.8233
  149MOL   C25847914   6.628   5.797   2.537  0.0452 -0.2215  0.4057
  149MOL   C25947915   6.561   5.680   2.608  0.2581  0.3653  0.2935
  149MOL   C26047916   6.635   5.585   2.682  0.0286  0.3727 -0.2568
  149MOL   C26147917   6.579   5.467   2.728  0.5397 -0.0890 -0.6088
  149MOL   C26247918   6.442   5.444   2.713  0.1943  0.0611  0.1784
  149MOL   F26347919   6.389   5.320   2.743 -0.4816 -0.3725 -0.3251
  149MOL   C26447920   6.357   5.541   2.654  0.2498  0.2694  0.4465
  149MOL   C26547921   6.416   5.660   2.601  0.0555 -0.0226  0.5207
  149MOL   C26647922   6.600   5.792   2.384  0.1624  0.0731 -0.8874
  149MOL   H26747923   6.737   5.796   2.541  0.0137  1.8601  2.6585
  149MOL   H26847924   6.739   5.607   2.697  0.0181 -0.2127  0.7257
  149MOL   H26947925   6.641   5.390   2.772 -1.6355 -1.6268 -0.1303
  149MOL   H27047926   6.257   5.507   2.630  0.6878 -0.9701  0.3181
  149MOL   H27147927   6.363   5.734   2.544  0.8077 -0.1428 -0.3428
  149MOL   H27247928   6.626   5.691   2.352 -3.2280 -0.9779 -0.5176
  149MOL   H27347929   6.493   5.784   2.368 -0.4691  0.2903  2.8460
  149MOL   C27447930   6.676   5.892   2.297  0.1470 -0.2766 -0.2448
  149MOL   C27547931   6.827   5.907   2.331 -0.2721  0.3765 -0.2389
  149MOL   C27647932   6.913   5.794   2.310  0.4997  0.3456 -0.1006
  149MOL   C27747933   7.046   5.804   2.352 -0.5558  0.6361 -0.6136
  149MOL   C27847934   7.097   5.923   2.411  0.0216  0.3740  0.0249
  149MOL   F27947935   7.226   5.921   2.444 -0.3299  0.3536  0.2436
  149MOL   C28047936   7.012   6.034   2.425 -0.1674 -0.1037 -0.3743
  149MOL   C28147937   6.878   6.023   2.388  0.7256 -0.1648 -0.0368
  149MOL   C28247938   6.659   5.878   2.147  0.6458 -0.1942 -0.7829
  149MOL   H28347939   6.629   5.989   2.314  1.1611  0.5955 -2.3196
  149MOL   H28447940   6.879   5.698   2.274  4.2592 -2.1068  2.4699
  149MOL   H28547941   7.111   5.722   2.326 -2.2484 -0.0467 -2.9410
  149MOL   H28647942   7.053   6.121   2.473  0.7503 -0.8934  0.2938
  149MOL   H28747943   6.808   6.101   2.414  0.2351 -0.2895 -0.9737
  149MOL   H28847944   6.730   5.946   2.101  0.5005  2.9498  3.2985
  149MOL   H28947945   6.689   5.781   2.107 -0.4922 -0.6484 -0.5659
  149MOL   C29047946   6.519   5.924   2.094  0.2766  0.1388 -0.8177
  149MOL   C29147947   6.535   6.008   1.971 -0.1375  0.0853 -0.4236
  149MOL   C29247948   6.591   5.954   1.853  0.5971 -0.1139 -0.8078
  149MOL   C29347949   6.613   6.039   1.742  0.0952  0.1179 -0.1960
  149MOL   C29447950   6.581   6.178   1.755 -0.0681 -0.2897 -0.8902
  149MOL   F29547951   6.600   6.258   1.653 -0.0393 -0.3625 -0.4111
  149MOL   C29647952   6.534   6.234   1.877 -0.2241  0.0579  0.1247
  149MOL   C29747953   6.511   6.146   1.986  0.0685 -0.6449 -0.2977
  149MOL   C29847954   6.428   5.802   2.077  0.2267  0.2957  0.1638
  149MOL   H29947955   6.474   5.975   2.179  1.9412 -0.0844  0.2286
  149MOL   H30047956   6.609   5.847   1.848  1.7232 -0.0974  1.6565
  149MOL   H30147957   6.645   5.998   1.647  0.4988  1.1872 -0.5353
  149MOL   H30247958   6.519   6.340   1.892 -2.7015 -0.1526 -0.7081
  149MOL   H30347959   6.473   6.180   2.082  1.1351 -0.2653  0.0007
  149MOL   H30447960   6.441   5.747   1.983 -1.2245  0.1575  0.0340
  149MOL   H30547961   6.443   5.724   2.151  1.9884  1.4119  1.0064
  149MOL   C30647962   6.269   5.824   2.088 -0.1859 -0.3356 -0.1067
  149MOL   C30747963   6.221   5.935   1.991 -1.0200 -0.4838  0.5825
  149MOL   C30847964   6.191   6.063   2.045  0.6702 -0.1645  1.1003
  149MOL   C30947965   6.162   6.165   1.955  0.7495 -0.4296  0.1168
  149MOL   C31047966   6.153   6.141   1.820 -0.6819 -0.3873  0.1594
  149MOL   F31147967   6.141   6.247   1.747  0.2627 -0.3320 -0.5464
  149MOL   C31247968   6.185   6.020   1.764  0.3298 -0.7038 -0.0804
  149MOL   C31347969   6.222   5.914   1.849 -0.6489  0.4131 -0.6686
  149MOL   C31447970   6.184   5.702   2.078  1.2439  0.5486 -0.6602
  149MOL   H31547971   6.260   5.861   2.190  0.7590 -1.8400  0.5420
  149MOL   H31647972   6.198   6.083   2.151  1.9436 -2.1450  1.4271
  149MOL   H31747973   6.157   6.270   1.981  1.4002 -0.7814  1.7742
  149MOL   H31847974   6.182   6.025   1.656  1.0407  1.6219 -0.0160
  149MOL   H31947975   6.252   5.815   1.817 -1.2554 -0.5193  1.5470
  149MOL   H32047976   6.205   5.630   2.158  0.4095  1.5233  0.4582
  149MOL   H32147977   6.082   5.733   2.099  0.9636  1.1825 -2.8760
  149MOL   H32247978   6.188   5.651   1.982 -0.4889  2.5316 -1.8007
  150MOL     C147979   2.117   6.710   4.898 -0.0991 -0.2393 -0.2086
  150MOL     C247980   2.001   6.691   4.803  0.5431  0.7388  0.2964
  150MOL     C347981   1.919   6.801   4.768 -0.3229 -0.0551 -0.0300
  150MOL     C447982   1.825   6.793   4.666 -0.1968  0.3572  0.3339
  150MOL     C547983   1.809   6.668   4.599  0.3893 -0.0282 -0.3496
  150MOL     F647984   1.715   6.652   4.501  0.3899  0.3633 -0.1590
  150MOL     C747985   1.885   6.552   4.629 -0.6567  0.1463 -0.1621
  150MOL     C847986   1.982   6.566   4.734  0.1973 -0.2087  0.1891
  150MOL     C947987   2.058   6.700   5.042  0.8544  0.2973 -0.3073
  150MOL    H1047988   2.150   6.813   4.881 -1.6098  0.0173 -1.7579
  150MOL    H1147989   1.934   6.885   4.834 -2.1913  0.4635 -0.2335
  150MOL    H1247990   1.768   6.881   4.640  0.2733 -0.4822 -3.7564
  150MOL    H1347991   1.865   6.454   4.587 -0.4029  1.5814 -3.7779
  150MOL    H1447992   2.035   6.477   4.767  0.7929  0.1557  0.2211
  150MOL    H1547993   1.964   6.755   5.040 -0.1149 -1.3513 -4.0121
  150MOL    H1647994   2.045   6.593   5.054 -0.1116  0.2983 -1.3108
  150MOL    H1747995   2.204   6.647   4.876  0.1307  1.0030 -3.2218
  150MOL    C1847996   2.150   6.755   5.150  0.6976 -0.2172 -0.9804
  150MOL    C1947997   2.181   6.908   5.142  0.3406  0.4189  0.0896
  150MOL    C2047998   2.074   6.999   5.142  0.3581 -0.3440 -0.6310
  150MOL    C2147999   2.100   7.134   5.129  0.5703  0.4605  0.1840
  150MOL    C2248000   2.230   7.180   5.118  0.7419  0.1854 -0.2911
  150MOL    F2348001   2.256   7.313   5.094 -0.6988  0.6123  0.1182
  150MOL    C2448002   2.337   7.085   5.136  0.8807 -0.1758  0.6219
  150MOL    C2548003   2.312   6.950   5.149  0.4817  0.2364  0.5650
  150MOL    C2648004   2.081   6.732   5.290 -0.5206 -0.4537  0.7511
  150MOL    H2748005   2.244   6.700   5.157  1.1583  0.5127 -1.3392
  150MOL    H2848006   1.971   6.967   5.140  0.3788 -0.3533 -1.6392
  150MOL    H2948007   2.014   7.199   5.129  1.5314  1.7541  0.8708
  150MOL    H3048008   2.438   7.122   5.144  0.7201  1.3097 -3.3518
  150MOL    H3148009   2.389   6.876   5.158 -1.4673 -1.7339  1.5318
  150MOL    H3248010   2.093   6.818   5.356  0.4827  0.1792 -0.2505
  150MOL    H3348011   1.972   6.735   5.282 -0.5890 -0.2977  1.6691
  150MOL    C3448012   2.127   6.611   5.384  0.5041  0.3720 -0.2233
  150MOL    C3548013   2.274   6.616   5.414 -0.0731  0.0731 -0.5946
  150MOL    C3648014   2.338   6.736   5.454  0.2611  0.1723  0.2853
  150MOL    C3748015   2.477   6.734   5.466  0.3311  0.4509  0.1116
  150MOL    C3848016   2.550   6.611   5.436 -0.0139  0.3932  0.0050
  150MOL    F3948017   2.681   6.612   5.468  0.3370  0.0732  0.4300
  150MOL    C4048018   2.485   6.492   5.414 -0.0848  0.2027  0.1452
  150MOL    C4148019   2.342   6.494   5.404 -0.3672  0.4819  0.2721
  150MOL    C4248020   2.047   6.584   5.511  0.6150 -0.0112 -0.4169
  150MOL    H4348021   2.107   6.523   5.322  2.3428 -0.7307  0.6774
  150MOL    H4448022   2.283   6.829   5.464  0.1001  0.5218 -3.1233
  150MOL    H4548023   2.528   6.827   5.486 -0.9450  0.7999  1.8169
  150MOL    H4648024   2.544   6.403   5.396  1.1484  1.1262 -0.5077
  150MOL    H4748025   2.295   6.404   5.367  0.7370  0.1295 -0.2860
  150MOL    H4848026   2.096   6.518   5.582 -0.6879 -0.3509  0.1711
  150MOL    H4948027   2.033   6.681   5.559  0.9370  0.6738 -1.6783
  150MOL    C5048028   1.912   6.517   5.484 -1.2355 -0.3869 -0.6649
  150MOL    C5148029   1.940   6.379   5.424  0.8071  0.5946 -0.1136
  150MOL    C5248030   2.018   6.285   5.493  0.3312  0.8461 -0.0144
  150MOL    C5348031   2.029   6.155   5.440  0.5953 -0.3500  0.0508
  150MOL    C5448032   1.976   6.127   5.313  0.4851 -0.2708 -0.8937
  150MOL    F5548033   2.001   6.005   5.264  0.2103 -0.1772 -0.7038
  150MOL    C5648034   1.898   6.220   5.248  1.0668  0.0609 -0.2307
  150MOL    C5748035   1.875   6.347   5.303 -0.5339  0.4289  0.8791
  150MOL    C5848036   1.817   6.514   5.612  0.4642  0.7133 -0.1766
  150MOL    H5948037   1.866   6.582   5.410  1.5837  2.8450  0.3103
  150MOL    H6048038   2.058   6.313   5.589 -0.7968  2.2236  0.0802
  150MOL    H6148039   2.080   6.075   5.493  0.4137 -0.7372 -0.3522
  150MOL    H6248040   1.855   6.195   5.152 -1.5282  2.3336  0.2794
  150MOL    H6348041   1.817   6.419   5.247  1.4131  0.5472 -1.0366
  150MOL    H6448042   1.730   6.452   5.592  1.3004  0.0055 -1.7334
  150MOL    H6548043   1.854   6.449   5.691 -0.4530 -0.6188 -0.8322
  150MOL    C6648044   1.782   6.654   5.677 -0.8106  0.5978  0.1382
  150MOL    C6748045   1.713   6.746   5.578  0.4841  0.3741 -0.7337
  150MOL    C6848046   1.637   6.691   5.472  0.0142  0.3895  0.3786
  150MOL    C6948047   1.587   6.774   5.371  0.4578 -0.2116 -0.0362
  150MOL    C7048048   1.608   6.917   5.383 -0.0906  0.0247 -0.4314
  150MOL    F7148049   1.573   7.007   5.287 -0.4540  0.7030 -0.5398
  150MOL    C7248050   1.683   6.969   5.492  0.0182 -0.2394  0.0649
  150MOL    C7348051   1.727   6.886   5.592  1.1293  0.0489  0.3015
  150MOL    C7448052   1.692   6.641   5.795  0.3663  1.0034 -0.0616
  150MOL    H7548053   1.875   6.700   5.707 -0.0648 -0.1812 -0.9494
  150MOL    H7648054   1.627   6.585   5.458 -1.0245  0.1902  2.5616
  150MOL    H7748055   1.524   6.724   5.299 -0.9702 -0.5156  1.4129
  150MOL    H7848056   1.714   7.072   5.502 -0.6917 -0.2148  2.3440
  150MOL    H7948057   1.785   6.928   5.673  0.2652  0.7850  0.5500
  150MOL    H8048058   1.645   6.739   5.808 -1.9678 -0.1785  0.8535
  150MOL    H8148059   1.608   6.575   5.774  0.0952  0.4312  2.6956
  150MOL    C8248060   1.765   6.594   5.926  0.5142  0.3629  0.2070
  150MOL    C8348061   1.863   6.705   5.976  0.3744  0.2777 -0.6001
  150MOL    C8448062   1.839   6.843   5.973  0.5621  0.3715 -0.0782
  150MOL    C8548063   1.939   6.929   6.036  0.0660  0.0472 -0.0929
  150MOL    C8648064   2.052   6.879   6.105  0.2000  0.0760  0.0593
  150MOL    F8748065   2.143   6.951   6.169  0.2535 -0.2509  0.1435
  150MOL    C8848066   2.076   6.745   6.102 -0.8789  0.3450  0.6575
  150MOL    C8948067   1.985   6.662   6.038 -0.6535  0.2260 -0.4174
  150MOL    C9048068   1.664   6.555   6.039 -0.6742 -0.1833 -0.3277
  150MOL    H9148069   1.831   6.512   5.899 -0.5366  0.9156 -4.4071
  150MOL    H9248070   1.754   6.885   5.922  0.5165 -0.6850 -0.8745
  150MOL    H9348071   1.934   7.037   6.029 -1.7797  0.0525  0.8227
  150MOL    H9448072   2.161   6.715   6.162 -0.1313  1.2126  0.0438
  150MOL    H9548073   1.996   6.554   6.039 -1.1008  0.1444 -2.0973
  150MOL    H9648074   1.718   6.519   6.127  0.1321 -0.1570 -0.8074
  150MOL    H9748075   1.620   6.646   6.081  2.5915  0.4457  1.9299
  150MOL    C9848076   1.563   6.444   6.008 -0.3356 -0.6909  0.5656
  150MOL    C9948077   1.622   6.322   5.950  0.4226  0.0893 -0.7497
  150MOL   C10048078   1.574   6.269   5.825  0.3180 -1.0491 -0.1776
  150MOL   C10148079   1.624   6.155   5.767  0.2186 -0.0198  0.4053
  150MOL   C10248080   1.725   6.081   5.831 -0.3292 -0.0821  0.5296
  150MOL   F10348081   1.770   5.977   5.757  0.0891  0.0501  0.2930
  150MOL   C10448082   1.782   6.125   5.953  0.0552  0.0386 -0.1017
  150MOL   C10548083   1.727   6.252   6.008 -0.1648  0.4690 -0.3448
  150MOL   C10648084   1.477   6.417   6.130 -1.2773 -0.3826  0.1700
  150MOL   H10748085   1.498   6.499   5.940  2.5168 -0.1817 -1.8296
  150MOL   H10848086   1.499   6.331   5.778  0.8862  1.2524  1.9085
  150MOL   H10948087   1.584   6.109   5.677  0.3294 -1.5216  1.1119
  150MOL   H11048088   1.873   6.087   5.997 -0.6728 -0.6869  0.7948
  150MOL   H11148089   1.776   6.297   6.093 -2.4200  0.4124  1.0404
  150MOL   H11248090   1.523   6.336   6.186 -1.5807  0.1445  1.1865
  150MOL   H11348091   1.479   6.502   6.198 -0.1489 -0.2196 -0.0612
  150MOL   C11448092   1.332   6.392   6.110  0.0174 -0.5197 -0.2108
  150MOL   C11548093   1.271   6.512   6.050  0.1365  0.1595 -0.6204
  150MOL   C11648094   1.226   6.515   5.916  0.2150  0.2715 -0.1713
  150MOL   C11748095   1.167   6.632   5.863 -0.0842 -0.2570  0.2906
  150MOL   C11848096   1.143   6.748   5.943 -0.2065  0.5177 -0.6208
  150MOL   F11948097   1.067   6.848   5.897  0.2325  0.3445  0.0550
  150MOL   C12048098   1.208   6.753   6.069 -0.2346  0.2347  0.9395
  150MOL   C12148099   1.263   6.634   6.121 -0.3205 -0.0409  0.5845
  150MOL   C12248100   1.300   6.257   6.034  0.4326 -0.0135  0.0579
  150MOL   H12348101   1.281   6.377   6.206 -1.2490 -2.4103 -1.1506
  150MOL   H12448102   1.250   6.423   5.864  2.1068  0.2695  0.6787
  150MOL   H12548103   1.137   6.627   5.759  0.4860 -1.1006  0.1673
  150MOL   H12648104   1.174   6.837   6.128 -1.8993  0.9952 -1.0481
  150MOL   H12748105   1.293   6.637   6.225  1.0380  0.5757  0.1827
  150MOL   H12848106   1.192   6.256   6.017 -0.2012 -1.6549  3.7026
  150MOL   H12948107   1.338   6.255   5.932  2.9179  4.2757  0.7683
  150MOL   C13048108   1.352   6.130   6.093 -0.3383 -0.7415  0.4268
  150MOL   C13148109   1.317   6.108   6.238 -0.8910  0.5689  0.6042
  150MOL   C13248110   1.415   6.114   6.330  0.5532  0.2584 -0.0610
  150MOL   C13348111   1.382   6.083   6.468  0.1910 -0.0568  0.9213
  150MOL   C13448112   1.258   6.037   6.502  0.0001 -0.1264 -0.5572
  150MOL   F13548113   1.233   5.992   6.629  0.3583  0.3277  0.0247
  150MOL   C13648114   1.152   6.045   6.409 -0.5366  0.4268 -0.0285
  150MOL   C13748115   1.186   6.075   6.278 -0.6669 -0.5902  0.3174
  150MOL   C13848116   1.321   6.003   5.999  0.8474 -0.2598  0.6057
  150MOL   H13948117   1.461   6.128   6.086 -0.2557  1.4446  0.7837
  150MOL   H14048118   1.516   6.131   6.297  0.2025 -0.5636 -1.6242
  150MOL   H14148119   1.468   6.082   6.534  0.8765  0.8996  0.0773
  150MOL   H14248120   1.052   6.011   6.430 -0.4521 -0.1311 -0.5061
  150MOL   H14348121   1.106   6.077   6.206  1.1765 -0.7058 -1.8005
  150MOL   H14448122   1.213   5.991   5.995  1.0126 -1.3548 -2.0680
  150MOL   H14548123   1.350   6.023   5.896  1.7235  1.0098  1.0944
  150MOL   C14648124   1.361   5.855   6.046  0.0560 -0.3483 -0.0226
  150MOL   C14748125   1.281   5.749   5.980 -0.0892 -0.3510  0.3135
  150MOL   C14848126   1.251   5.633   6.055  0.1121  0.0664 -0.2975
  150MOL   C14948127   1.177   5.525   6.007  0.1535  0.0469 -0.5299
  150MOL   C15048128   1.148   5.528   5.868  0.0317 -0.1507  0.1576
  150MOL   F15148129   1.098   5.409   5.822 -0.1244  0.4402 -0.3870
  150MOL   C15248130   1.151   5.647   5.791  0.5312  0.5384  0.1467
  150MOL   C15348131   1.223   5.754   5.850 -0.3251  0.2327  0.1262
  150MOL   C15448132   1.516   5.826   6.019  0.1427 -0.7316  0.1607
  150MOL   H15548133   1.339   5.847   6.153  1.0018  0.0511  0.2053
  150MOL   H15648134   1.290   5.622   6.155 -1.8882  0.4321  0.5334
  150MOL   H15748135   1.159   5.441   6.072 -0.4976  0.5926  0.0009
  150MOL   H15848136   1.114   5.663   5.691 -2.7644  1.4736  1.4457
  150MOL   H15948137   1.247   5.844   5.796 -1.4427  1.3839  1.5348
  150MOL   H16048138   1.537   5.800   5.916 -2.0854  0.0228 -0.5028
  150MOL   H16148139   1.576   5.915   6.039 -3.5598  1.4549  2.2717
  150MOL   C16248140   1.573   5.721   6.117  0.8664  0.2865  0.3140
  150MOL   C16348141   1.708   5.660   6.069  0.2153 -0.0547  0.1970
  150MOL   C16448142   1.816   5.742   6.031 -0.3083 -0.4007  0.1334
  150MOL   C16548143   1.939   5.677   5.994 -0.1092  0.3509  0.5293
  150MOL   C16648144   1.945   5.533   6.003  0.1467 -0.3203 -0.4431
  150MOL   F16748145   2.064   5.477   5.972  0.1116 -0.2445 -0.2207
  150MOL   C16848146   1.837   5.456   6.051 -0.2093  1.1512  0.8026
  150MOL   C16948147   1.719   5.521   6.082  0.3052 -0.3116  0.1104
  150MOL   C17048148   1.573   5.779   6.268  0.1934  0.4293 -0.1096
  150MOL   H17148149   1.504   5.637   6.118  1.7780 -0.4753 -1.0627
  150MOL   H17248150   1.800   5.849   6.027 -0.4128 -0.2873  2.5531
  150MOL   H17348151   2.029   5.714   5.949  0.4464 -2.9936 -1.3166
  150MOL   H17448152   1.843   5.348   6.045  2.8080  1.3351 -0.6523
  150MOL   H17548153   1.626   5.472   6.104 -0.9624  0.9589 -2.1861
  150MOL   H17648154   1.656   5.849   6.274  0.7949 -0.0217 -2.6327
  150MOL   H17748155   1.487   5.839   6.299 -0.4464 -0.5165 -0.0434
  150MOL   C17848156   1.592   5.676   6.381 -1.0458  0.3948 -0.6548
  150MOL   C17948157   1.619   5.758   6.512 -0.3607  0.6937 -0.0904
  150MOL   C18048158   1.753   5.795   6.539 -0.6552 -0.5578 -0.0120
  150MOL   C18148159   1.772   5.888   6.644 -0.5651 -0.4346 -0.2894
  150MOL   C18248160   1.673   5.939   6.728  0.0951 -0.3943  0.1963
  150MOL   F18348161   1.698   6.034   6.827  0.2333  0.0833 -0.1576
  150MOL   C18448162   1.544   5.890   6.705  0.0856  0.5006  0.3170
  150MOL   C18548163   1.515   5.803   6.595  0.3524 -0.3898  0.5103
  150MOL   C18648164   1.474   5.572   6.407  0.3120 -0.1241  0.1526
  150MOL   H18748165   1.680   5.617   6.355  0.7003  2.4848  0.3979
  150MOL   H18848166   1.838   5.770   6.477 -0.2600 -0.2204  0.3889
  150MOL   H18948167   1.873   5.921   6.662 -0.6220 -1.0649  1.2723
  150MOL   H19048168   1.463   5.905   6.775  0.0862 -2.4426  1.0345
  150MOL   H19148169   1.416   5.761   6.591  0.3749 -0.3379 -1.0928
  150MOL   H19248170   1.388   5.637   6.404 -2.6117 -3.6986  2.2083
  150MOL   H19348171   1.449   5.509   6.321  1.9797  0.4671 -0.7941
  150MOL   C19448172   1.473   5.480   6.534 -0.2791 -0.4054 -0.1647
  150MOL   C19548173   1.337   5.415   6.542  0.9727  0.1508  0.4421
  150MOL   C19648174   1.280   5.343   6.437 -0.4440  0.0178  0.1680
  150MOL   C19748175   1.142   5.301   6.444  0.5372  0.2387  0.0644
  150MOL   C19848176   1.070   5.324   6.562  0.1060 -0.0716 -0.2640
  150MOL   F19948177   0.938   5.276   6.574  0.9541 -0.3793  0.1305
  150MOL   C20048178   1.122   5.395   6.672 -0.3274  0.6566 -0.5901
  150MOL   C20148179   1.258   5.442   6.653 -0.8953 -1.0579  0.3545
  150MOL   C20248180   1.588   5.380   6.513 -0.5546  0.9095  0.0291
  150MOL   H20348181   1.492   5.528   6.630  1.2019  0.0437 -0.6655
  150MOL   H20448182   1.337   5.325   6.346  1.1475 -2.1411  1.5245
  150MOL   H20548183   1.098   5.235   6.370 -1.0246 -2.2128  3.0945
  150MOL   H20648184   1.067   5.415   6.762 -0.8541  1.1145 -1.0093
  150MOL   H20748185   1.309   5.504   6.725 -0.5262 -0.7348 -0.1835
  150MOL   H20848186   1.555   5.294   6.572  0.8133  0.1307 -0.3097
  150MOL   H20948187   1.584   5.333   6.415  1.9360 -0.2207  0.4214
  150MOL   C21048188   1.732   5.415   6.554 -0.6649  0.7087  0.3006
  150MOL   C21148189   1.753   5.398   6.700 -0.0318 -0.1387  0.3136
  150MOL   C21248190   1.716   5.280   6.769 -0.1430  0.1577 -0.1703
  150MOL   C21348191   1.730   5.274   6.909 -0.4750  0.2217  0.1715
  150MOL   C21448192   1.769   5.383   6.987 -0.3253  0.0607 -0.3193
  150MOL   F21548193   1.772   5.379   7.122 -0.2042  0.0628 -0.1172
  150MOL   C21648194   1.812   5.494   6.922 -0.6488 -0.2832 -0.6899
  150MOL   C21748195   1.802   5.506   6.780 -0.3560  0.5026 -0.2919
  150MOL   C21848196   1.835   5.334   6.474 -0.3616  0.6795  0.1788
  150MOL   H21948197   1.759   5.519   6.539  0.9768  0.8507  3.6321
  150MOL   H22048198   1.675   5.196   6.715  0.9766 -1.0940  0.8852
  150MOL   H22148199   1.698   5.180   6.952  1.7666 -0.6211  0.0849
  150MOL   H22248200   1.856   5.575   6.980 -0.8919 -1.8861  1.8256
  150MOL   H22348201   1.835   5.597   6.733  0.7898  0.6578  0.7960
  150MOL   H22448202   1.806   5.231   6.496 -1.8084  0.7531 -1.2755
  150MOL   H22548203   1.809   5.334   6.368 -0.9175 -1.1622  0.2824
  150MOL   C22648204   1.985   5.386   6.487 -0.1383  0.6315 -0.0856
  150MOL   C22748205   2.069   5.291   6.404  0.2810  0.0637  0.7543
  150MOL   C22848206   2.124   5.176   6.461 -0.3536  0.2376 -0.4773
  150MOL   C22948207   2.192   5.080   6.390 -0.2163 -0.1697  0.2271
  150MOL   C23048208   2.202   5.098   6.252 -0.4145 -0.3508 -0.0373
  150MOL   F23148209   2.268   5.002   6.174  0.1857 -0.7912  0.5907
  150MOL   C23248210   2.137   5.204   6.188  0.2823 -0.3374 -0.9087
  150MOL   C23348211   2.066   5.300   6.264 -0.0406  0.1885  0.5225
  150MOL   C23448212   2.011   5.534   6.447  0.3226 -0.2442 -0.4175
  150MOL   H23548213   2.000   5.376   6.594 -1.5987 -1.3220 -0.0358
  150MOL   H23648214   2.106   5.162   6.567  0.9287 -2.1365 -0.5378
  150MOL   H23748215   2.209   4.984   6.436 -0.8846 -0.7089 -0.6142
  150MOL   H23848216   2.136   5.205   6.080  0.0366  2.0139 -0.9080
  150MOL   H23948217   2.025   5.387   6.217 -1.5340  0.0345  1.4943
  150MOL   H24048218   1.965   5.548   6.349  0.4905 -2.5202 -0.8509
  150MOL   H24148219   1.962   5.600   6.519 -2.1359 -1.0773 -1.2835
  150MOL   C24248220   2.155   5.588   6.448  0.3338 -0.2702  0.0784
  150MOL   C24348221   2.165   5.725   6.374  0.5813 -0.2575 -0.5520
  150MOL   C24448222   2.226   5.734   6.248  0.0399  0.1626  0.1714
  150MOL   C24548223   2.228   5.859   6.180  0.8177 -0.1261 -0.0185
  150MOL   C24648224   2.167   5.970   6.237 -0.2611 -0.0516  0.0419
  150MOL   F24748225   2.163   6.089   6.173  0.5194  0.1321  0.5432
  150MOL   C24848226   2.108   5.965   6.365  0.3831  0.4425 -0.6882
  150MOL   C24948227   2.110   5.841   6.435  0.2757  0.0101 -0.1331
  150MOL   C25048228   2.234   5.589   6.583 -0.1992 -1.0108  0.4757
  150MOL   H25148229   2.209   5.520   6.382  0.0713 -1.0852  0.7020
  150MOL   H25248230   2.278   5.649   6.206 -0.6392 -1.0312  1.7291
  150MOL   H25348231   2.272   5.865   6.082  0.9380  0.3944  0.0689
  150MOL   H25448232   2.057   6.047   6.413 -3.4187 -1.7014 -0.8384
  150MOL   H25548233   2.067   5.838   6.534 -0.0459 -1.9711 -0.3191
  150MOL   H25648234   2.237   5.687   6.631 -0.7002 -1.4052  1.3141
  150MOL   H25748235   2.173   5.537   6.657  1.4356 -0.1462  2.4755
  150MOL   C25848236   2.368   5.510   6.573 -0.2139 -0.0206  0.2053
  150MOL   C25948237   2.452   5.571   6.463 -0.9246 -0.4532  0.8106
  150MOL   C26048238   2.497   5.703   6.472 -0.9641  0.3775 -0.0220
  150MOL   C26148239   2.575   5.769   6.371 -0.3633 -0.2469  0.6023
  150MOL   C26248240   2.599   5.692   6.253 -0.4436 -0.3740 -0.4974
  150MOL   F26348241   2.644   5.747   6.141 -0.0784 -0.2954  0.2767
  150MOL   C26448242   2.563   5.554   6.248 -0.0431  0.6651 -0.4932
  150MOL   C26548243   2.491   5.490   6.354 -0.1888 -0.0821  1.0858
  150MOL   C26648244   2.451   5.501   6.705  0.3735  0.3106 -0.3425
  150MOL   H26748245   2.341   5.409   6.541  0.5620  0.2868 -1.4651
  150MOL   H26848246   2.467   5.759   6.559  0.3534  1.1792 -0.0622
  150MOL   H26948247   2.610   5.870   6.384 -0.3849 -0.3568  1.5271
  150MOL   H27048248   2.606   5.494   6.169  0.5050  0.0738  0.2467
  150MOL   H27148249   2.458   5.387   6.346 -1.0407  0.2516  0.1315
  150MOL   H27248250   2.468   5.602   6.743  0.1698  0.4050 -0.4999
  150MOL   H27348251   2.388   5.460   6.784  0.6979 -0.1675 -0.3341
  150MOL   C27448252   2.592   5.438   6.711  0.2492 -0.0188 -0.8864
  150MOL   C27548253   2.676   5.477   6.834  0.7126  0.4523  0.1254
  150MOL   C27648254   2.769   5.584   6.828  0.2484  0.0170  0.1194
  150MOL   C27748255   2.847   5.600   6.944  0.0745 -0.3665 -0.2134
  150MOL   C27848256   2.818   5.542   7.073 -0.8569  0.1807  0.7957
  150MOL   F27948257   2.897   5.580   7.178 -0.2602  0.5496 -0.5449
  150MOL   C28048258   2.720   5.446   7.080  0.1178  0.2701 -0.4034
  150MOL   C28148259   2.655   5.407   6.958  0.3278 -0.6183 -0.3096
  150MOL   C28248260   2.564   5.285   6.695 -0.2028 -1.0617  0.0583
  150MOL   H28348261   2.654   5.462   6.625 -3.1059  0.7353 -3.1726
  150MOL   H28448262   2.792   5.643   6.740 -2.4630  1.6990  0.4847
  150MOL   H28548263   2.926   5.674   6.946  0.2171 -0.4483 -1.9407
  150MOL   H28648264   2.688   5.404   7.174 -0.3455 -0.0312 -0.6918
  150MOL   H28748265   2.572   5.339   6.970 -0.4600  0.5461  0.9713
  150MOL   H28848266   2.499   5.267   6.780  0.4163 -1.0646  0.5391
  150MOL   H28948267   2.502   5.272   6.606  0.5666  1.2967 -0.8670
  150MOL   C29048268   2.685   5.188   6.697  0.2997 -0.6469 -0.0297
  150MOL   C29148269   2.625   5.047   6.717  0.2589  0.4142 -0.2090
  150MOL   C29248270   2.511   5.002   6.638  0.3281 -0.1934  0.2810
  150MOL   C29348271   2.462   4.873   6.644 -1.0076 -0.2267  0.1815
  150MOL   C29448272   2.514   4.786   6.734 -0.1361  0.4105 -0.3562
  150MOL   F29548273   2.471   4.661   6.737 -0.3139  0.2639 -0.3522
  150MOL   C29648274   2.606   4.832   6.830 -0.3843  0.4602 -0.1727
  150MOL   C29748275   2.670   4.962   6.818 -0.1877  0.2816 -0.0518
  150MOL   C29848276   2.769   5.190   6.569  0.9568  0.7767 -0.0121
  150MOL   H29948277   2.736   5.214   6.790 -0.9887  2.3886 -0.0873
  150MOL   H30048278   2.464   5.062   6.561  0.0247 -0.0056  0.6123
  150MOL   H30148279   2.398   4.835   6.565  0.8069 -0.2824 -1.2805
  150MOL   H30248280   2.649   4.769   6.907  2.1268  0.1820 -1.7455
  150MOL   H30348281   2.758   4.995   6.871  1.0264 -1.2828 -1.0415
  150MOL   H30448282   2.784   5.091   6.528  0.5360  1.3349 -1.5367
  150MOL   H30548283   2.729   5.251   6.488  0.5704  1.7616  0.8903
  150MOL   C30648284   2.908   5.252   6.586  0.7235 -0.8982 -0.1623
  150MOL   C30748285   2.994   5.180   6.690 -0.4044 -0.6575 -0.0075
  150MOL   C30848286   3.051   5.264   6.790  0.2623 -0.9474  0.1679
  150MOL   C30948287   3.137   5.199   6.878  0.2054  0.6347  0.0523
  150MOL   C31048288   3.159   5.058   6.877  0.4962 -0.4234  0.0360
  150MOL   F31148289   3.255   4.998   6.958  0.6688  0.0425  0.7102
  150MOL   C31248290   3.100   4.984   6.771  0.6549  0.5170  0.0551
  150MOL   C31348291   3.017   5.044   6.682  0.2202  0.2293  0.3000
  150MOL   C31448292   2.987   5.269   6.449 -0.3173  0.3255 -0.4678
  150MOL   H31548293   2.888   5.353   6.623 -4.4851 -2.0848  0.5633
  150MOL   H31648294   3.029   5.369   6.799 -0.4456 -0.7897 -2.8806
  150MOL   H31748295   3.215   5.256   6.927  0.1273  1.7300 -1.0828
  150MOL   H31848296   3.124   4.879   6.764 -1.5290 -0.3338  4.0734
  150MOL   H31948297   2.967   4.985   6.607 -1.5317  1.6048  0.3436
  150MOL   H32048298   3.077   5.328   6.462 -1.5768  2.6964 -2.1554
  150MOL   H32148299   3.014   5.179   6.395 -1.0936 -0.6139  0.6780
  150MOL   H32248300   2.932   5.331   6.378  0.4181  0.8711 -0.5728
  151MOL     C148301   6.919   1.176   4.330  0.3775  0.1797 -0.3165
  151MOL     C248302   7.043   1.260   4.290 -0.1682  0.3889  0.3255
  151MOL     C348303   7.139   1.204   4.200 -0.0845 -0.0461 -0.7606
  151MOL     C448304   7.258   1.278   4.169  0.1144  0.1202 -0.0845
  151MOL     C548305   7.270   1.413   4.214  0.1451 -0.2808 -0.3714
  151MOL     F648306   7.369   1.488   4.164 -0.0308  0.2055  0.1777
  151MOL     C748307   7.178   1.467   4.305 -0.4228  0.7456  0.2055
  151MOL     C848308   7.067   1.390   4.338  0.1744  0.2247 -0.1180
  151MOL     C948309   6.827   1.169   4.207 -0.0426 -0.1366  0.5967
  151MOL    H1048310   6.867   1.239   4.403 -1.2889 -0.3211 -1.0652
  151MOL    H1148311   7.130   1.112   4.145  0.5243 -0.3185 -0.4127
  151MOL    H1248312   7.337   1.244   4.104  0.2235 -1.4067  0.8252
  151MOL    H1348313   7.189   1.559   4.360 -0.8722  1.4480 -0.8785
  151MOL    H1448314   6.995   1.426   4.410  2.1782  1.5093  1.3230
  151MOL    H1548315   6.831   1.268   4.161  1.3944 -1.2997 -1.8549
  151MOL    H1648316   6.879   1.102   4.139  2.1726  1.8603  0.2304
  151MOL    H1748317   6.956   1.083   4.373  1.1311  0.9149  0.6750
  151MOL    C1848318   6.687   1.104   4.225 -0.4410 -0.3740  0.7464
  151MOL    C1948319   6.612   1.129   4.091  0.3760 -0.4671  0.3903
  151MOL    C2048320   6.667   1.095   3.967 -0.9065  0.3773 -0.0212
  151MOL    C2148321   6.599   1.112   3.847 -0.6208 -0.2904 -0.2672
  151MOL    C2248322   6.471   1.164   3.849  0.7589 -0.0494 -0.2930
  151MOL    F2348323   6.407   1.185   3.728 -0.3793  0.2700 -0.2228
  151MOL    C2448324   6.414   1.208   3.972  0.5277  0.5078 -0.0683
  151MOL    C2548325   6.484   1.187   4.092 -0.0483  0.6222 -0.9871
  151MOL    C2648326   6.689   0.962   4.285  0.7229 -0.0696  0.4570
  151MOL    H2748327   6.635   1.156   4.305  2.4141  1.4056  1.5328
  151MOL    H2848328   6.762   1.045   3.979 -1.8159 -0.7818  2.8133
  151MOL    H2948329   6.632   1.071   3.752 -2.4908 -2.1529 -0.1587
  151MOL    H3048330   6.316   1.252   3.979 -0.5438 -1.7692 -0.1540
  151MOL    H3148331   6.444   1.227   4.184  0.8298  0.6291 -0.6047
  151MOL    H3248332   6.727   0.896   4.207 -0.2690 -0.5087  0.3416
  151MOL    H3348333   6.762   0.940   4.364 -0.1886 -1.4390  0.9393
  151MOL    C3448334   6.540   0.914   4.318  0.7376  0.3655 -0.1260
  151MOL    C3548335   6.530   0.768   4.295 -0.0447  0.1110 -0.1807
  151MOL    C3648336   6.509   0.725   4.163  0.2974 -0.0039  1.1237
  151MOL    C3748337   6.480   0.593   4.123  0.4609 -0.1140  0.7381
  151MOL    C3848338   6.472   0.494   4.226  0.3119 -0.1845 -0.5596
  151MOL    F3948339   6.442   0.365   4.196 -0.2250  0.2283 -0.6953
  151MOL    C4048340   6.496   0.535   4.358  0.1173  0.0036 -0.5155
  151MOL    C4148341   6.538   0.667   4.388  0.7384  0.3928  0.5240
  151MOL    C4248342   6.493   0.966   4.460 -0.8352 -0.5439 -0.0528
  151MOL    H4348343   6.472   0.953   4.243  0.0181  0.7715  0.7276
  151MOL    H4448344   6.508   0.799   4.085 -1.5116 -1.5164 -0.3401
  151MOL    H4548345   6.461   0.562   4.021  2.8303 -0.9218  0.5072
  151MOL    H4648346   6.498   0.467   4.442 -1.3096  0.7560  0.1335
  151MOL    H4748347   6.570   0.680   4.490  0.9593 -3.7949  1.0727
  151MOL    H4848348   6.547   0.915   4.539 -0.2677 -1.1656 -0.8331
  151MOL    H4948349   6.509   1.073   4.471  0.1340 -0.6561 -0.3792
  151MOL    C5048350   6.340   0.940   4.496  0.0477  0.6256 -0.3015
  151MOL    C5148351   6.322   0.968   4.646  0.0956  0.2450  0.0758
  151MOL    C5248352   6.304   1.107   4.695  0.1286 -0.3237  0.4933
  151MOL    C5348353   6.286   1.137   4.832 -0.1509  0.3314  0.2342
  151MOL    C5448354   6.274   1.029   4.919  0.0153  0.4774  0.0169
  151MOL    F5548355   6.245   1.059   5.049 -0.1872  0.4596  0.4550
  151MOL    C5648356   6.290   0.898   4.873 -0.0980  0.4420 -0.4238
  151MOL    C5748357   6.313   0.863   4.735 -0.0562 -0.0892  0.0019
  151MOL    C5848358   6.240   0.999   4.400 -0.5016 -0.2449 -0.0044
  151MOL    H5948359   6.317   0.834   4.489  2.0296  0.2691 -2.0660
  151MOL    H6048360   6.306   1.189   4.625 -0.8659 -0.6626  0.0436
  151MOL    H6148361   6.270   1.235   4.873  1.2530  0.1248  1.3254
  151MOL    H6248362   6.267   0.813   4.937 -2.8640  0.8535 -0.8464
  151MOL    H6348363   6.315   0.760   4.704 -1.3539  0.0589 -0.6106
  151MOL    H6448364   6.264   1.105   4.402 -0.9532 -0.1503  0.7473
  151MOL    H6548365   6.251   0.963   4.298  1.4774 -1.3847  0.5963
  151MOL    C6648366   6.091   0.987   4.442 -0.1670  0.0225 -0.2821
  151MOL    C6748367   6.021   1.129   4.459  0.3808  0.5497 -0.0318
  151MOL    C6848368   6.042   1.224   4.353 -0.2521 -0.6345  0.1166
  151MOL    C6948369   5.998   1.360   4.367  0.2771  0.0949  0.3183
  151MOL    C7048370   5.944   1.404   4.490 -0.4483  0.4603  0.5452
  151MOL    F7148371   5.899   1.529   4.503  0.3926  0.3796 -0.1861
  151MOL    C7248372   5.915   1.310   4.597 -0.0567 -0.0855  0.2708
  151MOL    C7348373   5.962   1.176   4.578  0.1314 -0.4405  0.0232
  151MOL    C7448374   6.007   0.890   4.361  0.4228  0.1376 -0.1294
  151MOL    H7548375   6.103   0.950   4.544 -1.0093  1.1367  0.2202
  151MOL    H7648376   6.101   1.201   4.266 -1.5416 -2.8626 -0.1937
  151MOL    H7748377   6.028   1.430   4.290 -1.2223  0.2277 -0.1613
  151MOL    H7848378   5.890   1.346   4.696  2.0313 -1.3007  1.2704
  151MOL    H7948379   5.962   1.117   4.669 -0.8660  0.3560  0.5567
  151MOL    H8048380   5.904   0.911   4.391  0.3023 -0.7000  0.0665
  151MOL    H8148381   6.029   0.916   4.258  1.9129  2.9283  0.8576
  151MOL    C8248382   6.025   0.737   4.383 -0.1068  0.2892  0.0414
  151MOL    C8348383   6.042   0.694   4.524 -0.1825  0.1594  0.0314
  151MOL    C8448384   5.959   0.738   4.630  0.4781  0.8850 -0.4981
  151MOL    C8548385   5.978   0.688   4.762 -0.0277 -0.0518  0.0355
  151MOL    C8648386   6.081   0.603   4.789  0.1339 -0.0887  0.1393
  151MOL    F8748387   6.101   0.554   4.913 -0.1257 -0.0407  0.3790
  151MOL    C8848388   6.163   0.560   4.680  0.4566  0.0854 -0.3690
  151MOL    C8948389   6.140   0.601   4.550  0.9729  0.1461 -0.2588
  151MOL    C9048390   5.912   0.655   4.321  0.0005 -0.4255 -0.1242
  151MOL    H9148391   6.121   0.719   4.335  0.5263 -0.8234  1.7051
  151MOL    H9248392   5.884   0.812   4.607 -0.3381  0.7543  1.5887
  151MOL    H9348393   5.911   0.729   4.836  1.8416  0.7979  1.2792
  151MOL    H9448394   6.241   0.486   4.679  0.2713 -0.1347  1.0328
  151MOL    H9548395   6.205   0.569   4.470 -0.4180 -2.3246 -0.4396
  151MOL    H9648396   5.927   0.548   4.336  0.4557 -0.0589  2.2783
  151MOL    H9748397   5.815   0.671   4.367 -0.8003 -2.0499 -1.2070
  151MOL    C9848398   5.885   0.664   4.172  0.4290  0.1518  0.7022
  151MOL    C9948399   6.000   0.632   4.078 -0.0793  0.4927  0.0724
  151MOL   C10048400   6.070   0.506   4.087 -0.6817  0.1146 -0.2145
  151MOL   C10148401   6.174   0.484   3.984  0.6458 -0.6391  0.2192
  151MOL   C10248402   6.216   0.585   3.893 -0.2552  0.9084  0.7450
  151MOL   F10348403   6.319   0.552   3.810 -0.0900  0.2361 -0.5320
  151MOL   C10448404   6.143   0.705   3.891  0.2144 -0.8574 -0.2546
  151MOL   C10548405   6.035   0.725   3.973 -0.1110  0.3263  0.3921
  151MOL   C10648406   5.763   0.571   4.143 -0.4770 -0.7674 -0.3611
  151MOL   H10748407   5.857   0.769   4.162 -0.9985 -0.3792 -1.5066
  151MOL   H10848408   6.049   0.429   4.160  3.3427 -1.5647 -0.7026
  151MOL   H10948409   6.238   0.397   3.993  0.2802 -0.8675  0.6957
  151MOL   H11048410   6.175   0.774   3.814 -0.8472 -0.7746 -0.6320
  151MOL   H11148411   5.969   0.810   3.962  2.8486  2.6038 -0.4134
  151MOL   H11248412   5.800   0.468   4.152  0.3691 -0.4744 -0.4598
  151MOL   H11348413   5.687   0.593   4.219  1.1119  0.3604  0.9296
  151MOL   C11448414   5.692   0.591   4.008  0.0745 -0.7353  0.5096
  151MOL   C11548415   5.626   0.459   3.970  0.1904 -0.5290  0.2903
  151MOL   C11648416   5.513   0.412   4.031 -0.0102 -0.3912  0.0651
  151MOL   C11748417   5.456   0.291   3.983  0.3936 -0.3998 -0.2164
  151MOL   C11848418   5.521   0.211   3.886  0.0527 -0.1510  0.3805
  151MOL   F11948419   5.468   0.090   3.847 -0.3070 -0.2080 -0.4309
  151MOL   C12048420   5.642   0.250   3.828  0.0570  0.3651  0.1690
  151MOL   C12148421   5.693   0.378   3.867  0.3091  0.1541  0.1830
  151MOL   C12248422   5.595   0.712   4.004  0.4026 -0.3902  0.3716
  151MOL   H12348423   5.769   0.623   3.938 -0.5233  0.2847  0.3013
  151MOL   H12448424   5.461   0.476   4.101  0.4287 -0.8744  0.8314
  151MOL   H12548425   5.357   0.255   4.006  1.0238 -1.6208  0.6713
  151MOL   H12648426   5.697   0.181   3.766  0.0718 -0.9935  1.6592
  151MOL   H12748427   5.789   0.411   3.832  1.0347  0.4796  2.3886
  151MOL   H12848428   5.529   0.704   4.090 -1.0082 -1.5924 -0.7905
  151MOL   H12948429   5.664   0.793   4.031  1.6104 -1.4985  0.6896
  151MOL   C13048430   5.515   0.734   3.872 -0.1226  0.1406  0.0684
  151MOL   C13148431   5.389   0.809   3.890 -0.1761  0.0047 -0.4505
  151MOL   C13248432   5.264   0.752   3.848  0.5902  0.0075  0.2852
  151MOL   C13348433   5.140   0.825   3.852 -0.0115 -0.1124  0.0414
  151MOL   C13448434   5.144   0.951   3.897  0.8791 -0.5304 -0.1942
  151MOL   F13548435   5.036   1.027   3.883  0.0482 -0.3361  0.1633
  151MOL   C13648436   5.259   1.013   3.943 -0.7208  0.1642  0.2113
  151MOL   C13748437   5.379   0.933   3.947  0.2887  0.1388  0.0485
  151MOL   C13848438   5.602   0.798   3.766  0.4046  0.3478  0.1705
  151MOL   H13948439   5.487   0.636   3.833 -0.9154  0.3273  0.1450
  151MOL   H14048440   5.275   0.654   3.804 -0.6444 -0.5278  1.1311
  151MOL   H14148441   5.046   0.795   3.808 -0.4496 -1.4410  1.8230
  151MOL   H14248442   5.261   1.114   3.980 -1.1335  0.4969 -0.6658
  151MOL   H14348443   5.465   0.985   3.988 -0.0983  0.8446 -0.0366
  151MOL   H14448444   5.600   0.906   3.781 -1.1019 -0.0369  2.9898
  151MOL   H14548445   5.706   0.770   3.780  0.5286 -0.4624 -2.1414
  151MOL   C14648446   5.563   0.772   3.618 -0.2941 -0.1740 -0.0956
  151MOL   C14748447   5.626   0.873   3.534  0.2053 -1.2488  0.4996
  151MOL   C14848448   5.763   0.876   3.490 -0.1402 -0.2183 -0.5754
  151MOL   C14948449   5.816   0.980   3.407 -0.2223  0.1861  0.0516
  151MOL   C15048450   5.735   1.083   3.359 -0.0089  0.2133  0.1197
  151MOL   F15148451   5.779   1.171   3.266  0.3002  0.3573 -0.4060
  151MOL   C15248452   5.598   1.076   3.397 -0.2619 -0.0634 -0.0242
  151MOL   C15348453   5.542   0.974   3.483  0.2485 -0.4366 -0.1040
  151MOL   C15448454   5.610   0.632   3.579  0.9078  0.1710  0.3117
  151MOL   H15548455   5.455   0.768   3.604 -0.0641 -0.9798 -1.7018
  151MOL   H15648456   5.828   0.796   3.525 -0.5793  0.5667  2.1576
  151MOL   H15748457   5.920   0.970   3.381 -0.2392 -1.4148  0.4949
  151MOL   H15848458   5.523   1.137   3.348 -0.7284  1.1820  2.1771
  151MOL   H15948459   5.435   0.979   3.500  0.1014 -1.9879 -0.5381
  151MOL   H16048460   5.718   0.619   3.582  0.9520  0.3816 -0.3074
  151MOL   H16148461   5.588   0.561   3.659 -2.3629  0.7515 -0.0257
  151MOL   C16248462   5.567   0.586   3.439  0.6201 -0.0180 -0.6917
  151MOL   C16348463   5.682   0.563   3.346 -0.3688  0.0944 -0.2806
  151MOL   C16448464   5.784   0.464   3.376 -0.0511 -0.7461 -0.6074
  151MOL   C16548465   5.887   0.445   3.293  0.0667  0.2244  0.1843
  151MOL   C16648466   5.900   0.524   3.182  0.1233  0.1528  0.1901
  151MOL   F16748467   6.000   0.500   3.092  0.4153  0.2261  0.3125
  151MOL   C16848468   5.802   0.623   3.145 -0.1111  0.1249 -0.1449
  151MOL   C16948469   5.696   0.645   3.230  0.0006 -1.5925 -0.0449
  151MOL   C17048470   5.485   0.451   3.440  0.2946 -0.1981  0.7887
  151MOL   H17148471   5.510   0.668   3.397  0.3321  1.3418  2.2822
  151MOL   H17248472   5.777   0.405   3.466 -1.1645  0.1055 -0.1303
  151MOL   H17348473   5.966   0.377   3.321 -1.4594 -1.0272  1.5783
  151MOL   H17448474   5.813   0.673   3.050 -0.0170 -1.6168 -1.0725
  151MOL   H17548475   5.628   0.726   3.211  1.4662 -0.2923  0.1489
  151MOL   H17648476   5.462   0.411   3.341  1.2174 -0.5844  0.7303
  151MOL   H17748477   5.552   0.383   3.491 -1.5550  0.1764  3.8147
  151MOL   C17848478   5.347   0.456   3.514 -0.2408  0.1951 -0.1919
  151MOL   C17948479   5.247   0.535   3.431  0.2116 -0.4812  0.1439
  151MOL   C18048480   5.191   0.655   3.484 -1.0187  0.0550 -0.9510
  151MOL   C18148481   5.088   0.726   3.419  0.0067  0.0749  0.3655
  151MOL   C18248482   5.041   0.674   3.294  0.9733 -0.4840 -0.4973
  151MOL   F18348483   4.936   0.737   3.230 -0.1784 -0.6332  0.1540
  151MOL   C18448484   5.102   0.558   3.244  0.2781 -0.2598 -0.4298
  151MOL   C18548485   5.205   0.489   3.305  0.2741  0.1250  0.0571
  151MOL   C18648486   5.296   0.307   3.543  0.6956  0.0498  0.4844
  151MOL   H18748487   5.368   0.503   3.610 -0.0823  0.3284 -0.2929
  151MOL   H18848488   5.227   0.695   3.577 -1.4510  0.4639 -0.9579
  151MOL   H18948489   5.042   0.817   3.454 -0.1045  0.4058 -0.6156
  151MOL   H19048490   5.055   0.506   3.161 -1.4634  0.9780 -0.2443
  151MOL   H19148491   5.247   0.401   3.259 -1.2568 -0.4964 -0.1809
  151MOL   H19248492   5.289   0.253   3.449  1.3187 -1.5475  1.3441
  151MOL   H19348493   5.368   0.252   3.604  3.5067  2.2647 -0.7355
  151MOL   C19448494   5.150   0.305   3.610 -0.5239 -0.1065 -0.0521
  151MOL   C19548495   5.096   0.159   3.587 -0.1013  0.1212 -0.7973
  151MOL   C19648496   5.155   0.047   3.649 -0.2369 -0.4668 -0.7656
  151MOL   C19748497   5.095   8.151   3.640 -0.6580  0.3295  0.2891
  151MOL   C19848498   4.982   8.138   3.556  0.6915 -0.1788  0.3838
  151MOL   F19948499   4.922   8.018   3.549  0.0817 -0.2496  0.2227
  151MOL   C20048500   4.930   0.013   3.488 -0.7619 -0.1940  0.2960
  151MOL   C20148501   4.983   0.136   3.512 -0.5701  0.1410  0.3618
  151MOL   C20248502   5.155   0.351   3.754 -0.4817  0.1293 -0.0808
  151MOL   H20348503   5.084   0.372   3.555 -1.4449 -0.4637  0.6243
  151MOL   H20448504   5.239   0.061   3.714 -0.8264  1.7011 -0.4356
  151MOL   H20548505   5.140   8.068   3.693 -0.1978  0.2428 -0.2329
  151MOL   H20648506   4.852   0.011   3.413 -0.2005 -0.5852 -0.2779
  151MOL   H20748507   4.933   0.220   3.465  0.3012  0.3342 -0.2153
  151MOL   H20848508   5.238   0.303   3.805 -0.0541  0.6369 -0.2855
  151MOL   H20948509   5.169   0.459   3.750  2.5417 -0.1694  1.2972
  151MOL   C21048510   5.038   0.314   3.849 -0.2673  0.5817  0.1784
  151MOL   C21148511   5.069   0.293   3.996  0.5430 -0.1400 -0.0478
  151MOL   C21248512   5.102   0.406   4.078  0.3961  0.8815  0.6082
  151MOL   C21348513   5.171   0.387   4.201  1.0770  0.2166 -0.2333
  151MOL   C21448514   5.194   0.255   4.244  0.6638 -0.4551  0.3806
  151MOL   F21548515   5.269   0.235   4.349  0.1239  0.0534 -0.4048
  151MOL   C21648516   5.148   0.139   4.172  0.6587  0.4873  0.5621
  151MOL   C21748517   5.090   0.161   4.046 -0.4427  0.6300 -0.9151
  151MOL   C21848518   4.898   0.370   3.816 -0.4829 -0.0550 -1.5153
  151MOL   H21948519   5.014   0.212   3.820 -0.0879  0.8135 -0.8018
  151MOL   H22048520   5.086   0.508   4.044 -0.0582  0.7239  0.3444
  151MOL   H22148521   5.197   0.460   4.276  0.7598 -1.4096  1.5065
  151MOL   H22248522   5.177   0.044   4.215 -1.1812 -0.5697 -0.4569
  151MOL   H22348523   5.062   0.070   3.995 -0.7826 -0.8283  1.7903
  151MOL   H22448524   4.905   0.477   3.832  0.3162  0.0534 -2.4972
  151MOL   H22548525   4.885   0.362   3.708 -1.9479  0.8268 -1.4043
  151MOL   C22648526   4.778   0.308   3.888 -0.0884  0.6828 -0.4855
  151MOL   C22748527   4.773   0.346   4.037 -0.5455 -0.6442  0.2426
  151MOL   C22848528   4.766   0.480   4.079  0.0537  0.0236 -0.2981
  151MOL   C22948529   4.744   0.512   4.217  0.1348  0.7434  0.2797
  151MOL   C23048530   4.746   0.408   4.313  0.8213 -0.0516  0.0762
  151MOL   F23148531   4.722   0.432   4.443 -0.3138  0.1890 -0.0163
  151MOL   C23248532   4.751   0.272   4.272  0.5208 -0.1375  0.0215
  151MOL   C23348533   4.764   0.240   4.135  0.4318  0.0286 -0.1200
  151MOL   C23448534   4.640   0.325   3.817  1.0889 -0.4425  0.0214
  151MOL   H23548535   4.789   0.201   3.869  1.2321  1.1848 -2.6731
  151MOL   H23648536   4.787   0.554   4.003  2.2961 -1.1575 -0.8583
  151MOL   H23748537   4.730   0.615   4.243 -2.1837  0.3586  0.6298
  151MOL   H23848538   4.726   0.188   4.335 -0.3094 -0.8703 -1.2501
  151MOL   H23948539   4.770   0.140   4.096 -0.5917  0.4657 -1.4184
  151MOL   H24048540   4.562   0.329   3.893  1.0736 -0.0102 -0.0169
  151MOL   H24148541   4.654   0.425   3.778 -0.2558 -0.9488 -1.8177
  151MOL   C24248542   4.593   0.209   3.724 -0.1527 -0.4286 -0.4556
  151MOL   C24348543   4.576   0.078   3.811  0.4355 -0.4298 -0.0839
  151MOL   C24448544   4.639   8.198   3.764 -0.4685  0.0297 -0.6309
  151MOL   C24548545   4.622   8.074   3.831 -0.5931  0.5457 -0.5511
  151MOL   C24648546   4.538   8.066   3.945  0.0995  0.3082 -0.0399
  151MOL   F24748547   4.514   7.940   3.996 -0.3795 -0.2805 -0.3408
  151MOL   C24848548   4.487   8.186   4.002  0.3390  0.6041  0.0821
  151MOL   C24948549   4.500   0.072   3.934  0.3545  0.3160  0.2879
  151MOL   C25048550   4.464   0.231   3.644  0.3501 -0.9344  0.3319
  151MOL   H25148551   4.676   0.189   3.657 -0.7211  0.8339 -1.5751
  151MOL   H25248552   4.699   8.192   3.674  0.0888 -1.7021 -0.1655
  151MOL   H25348553   4.665   7.986   3.787 -0.3207  0.1719  0.4420
  151MOL   H25448554   4.433   8.179   4.095  1.0943 -2.0207  0.3639
  151MOL   H25548555   4.460   0.161   3.979 -2.2504  0.2013 -1.7594
  151MOL   H25648556   4.421   0.143   3.597 -0.3173 -0.0319 -0.7549
  151MOL   H25748557   4.380   0.271   3.700 -0.0732 -1.6096  0.1752
  151MOL   C25848558   4.469   0.343   3.537 -0.3345 -0.1633  0.5512
  151MOL   C25948559   4.584   0.326   3.437  1.1893  0.6376  0.2584
  151MOL   C26048560   4.674   0.437   3.426 -0.5230  0.4841  0.0849
  151MOL   C26148561   4.778   0.433   3.338  0.1438 -0.9631 -0.7336
  151MOL   C26248562   4.799   0.322   3.252 -0.3524  0.2220  0.1344
  151MOL   F26348563   4.897   0.327   3.159 -0.5959 -0.1660 -0.4209
  151MOL   C26448564   4.718   0.210   3.267  0.2911 -0.7686 -0.2295
  151MOL   C26548565   4.606   0.213   3.359 -0.3965  0.5211 -0.0959
  151MOL   C26648566   4.337   0.345   3.442 -0.0206  0.2253 -0.0373
  151MOL   H26748567   4.474   0.439   3.588  1.6229  1.3431 -2.2791
  151MOL   H26848568   4.660   0.527   3.485 -0.7582  0.7727 -0.4135
  151MOL   H26948569   4.840   0.522   3.337 -1.6516  0.3459  0.9851
  151MOL   H27048570   4.724   0.123   3.203  1.1708 -0.9087  0.0372
  151MOL   H27148571   4.541   0.126   3.358  1.7151 -1.0929 -0.0731
  151MOL   H27248572   4.356   0.414   3.360  0.6814 -0.3489 -0.3550
  151MOL   H27348573   4.335   0.251   3.387 -0.7507 -0.5628  1.3142
  151MOL   C27448574   4.206   0.389   3.520  1.1644  0.0636 -0.2078
  151MOL   C27548575   4.227   0.503   3.617  0.4200  0.4264 -0.1480
  151MOL   C27648576   4.195   0.490   3.755 -1.2059 -0.5718  0.5423
  151MOL   C27748577   4.203   0.598   3.842  0.0521  0.0797 -0.1863
  151MOL   C27848578   4.244   0.723   3.786 -0.0845 -0.8683 -0.7307
  151MOL   F27948579   4.265   0.834   3.865 -0.0139  0.4326 -0.1076
  151MOL   C28048580   4.267   0.740   3.643  0.1647  0.1332 -0.2406
  151MOL   C28148581   4.264   0.626   3.566  0.0565  0.2536 -0.2107
  151MOL   C28248582   4.080   0.412   3.427  0.2050 -0.3463  0.4801
  151MOL   H28348583   4.167   0.312   3.586 -3.4741 -0.3916 -3.2102
  151MOL   H28448584   4.172   0.391   3.793  0.1509  0.2682  3.7494
  151MOL   H28548585   4.183   0.584   3.947  0.3222  4.1349  0.5073
  151MOL   H28648586   4.290   0.842   3.613  2.0113  0.3572  1.8449
  151MOL   H28748587   4.276   0.632   3.459  0.9692  0.1362 -0.1230
  151MOL   H28848588   3.998   0.445   3.491  0.3003 -1.0963  0.9950
  151MOL   H28948589   4.105   0.495   3.361  3.5026 -0.5914  1.3193
  151MOL   C29048590   4.038   0.286   3.344  0.0434 -0.4546  0.2197
  151MOL   C29148591   3.999   0.163   3.438 -0.2080 -0.0320 -0.2292
  151MOL   C29248592   4.080   0.048   3.446 -0.2784 -0.3889  0.0405
  151MOL   C29348593   4.040   8.170   3.526 -0.2834 -0.1794  0.0611
  151MOL   C29448594   3.923   8.182   3.602 -0.2628 -0.2620 -0.5988
  151MOL   F29548595   3.881   8.077   3.686 -0.0715 -0.0646  0.0867
  151MOL   C29648596   3.849   0.066   3.599  0.4987  0.2192  0.3007
  151MOL   C29748597   3.880   0.174   3.514  0.4887  0.3123 -0.7069
  151MOL   C29848598   3.911   0.320   3.255 -0.5106  0.3564 -0.1629
  151MOL   H29948599   4.124   0.253   3.286  1.2293  0.3585  1.4709
  151MOL   H30048600   4.163   0.038   3.379  1.5522  0.8798  2.0568
  151MOL   H30148601   4.101   8.082   3.537  1.4351  0.8392 -1.1807
  151MOL   H30248602   3.758   0.071   3.656 -0.0227 -0.1297 -0.5044
  151MOL   H30348603   3.807   0.252   3.497  1.3261  0.8956 -1.7460
  151MOL   H30448604   3.847   0.232   3.247 -0.5524  0.1595  2.1516
  151MOL   H30548605   3.848   0.393   3.306 -3.6032 -1.9786 -0.4896
  151MOL   C30648606   3.946   0.370   3.108 -0.3500 -0.4476  0.2770
  151MOL   C30748607   4.025   0.269   3.020 -0.5779 -0.7802  0.2311
  151MOL   C30848608   3.981   0.135   3.020  0.4735 -0.4836 -0.0773
  151MOL   C30948609   4.051   0.048   2.928 -0.5017 -0.0957  0.0430
  151MOL   C31048610   4.162   0.096   2.850 -0.2833 -0.8892 -0.4243
  151MOL   F31148611   4.230   0.002   2.766  0.0081  0.1030 -0.1703
  151MOL   C31248612   4.214   0.223   2.860 -0.3768 -0.3414  0.1444
  151MOL   C31348613   4.138   0.317   2.942 -0.1049 -0.0651  0.1534
  151MOL   C31448614   3.820   0.418   3.043 -1.2062 -0.6342 -0.4712
  151MOL   H31548615   4.004   0.462   3.109 -1.2965  0.2016 -1.6865
  151MOL   H31648616   3.893   0.111   3.077  1.9129 -0.5105  2.2004
  151MOL   H31748617   4.006   8.185   2.919 -0.5632 -0.1699  1.0499
  151MOL   H31848618   4.312   0.241   2.819 -1.4112  0.4129 -2.0702
  151MOL   H31948619   4.177   0.415   2.965 -0.0676  0.2340 -1.1994
  151MOL   H32048620   3.743   0.342   3.034 -0.1821 -1.7492  0.0525
  151MOL   H32148621   3.781   0.501   3.103  1.2148 -0.5577  1.0657
  151MOL   H32248622   3.845   0.455   2.943  0.6243 -1.8405 -0.4723
  152MOL     C148623   5.315   1.885   5.088 -0.3116  0.3425 -0.1565
  152MOL     C248624   5.413   1.824   4.988  0.1169 -0.5215  0.1396
  152MOL     C348625   5.414   1.862   4.852  0.9065  0.2082 -0.0060
  152MOL     C448626   5.501   1.801   4.763  0.1365  0.1527 -0.0787
  152MOL     C548627   5.595   1.705   4.804 -0.2490  0.3764  0.6400
  152MOL     F648628   5.671   1.643   4.715 -0.1112 -0.1830 -0.6696
  152MOL     C748629   5.594   1.670   4.940  0.2274  0.6971 -0.3696
  152MOL     C848630   5.503   1.726   5.036 -0.3264  0.2077 -0.3942
  152MOL     C948631   5.350   2.024   5.139 -0.2771  0.3711  0.5986
  152MOL    H1048632   5.313   1.807   5.163 -0.0833  2.1762  1.8130
  152MOL    H1148633   5.350   1.943   4.820 -1.0342 -1.8912 -1.6498
  152MOL    H1248634   5.499   1.826   4.658  0.5994 -0.6936 -0.2896
  152MOL    H1348635   5.662   1.598   4.981 -0.7112  0.2005  0.3429
  152MOL    H1448636   5.512   1.694   5.139  2.4801  0.3614 -0.5561
  152MOL    H1548637   5.293   2.038   5.231  1.0068 -1.6498  1.7404
  152MOL    H1648638   5.454   2.028   5.172  0.6290 -1.0160 -1.9783
  152MOL    H1748639   5.217   1.891   5.041 -0.8055 -3.9391  0.1500
  152MOL    C1848640   5.324   2.144   5.049 -0.0783 -0.1348 -0.6835
  152MOL    C1948641   5.177   2.151   5.015  0.0985  0.0271  0.3306
  152MOL    C2048642   5.078   2.181   5.114  0.7573 -0.2389 -0.5539
  152MOL    C2148643   4.943   2.184   5.088 -0.2247  0.4126  0.2045
  152MOL    C2248644   4.899   2.164   4.959  1.0217 -0.1404  0.8381
  152MOL    F2348645   4.766   2.153   4.927  0.1508 -0.0535  0.1503
  152MOL    C2448646   4.995   2.154   4.857 -0.5960 -0.8050 -0.1662
  152MOL    C2548647   5.128   2.130   4.883 -0.9909  0.6439  0.5096
  152MOL    C2648648   5.375   2.274   5.116  0.3457 -0.1482  0.6831
  152MOL    H2748649   5.387   2.128   4.961 -0.0300 -0.7921 -0.5352
  152MOL    H2848650   5.100   2.208   5.216 -3.1020  0.4615  0.1729
  152MOL    H2948651   4.874   2.191   5.171 -0.7025 -0.5820 -0.1037
  152MOL    H3048652   4.962   2.147   4.754  0.6515 -3.9628 -0.4044
  152MOL    H3148653   5.187   2.106   4.796 -0.8207  0.9713  0.5321
  152MOL    H3248654   5.311   2.291   5.203  0.5501 -0.2654  0.8563
  152MOL    H3348655   5.473   2.259   5.161  0.8235  2.2769  0.4886
  152MOL    C3448656   5.388   2.395   5.023  0.5989  0.8996  0.5018
  152MOL    C3548657   5.385   2.529   5.103  0.4126  0.5118  0.2433
  152MOL    C3648658   5.497   2.564   5.178 -0.2330 -0.3088 -0.3880
  152MOL    C3748659   5.497   2.692   5.237  0.6797 -0.0715  0.2608
  152MOL    C3848660   5.386   2.780   5.227 -0.5580 -0.2718  0.2142
  152MOL    F3948661   5.383   2.904   5.285 -0.2691  0.0297 -0.5543
  152MOL    C4048662   5.275   2.736   5.150  0.3359  0.2439  0.1483
  152MOL    C4148663   5.274   2.613   5.085 -0.5219  0.4347  0.3116
  152MOL    C4248664   5.502   2.399   4.919 -0.3297 -0.2383 -0.0234
  152MOL    H4348665   5.296   2.398   4.964 -0.1565  0.2407  1.6326
  152MOL    H4448666   5.581   2.498   5.191 -2.6568 -3.3892 -0.0013
  152MOL    H4548667   5.576   2.730   5.301 -0.9161  1.2239  1.5028
  152MOL    H4648668   5.194   2.806   5.139 -0.1046 -0.6164 -2.5000
  152MOL    H4748669   5.185   2.585   5.031  0.8728 -0.3849 -1.6086
  152MOL    H4848670   5.595   2.428   4.967 -0.3141 -2.2291  1.2079
  152MOL    H4948671   5.515   2.291   4.907  1.7840 -0.1532  1.3264
  152MOL    C5048672   5.489   2.457   4.777 -0.4169 -0.5555  0.3452
  152MOL    C5148673   5.381   2.378   4.701 -0.5328  0.3149 -0.9598
  152MOL    C5248674   5.416   2.251   4.654  0.3354 -0.2392  0.3229
  152MOL    C5348675   5.321   2.176   4.578  0.9025  0.0564 -0.0253
  152MOL    C5448676   5.192   2.219   4.563 -0.0920  0.2056 -0.0222
  152MOL    F5548677   5.106   2.141   4.495  0.2177  0.6075 -0.4854
  152MOL    C5648678   5.153   2.345   4.611 -0.4046 -0.2850  0.5820
  152MOL    C5748679   5.253   2.421   4.683  0.4595  0.1687 -0.0707
  152MOL    C5848680   5.461   2.615   4.795 -0.0351 -0.5244  0.7201
  152MOL    H5948681   5.585   2.440   4.730 -1.5600 -0.5371 -2.1108
  152MOL    H6048682   5.515   2.210   4.671  1.6980  2.6717 -0.1460
  152MOL    H6148683   5.335   2.071   4.553 -0.1830 -0.2260  0.5303
  152MOL    H6248684   5.060   2.399   4.603 -0.7496 -0.7980  1.0714
  152MOL    H6348685   5.226   2.518   4.723 -1.1117 -0.3319  0.1142
  152MOL    H6448686   5.438   2.658   4.697  0.8648 -0.1999  0.6427
  152MOL    H6548687   5.388   2.632   4.873 -0.1174 -0.0397  0.5370
  152MOL    C6648688   5.596   2.686   4.829  0.2143 -0.1150  0.9398
  152MOL    C6748689   5.702   2.682   4.723  0.4007  0.1208  0.4822
  152MOL    C6848690   5.684   2.754   4.606 -0.0989  0.2702 -0.4871
  152MOL    C6948691   5.786   2.755   4.510  0.7360  0.3548  0.5653
  152MOL    C7048692   5.904   2.682   4.517  0.5084 -0.5204  0.7813
  152MOL    F7148693   6.002   2.692   4.424 -0.2354 -0.6730 -0.0550
  152MOL    C7248694   5.926   2.612   4.636 -0.1461  0.0062  0.1503
  152MOL    C7348695   5.825   2.614   4.739  0.5834  0.4168 -0.1421
  152MOL    C7448696   5.567   2.834   4.868  0.7658  0.1041  0.0679
  152MOL    H7548697   5.624   2.636   4.922 -1.7216 -0.4039  1.3950
  152MOL    H7648698   5.593   2.809   4.589 -0.6841 -1.2246 -2.3818
  152MOL    H7748699   5.784   2.810   4.417 -2.0496 -1.5112 -0.5472
  152MOL    H7848700   6.020   2.560   4.639  0.5763  1.2401 -0.9229
  152MOL    H7948701   5.847   2.554   4.826  0.1872  0.2182 -0.1776
  152MOL    H8048702   5.494   2.875   4.799  0.7946 -0.6211 -0.4024
  152MOL    H8148703   5.504   2.829   4.956  1.5170  0.5875  0.6411
  152MOL    C8248704   5.685   2.928   4.902 -0.4729  0.0965  0.1725
  152MOL    C8348705   5.630   3.071   4.889  0.3116 -0.4138  0.0441
  152MOL    C8448706   5.527   3.118   4.983 -0.4896  0.2559 -0.6818
  152MOL    C8548707   5.476   3.248   4.963  0.6267  0.5005 -0.0029
  152MOL    C8648708   5.525   3.331   4.859  0.1296  0.9439  0.4789
  152MOL    F8748709   5.474   3.457   4.836 -0.2950 -0.5260 -0.2372
  152MOL    C8848710   5.622   3.280   4.769 -0.0702  0.7244 -0.2404
  152MOL    C8948711   5.675   3.152   4.785 -0.8595 -0.3256 -0.2103
  152MOL    C9048712   5.764   2.901   5.036 -0.0057  0.5221 -0.3284
  152MOL    H9148713   5.759   2.914   4.823  0.4179  1.9661  0.6685
  152MOL    H9248714   5.490   3.060   5.066  1.5885  0.5973  0.4949
  152MOL    H9348715   5.394   3.279   5.027  0.3652 -0.9503  0.3777
  152MOL    H9448716   5.665   3.335   4.686  0.3238  2.1088  0.8543
  152MOL    H9548717   5.753   3.129   4.714  0.3238  1.9494  0.3101
  152MOL    H9648718   5.689   2.870   5.108 -1.4154  1.0118 -1.5705
  152MOL    H9748719   5.833   2.818   5.021 -0.6457 -0.2691  1.0173
  152MOL    C9848720   5.840   3.017   5.103  0.5549 -0.2668 -0.0291
  152MOL    C9948721   5.862   2.988   5.257 -0.2053  0.4758  0.7587
  152MOL   C10048722   5.758   2.998   5.347 -0.3650  0.3382 -0.1279
  152MOL   C10148723   5.772   2.966   5.486 -0.5890 -0.9275 -0.6796
  152MOL   C10248724   5.899   2.934   5.534  0.7029 -0.2094 -0.1700
  152MOL   F10348725   5.918   2.907   5.668  0.3795  0.1945  0.2189
  152MOL   C10448726   6.005   2.915   5.442 -0.0006  0.1622 -0.1706
  152MOL   C10548727   5.984   2.950   5.305 -0.9703 -0.0245 -0.7556
  152MOL   C10648728   5.962   3.068   5.021  0.0969 -0.2949 -1.3443
  152MOL   H10748729   5.769   3.099   5.100 -1.3723 -1.8438  0.8531
  152MOL   H10848730   5.662   3.033   5.312  0.1377  1.6346 -0.2055
  152MOL   H10948731   5.695   2.989   5.559 -0.2354  1.3679 -0.9764
  152MOL   H11048732   6.100   2.883   5.483  0.7392  2.0250 -0.3814
  152MOL   H11148733   6.071   2.940   5.241 -1.1448 -0.2068 -0.9633
  152MOL   H11248734   6.027   2.981   5.021 -0.2193 -0.5633 -3.6942
  152MOL   H11348735   5.934   3.073   4.916 -1.2257  1.1256 -0.9470
  152MOL   C11448736   6.035   3.194   5.070 -0.1372  0.3324 -0.8544
  152MOL   C11548737   6.183   3.168   5.066  0.3242 -0.9910  0.5905
  152MOL   C11648738   6.257   3.193   5.185  0.1182  0.0180 -0.0216
  152MOL   C11748739   6.398   3.178   5.187 -0.2470 -0.5328 -0.1766
  152MOL   C11848740   6.460   3.113   5.083 -0.2117 -0.3185  0.0058
  152MOL   F11948741   6.592   3.079   5.084  0.2502 -0.0007 -0.1512
  152MOL   C12048742   6.387   3.072   4.968 -0.0593  0.0660 -1.1144
  152MOL   C12148743   6.252   3.108   4.958  0.1450 -0.4277  0.7202
  152MOL   C12248744   6.008   3.324   4.985  0.4080  0.5291  0.0477
  152MOL   H12348745   5.995   3.198   5.171 -1.2134 -1.5916 -1.1646
  152MOL   H12448746   6.204   3.221   5.275 -0.3584 -1.5522  0.1999
  152MOL   H12548747   6.455   3.194   5.278 -1.8417  0.9103  0.5922
  152MOL   H12648748   6.441   3.022   4.889  2.1844  0.7188 -0.0117
  152MOL   H12748749   6.196   3.071   4.874 -1.4089  2.6701  0.3108
  152MOL   H12848750   6.035   3.286   4.886 -0.5504  2.4631 -0.9951
  152MOL   H12948751   5.899   3.328   4.977  0.5163 -0.1879 -2.0834
  152MOL   C13048752   6.087   3.460   5.032 -0.3180 -0.1157 -0.2410
  152MOL   C13148753   6.159   3.526   4.916  0.9331 -0.5168  0.1310
  152MOL   C13248754   6.096   3.623   4.838  0.0167 -0.2479  0.4620
  152MOL   C13348755   6.156   3.671   4.715  0.4878  0.1028 -1.2056
  152MOL   C13448756   6.287   3.629   4.684 -0.1827  0.2726  1.0465
  152MOL   F13548757   6.356   3.685   4.578 -0.4036 -0.6612  0.1516
  152MOL   C13648758   6.352   3.532   4.766 -0.3272  0.1260  0.4465
  152MOL   C13748759   6.283   3.479   4.880  0.2331  0.0403 -0.3422
  152MOL   C13848760   6.000   3.554   5.120  0.0840  0.4973 -0.0622
  152MOL   H13948761   6.169   3.426   5.095  1.7756 -0.5728 -3.1302
  152MOL   H14048762   5.997   3.666   4.849 -0.0013 -0.0984 -0.2121
  152MOL   H14148763   6.115   3.752   4.656 -0.3941  1.3781  1.1131
  152MOL   H14248764   6.454   3.513   4.738 -0.4224 -0.0765  0.2326
  152MOL   H14348765   6.335   3.401   4.933  0.6125  0.0395 -0.7142
  152MOL   H14448766   6.063   3.641   5.133 -0.0462  0.4743  0.6996
  152MOL   H14548767   5.914   3.576   5.056 -0.8450  1.3679  1.4679
  152MOL   C14648768   5.953   3.493   5.257  1.0003  0.1969 -0.0539
  152MOL   C14748769   6.056   3.438   5.355 -0.0429  0.2820 -0.6618
  152MOL   C14848770   6.028   3.317   5.425 -0.1178 -0.0686 -0.3797
  152MOL   C14948771   6.120   3.266   5.517 -0.2100 -0.6503 -0.6186
  152MOL   C15048772   6.247   3.321   5.530 -0.1458 -0.0589 -0.3208
  152MOL   F15148773   6.337   3.260   5.605  0.0035  0.0855  0.3174
  152MOL   C15248774   6.277   3.441   5.460 -0.3455 -0.1317 -0.2990
  152MOL   C15348775   6.174   3.501   5.384 -0.0565 -0.2370  0.3335
  152MOL   C15448776   5.868   3.604   5.325  0.4424 -0.0544  0.0877
  152MOL   H15548777   5.885   3.410   5.243  2.1221 -0.9158  1.0323
  152MOL   H15648778   5.929   3.276   5.416  0.4634 -1.3556 -0.9545
  152MOL   H15748779   6.098   3.183   5.583 -0.0486  0.0170  0.2859
  152MOL   H15848780   6.372   3.490   5.473 -0.2617 -0.3033 -0.2530
  152MOL   H15948781   6.215   3.590   5.339  0.4732 -1.1791 -1.0539
  152MOL   H16048782   5.885   3.605   5.433  0.1722  2.4994  0.1570
  152MOL   H16148783   5.907   3.701   5.293  0.2930 -0.2775 -0.7888
  152MOL   C16248784   5.716   3.587   5.294  0.3507  0.0578  0.1558
  152MOL   C16348785   5.640   3.476   5.372 -0.0831  0.5977 -0.7527
  152MOL   C16448786   5.563   3.380   5.308  0.3558  0.2843  0.4557
  152MOL   C16548787   5.498   3.276   5.376  0.2905  0.6416  0.5483
  152MOL   C16648788   5.511   3.269   5.515 -0.3235  0.7686  0.2592
  152MOL   F16748789   5.442   3.179   5.591 -0.2483  0.4580 -0.8485
  152MOL   C16848790   5.592   3.361   5.582  0.5936  0.0335 -0.0772
  152MOL   C16948791   5.659   3.466   5.511  0.1855  0.0544  0.1879
  152MOL   C17048792   5.645   3.718   5.319 -1.1572 -0.3024  0.5598
  152MOL   H17148793   5.686   3.572   5.190  0.3717 -0.6916  0.2524
  152MOL   H17248794   5.560   3.392   5.200 -0.1287 -2.3176  0.1555
  152MOL   H17348795   5.433   3.204   5.330  2.7473 -1.6545  0.5930
  152MOL   H17448796   5.602   3.354   5.689 -2.8170  1.9501  0.4239
  152MOL   H17548797   5.717   3.538   5.566  3.3116 -1.4978 -0.9722
  152MOL   H17648798   5.538   3.708   5.302 -0.7030 -0.4508 -2.5916
  152MOL   H17748799   5.657   3.730   5.427  1.6347 -0.0113  0.2474
  152MOL   C17848800   5.687   3.848   5.247  0.2907  0.3630 -0.1234
  152MOL   C17948801   5.721   3.826   5.106 -0.1960 -0.3130  0.1807
  152MOL   C18048802   5.637   3.759   5.017  0.2118  0.5408  0.2492
  152MOL   C18148803   5.658   3.754   4.876 -0.2895  0.4580 -0.5504
  152MOL   C18248804   5.768   3.814   4.819 -0.2266 -0.3907 -1.0788
  152MOL   F18348805   5.797   3.805   4.688  0.0621  0.3605  0.2987
  152MOL   C18448806   5.850   3.897   4.904 -0.3252 -0.1035  0.2040
  152MOL   C18548807   5.819   3.907   5.043  0.4237 -0.4672 -0.9651
  152MOL   C18648808   5.578   3.946   5.266 -0.1739 -0.0593 -0.4208
  152MOL   H18748809   5.770   3.888   5.306 -0.3221  1.1726  0.1986
  152MOL   H18848810   5.549   3.712   5.059 -0.5857  2.5494  0.8678
  152MOL   H18948811   5.590   3.695   4.817 -1.0793  0.6010  0.2069
  152MOL   H19048812   5.930   3.950   4.854 -1.1624 -0.1843 -1.2495
  152MOL   H19148813   5.881   3.976   5.097 -1.7449  0.3681  0.5266
  152MOL   H19248814   5.578   4.018   5.184  1.0929  1.8683  1.2148
  152MOL   H19348815   5.479   3.900   5.260  0.0486 -0.7370  0.8379
  152MOL   C19448816   5.594   4.035   5.392  0.1569  0.0593 -0.2954
  152MOL   C19548817   5.684   4.163   5.381  0.2217 -0.8352  0.6188
  152MOL   C19648818   5.653   4.258   5.286 -0.1088 -0.6742 -0.2347
  152MOL   C19748819   5.736   4.371   5.262 -0.1892  0.3710 -0.2730
  152MOL   C19848820   5.841   4.395   5.358 -0.8604  0.4850  0.7692
  152MOL   F19948821   5.920   4.508   5.351 -0.0992  0.0133 -0.0657
  152MOL   C20048822   5.872   4.290   5.456 -0.2211  0.1488 -0.2459
  152MOL   C20148823   5.796   4.174   5.465  0.1175  0.8537 -0.1868
  152MOL   C20248824   5.452   4.073   5.447  0.4445 -0.6845 -0.3296
  152MOL   H20348825   5.631   3.982   5.480 -3.3156  3.0765  3.1553
  152MOL   H20448826   5.559   4.253   5.234  1.2240  1.7442 -2.9728
  152MOL   H20548827   5.708   4.440   5.184  1.2456  2.1397  0.7377
  152MOL   H20648828   5.952   4.298   5.528 -0.0064  0.5373 -0.5256
  152MOL   H20748829   5.818   4.091   5.530  2.1228  1.4175 -0.1175
  152MOL   H20848830   5.472   4.159   5.512  1.1721 -1.0844 -0.0139
  152MOL   H20948831   5.393   4.111   5.364 -0.6223  3.0059  2.0023
  152MOL   C21048832   5.378   3.957   5.514  0.1213  0.0273  0.6650
  152MOL   C21148833   5.440   3.894   5.640 -0.6529 -0.1877 -0.4986
  152MOL   C21248834   5.491   3.975   5.743  0.5859  0.2194  0.1751
  152MOL   C21348835   5.554   3.923   5.860 -0.7155 -0.3140  0.3482
  152MOL   C21448836   5.573   3.788   5.867 -0.2110  0.1683  0.2853
  152MOL   F21548837   5.638   3.750   5.980  0.1748  0.3815 -0.1912
  152MOL   C21648838   5.528   3.702   5.763  0.1243  0.0690  0.0115
  152MOL   C21748839   5.457   3.751   5.643 -0.2516 -0.5070 -0.0253
  152MOL   C21848840   5.235   3.993   5.540 -0.3117 -0.0392 -0.4431
  152MOL   H21948841   5.365   3.878   5.440 -0.0071 -0.1080  0.8318
  152MOL   H22048842   5.480   4.082   5.732 -2.0235 -0.0192  0.2528
  152MOL   H22148843   5.589   3.987   5.939  0.5550 -0.5539 -0.0138
  152MOL   H22248844   5.542   3.596   5.778 -0.2968  0.2524  1.8697
  152MOL   H22348845   5.429   3.688   5.559 -0.4022  1.1349 -1.2407
  152MOL   H22448846   5.211   3.948   5.637  1.5525  0.2666  0.1709
  152MOL   H22548847   5.237   4.096   5.575  0.8985  0.0712 -0.8270
  152MOL   C22648848   5.123   3.972   5.434 -0.6772  0.1767  0.2370
  152MOL   C22748849   5.020   3.875   5.484  0.6795  0.0078 -0.6800
  152MOL   C22848850   4.930   3.913   5.586 -0.1640 -0.0012 -0.3547
  152MOL   C22948851   4.823   3.829   5.622 -0.0607 -0.6981  0.4343
  152MOL   C23048852   4.808   3.710   5.553  0.0881 -0.4933 -0.0692
  152MOL   F23148853   4.697   3.642   5.576  0.1175  0.1594 -0.0980
  152MOL   C23248854   4.891   3.670   5.447 -0.6764  0.1713  0.0909
  152MOL   C23348855   5.002   3.748   5.418  0.2907 -0.6620  0.0376
  152MOL   C23448856   5.057   4.105   5.389 -0.2180 -0.4083  0.3284
  152MOL   H23548857   5.163   3.934   5.340  1.1298 -0.5430  1.2825
  152MOL   H23648858   4.937   4.008   5.637 -0.4661  0.0122 -0.3355
  152MOL   H23748859   4.754   3.864   5.696 -0.6787  0.5187 -0.6988
  152MOL   H23848860   4.869   3.575   5.400  0.2786  0.0494 -0.1252
  152MOL   H23948861   5.070   3.723   5.338  0.7031  0.4076  0.0382
  152MOL   H24048862   4.967   4.072   5.337 -0.1678  1.0774 -0.7340
  152MOL   H24148863   5.033   4.151   5.485 -0.6212  0.0448  0.0097
  152MOL   C24248864   5.130   4.188   5.283 -0.8261  0.0277  0.2979
  152MOL   C24348865   5.175   4.114   5.154 -0.4353  0.6938 -0.0092
  152MOL   C24448866   5.081   4.029   5.089  0.5628  0.7302  0.0597
  152MOL   C24548867   5.115   3.958   4.973 -0.0718 -0.2167 -0.6439
  152MOL   C24648868   5.251   3.967   4.930  0.1638  0.3337  0.4422
  152MOL   F24748869   5.296   3.884   4.835  0.4536  0.4210  0.1742
  152MOL   C24848870   5.348   4.062   4.984  0.0017 -1.0290  0.1397
  152MOL   C24948871   5.305   4.136   5.095 -0.5381 -0.6699  0.7296
  152MOL   C25048872   5.043   4.307   5.244  0.6571 -0.5764  0.0857
  152MOL   H25148873   5.224   4.224   5.327  0.6050 -0.4423 -2.2344
  152MOL   H25248874   4.980   4.016   5.125  0.1229 -1.9291 -2.0159
  152MOL   H25348875   5.055   3.877   4.936 -0.0267 -0.9336  0.8347
  152MOL   H25448876   5.443   4.067   4.934 -0.0116 -2.7094 -0.0842
  152MOL   H25548877   5.371   4.216   5.127 -0.7021 -0.9040  1.6625
  152MOL   H25648878   4.955   4.269   5.192 -0.1225  1.5889 -0.2107
  152MOL   H25748879   5.012   4.351   5.339  0.5345 -1.1917  0.3333
  152MOL   C25848880   5.120   4.408   5.156 -0.0454  0.0787 -0.0826
  152MOL   C25948881   5.028   4.505   5.075  0.2594 -0.7628 -0.1910
  152MOL   C26048882   5.041   4.522   4.938  0.1365  1.0215  0.8628
  152MOL   C26148883   4.960   4.606   4.853  0.1497  0.4365 -0.2394
  152MOL   C26248884   4.855   4.682   4.919  0.6662  0.2883 -0.1341
  152MOL   F26348885   4.776   4.756   4.842 -0.2243 -0.1764  0.2830
  152MOL   C26448886   4.836   4.664   5.058 -0.0036  0.2050  0.0433
  152MOL   C26548887   4.925   4.585   5.134  0.3834  0.3886 -0.4047
  152MOL   C26648888   5.230   4.496   5.242  0.5159  0.4509  0.1080
  152MOL   H26748889   5.176   4.358   5.077  2.4670  1.6205  0.6678
  152MOL   H26848890   5.115   4.459   4.891 -1.7779 -1.9236  1.7032
  152MOL   H26948891   4.971   4.622   4.747  1.5768  0.4470 -0.0887
  152MOL   H27048892   4.756   4.721   5.103  0.1205  0.5418 -0.1591
  152MOL   H27148893   4.915   4.575   5.241 -0.6467 -0.1867 -0.5523
  152MOL   H27248894   5.171   4.544   5.320 -1.1365  1.2366 -1.5882
  152MOL   H27348895   5.300   4.425   5.286 -1.6882 -1.4915  0.5972
  152MOL   C27448896   5.302   4.601   5.158 -0.1514 -0.9009  0.7916
  152MOL   C27548897   5.348   4.718   5.240  0.2008  0.0613  0.2215
  152MOL   C27648898   5.423   4.698   5.357 -0.2408 -0.0036  0.0571
  152MOL   C27748899   5.470   4.816   5.428 -0.7088  0.6016 -0.0147
  152MOL   C27848900   5.452   4.942   5.373  0.0960  0.5866  0.6280
  152MOL   F27948901   5.513   5.044   5.433  0.5286  1.0347 -0.2361
  152MOL   C28048902   5.378   4.955   5.254  0.6630 -0.9365  0.0078
  152MOL   C28148903   5.315   4.846   5.194  0.0748  0.4032 -0.2838
  152MOL   C28248904   5.420   4.531   5.083 -1.1447 -0.7061  0.4336
  152MOL   H28348905   5.242   4.636   5.074  1.6771  1.6803  0.5162
  152MOL   H28448906   5.436   4.599   5.399 -0.0739  0.3603  0.8907
  152MOL   H28548907   5.526   4.817   5.520 -0.7776  0.0141  0.0373
  152MOL   H28648908   5.361   5.053   5.212 -1.2407 -0.9332  0.7192
  152MOL   H28748909   5.262   4.854   5.100  0.5449  0.4812 -0.5393
  152MOL   H28848910   5.492   4.508   5.161 -1.6597 -0.5447  0.9645
  152MOL   H28948911   5.382   4.439   5.039 -0.3704 -0.3587 -0.9804
  152MOL   C29048912   5.494   4.604   4.970 -0.1825  0.5261 -0.9823
  152MOL   C29148913   5.628   4.529   4.931  0.4239 -0.2812 -0.5969
  152MOL   C29248914   5.627   4.392   4.916 -0.6456 -0.3393  0.5002
  152MOL   C29348915   5.742   4.318   4.907  0.4680 -0.7026 -0.0460
  152MOL   C29448916   5.865   4.387   4.895  0.3633  0.2557 -0.3566
  152MOL   F29548917   5.971   4.305   4.878  0.0237  0.3720  0.2154
  152MOL   C29648918   5.877   4.528   4.903  0.2109  0.3775  0.0815
  152MOL   C29748919   5.752   4.600   4.919 -0.3753  0.3233 -0.1723
  152MOL   C29848920   5.411   4.642   4.854 -0.0006 -0.0225 -0.4580
  152MOL   H29948921   5.524   4.700   5.012  1.2630 -0.5956  0.6256
  152MOL   H30048922   5.541   4.327   4.917 -0.1625 -1.0132 -0.5494
  152MOL   H30148923   5.730   4.214   4.881 -0.2587 -0.2562 -1.5141
  152MOL   H30248924   5.970   4.580   4.889  0.7671 -0.2890  1.1544
  152MOL   H30348925   5.749   4.708   4.910  0.7276  0.3755 -0.0158
  152MOL   H30448926   5.352   4.561   4.812 -0.4274 -0.3640  0.7953
  152MOL   H30548927   5.331   4.708   4.887 -0.3352 -0.9644  0.6448
  152MOL   C30648928   5.488   4.719   4.749  0.6695  0.7763  0.0438
  152MOL   C30748929   5.425   4.708   4.614  0.8147  0.0138  0.0948
  152MOL   C30848930   5.285   4.707   4.597  0.5078 -1.1018 -0.5392
  152MOL   C30948931   5.218   4.702   4.480  0.4026  0.3951 -0.2029
  152MOL   C31048932   5.297   4.711   4.362  0.0337  0.2710 -0.1614
  152MOL   F31148933   5.235   4.696   4.240  0.0841  0.0890  0.1080
  152MOL   C31248934   5.439   4.719   4.367 -0.8377 -0.1657  0.0023
  152MOL   C31348935   5.496   4.710   4.495  0.2401 -0.3005 -1.0566
  152MOL   C31448936   5.524   4.865   4.788  0.1182 -0.3415 -0.3437
  152MOL   H31548937   5.581   4.669   4.720 -0.5227 -2.2841  1.3240
  152MOL   H31648938   5.219   4.711   4.683  0.2972  3.1133 -0.7492
  152MOL   H31748939   5.111   4.689   4.481  0.4327  0.1307 -0.3382
  152MOL   H31848940   5.506   4.709   4.283 -2.1297  0.7480 -1.1571
  152MOL   H31948941   5.603   4.712   4.507  0.1226 -2.0206  0.5818
  152MOL   H32048942   5.567   4.883   4.887 -0.7877  1.7509 -0.3108
  152MOL   H32148943   5.592   4.901   4.711  1.6813  0.0858  1.1929
  152MOL   H32248944   5.432   4.923   4.781 -0.3126 -1.2040 -2.1820
  153MOL     C148945   3.826   1.822   6.940  0.4751  0.3287  0.0379
  153MOL     C248946   3.906   1.901   7.043  0.5545 -0.0421 -1.0707
  153MOL     C348947   4.044   1.877   7.061 -0.9355 -0.0335  0.6102
  153MOL     C448948   4.121   1.964   7.144  0.0315 -0.0830  0.0707
  153MOL     C548949   4.053   2.054   7.220 -0.1536 -0.1955  0.0163
  153MOL     F648950   4.125   2.124   7.307  0.4276  0.0476 -0.3486
  153MOL     C748951   3.910   2.076   7.206 -0.1369  0.4008 -0.2684
  153MOL     C848952   3.836   1.991   7.122  0.0607 -0.8706  0.1952
  153MOL     C948953   3.764   1.697   7.004  0.2237 -0.5510 -0.0568
  153MOL    H1048954   3.880   1.780   6.856  0.6989  0.0779  0.3068
  153MOL    H1148955   4.097   1.800   7.005 -1.0574  0.2955  0.0427
  153MOL    H1248956   4.226   1.947   7.161  0.3066  1.2500 -0.1880
  153MOL    H1348957   3.873   2.156   7.268 -0.0799  1.0230 -1.0302
  153MOL    H1448958   3.729   1.998   7.113  0.2277  1.2825 -0.4422
  153MOL    H1548959   3.733   1.628   6.926 -2.5445 -1.5078  1.8116
  153MOL    H1648960   3.844   1.645   7.057 -0.3568 -1.7953 -0.3977
  153MOL    H1748961   3.744   1.881   6.900  0.1882 -0.3187 -0.3397
  153MOL    C1848962   3.647   1.722   7.097 -0.2972 -1.1888 -0.4905
  153MOL    C1948963   3.525   1.766   7.024 -0.7544  0.1623  0.0620
  153MOL    C2048964   3.475   1.897   7.043  0.3324 -0.1075  0.2367
  153MOL    C2148965   3.354   1.937   6.977  0.2536  0.1257 -0.4732
  153MOL    C2248966   3.282   1.842   6.897 -0.1471  0.3139 -0.4166
  153MOL    F2348967   3.159   1.874   6.849  0.2652  0.0596  0.1344
  153MOL    C2448968   3.326   1.705   6.897  0.2272 -0.0337 -0.0725
  153MOL    C2548969   3.456   1.671   6.946 -0.3406  0.7194 -0.0203
  153MOL    C2648970   3.622   1.594   7.183  0.1178 -0.1094 -0.0693
  153MOL    H2748971   3.677   1.796   7.171 -2.0238 -0.7963 -0.1617
  153MOL    H2848972   3.520   1.961   7.118  0.5405  1.5983 -1.3130
  153MOL    H2948973   3.311   2.036   6.975  0.8787  0.4671  1.7337
  153MOL    H3048974   3.262   1.632   6.850  2.3933 -1.4999 -0.8621
  153MOL    H3148975   3.496   1.574   6.921  0.0742  1.0341 -0.6117
  153MOL    H3248976   3.619   1.512   7.111  0.1180  0.0665 -0.2693
  153MOL    H3348977   3.703   1.567   7.250 -0.5243  0.9783  1.1974
  153MOL    C3448978   3.490   1.587   7.270 -0.9444  0.0122 -0.6028
  153MOL    C3548979   3.486   1.458   7.352 -0.7387  0.3835  0.0195
  153MOL    C3648980   3.595   1.431   7.441  0.1085  0.7125  0.0064
  153MOL    C3748981   3.597   1.330   7.536 -0.5204 -0.3272  0.1940
  153MOL    C3848982   3.496   1.235   7.538  0.6698  0.2619  0.8233
  153MOL    F3948983   3.470   1.154   7.640  0.5093 -0.0045 -0.1083
  153MOL    C4048984   3.385   1.256   7.453 -0.2824 -0.3676 -0.5958
  153MOL    C4148985   3.376   1.362   7.367 -0.0819  0.9755  0.2749
  153MOL    C4248986   3.481   1.708   7.362 -0.1431  0.3801  0.1700
  153MOL    H4348987   3.408   1.583   7.198  0.2586  2.0799 -2.1631
  153MOL    H4448988   3.675   1.503   7.446  0.0539  0.6696  2.1460
  153MOL    H4548989   3.676   1.315   7.609  0.8631  1.2392 -0.9575
  153MOL    H4648990   3.297   1.194   7.464 -1.3863  1.1008 -1.0227
  153MOL    H4748991   3.288   1.363   7.305 -0.3737 -1.8842  0.5861
  153MOL    H4848992   3.548   1.690   7.446 -0.7713 -1.2411  0.3524
  153MOL    H4948993   3.517   1.804   7.324  1.2104 -0.8951 -1.9016
  153MOL    C5048994   3.338   1.729   7.411 -0.2697 -0.4536 -0.0900
  153MOL    C5148995   3.333   1.748   7.561  0.4832 -0.4548  0.0234
  153MOL    C5248996   3.324   1.636   7.644  0.1244  0.4841  0.1372
  153MOL    C5348997   3.332   1.651   7.784  0.2860 -0.1472  0.0496
  153MOL    C5448998   3.339   1.781   7.840 -0.3562  0.5166  0.5124
  153MOL    F5548999   3.340   1.806   7.976  0.1451  0.1004  0.2413
  153MOL    C5649000   3.343   1.892   7.755 -0.3914 -0.2632 -0.1634
  153MOL    C5749001   3.337   1.881   7.612 -0.1746 -0.6116 -0.2072
  153MOL    C5849002   3.262   1.827   7.314 -0.9417  0.0862 -0.0308
  153MOL    H5949003   3.280   1.639   7.396  0.6307 -0.7225 -2.0546
  153MOL    H6049004   3.308   1.535   7.609 -2.3352  0.7456  0.4322
  153MOL    H6149005   3.314   1.562   7.842  0.8132 -0.0403  0.3815
  153MOL    H6249006   3.346   1.988   7.804  0.6891 -0.6181  0.4721
  153MOL    H6349007   3.344   1.973   7.555  2.3400  1.7232  3.6014
  153MOL    H6449008   3.307   1.927   7.312 -0.7494  0.0492  1.9990
  153MOL    H6549009   3.278   1.796   7.210  2.4508 -0.7234  0.6749
  153MOL    C6649010   3.110   1.841   7.333  0.1280 -0.7370 -0.0251
  153MOL    C6749011   3.052   1.960   7.252  0.0971  0.3318 -0.8649
  153MOL    C6849012   3.023   2.084   7.320  0.2704 -0.4718  1.0816
  153MOL    C6949013   2.959   2.190   7.244  0.4093 -0.9813  0.3982
  153MOL    C7049014   2.913   2.165   7.111 -0.0877  0.6270 -0.1564
  153MOL    F7149015   2.861   2.266   7.052 -0.2062 -0.0334 -0.1344
  153MOL    C7249016   2.930   2.035   7.054 -0.9583 -0.0459  0.4229
  153MOL    C7349017   3.018   1.942   7.118  0.4095  0.1817 -0.1110
  153MOL    C7449018   3.034   1.703   7.335  0.0436  1.0155  0.4114
  153MOL    H7549019   3.107   1.881   7.435  0.0496 -2.3837  0.6245
  153MOL    H7649020   3.049   2.101   7.423  1.4033 -0.6542  0.8288
  153MOL    H7749021   2.950   2.288   7.288  2.6122 -1.1791  1.3702
  153MOL    H7849022   2.883   2.015   6.959 -1.0793  1.0030  0.2610
  153MOL    H7949023   3.041   1.845   7.077 -0.7380  0.4143 -1.3599
  153MOL    H8049024   3.069   1.644   7.250 -2.0437  1.5036 -0.8254
  153MOL    H8149025   3.081   1.658   7.422  0.4463 -0.0198 -0.3219
  153MOL    C8249026   2.884   1.688   7.364 -0.2575 -0.2800 -0.3045
  153MOL    C8349027   2.850   1.553   7.399 -0.1290 -0.3439  0.1870
  153MOL    C8449028   2.910   1.502   7.517 -0.0324  0.1832 -0.7012
  153MOL    C8549029   2.886   1.371   7.557 -0.0215  0.5311 -0.3643
  153MOL    C8649030   2.797   1.292   7.481 -0.0765 -0.2694  1.2417
  153MOL    F8749031   2.785   1.162   7.511 -0.1702 -0.4027  0.0993
  153MOL    C8849032   2.728   1.343   7.364 -0.2840 -0.1055  0.3377
  153MOL    C8949033   2.765   1.471   7.321  0.0336 -0.0689 -0.2043
  153MOL    C9049034   2.840   1.793   7.471 -0.5377  0.6205  0.2716
  153MOL    H9149035   2.825   1.701   7.274 -1.7421  0.4218  0.7385
  153MOL    H9249036   2.982   1.562   7.571 -0.8169  1.0680 -0.6103
  153MOL    H9349037   2.948   1.319   7.629  2.2618 -1.0441 -3.3618
  153MOL    H9449038   2.660   1.280   7.308 -0.3365  1.2872 -1.2100
  153MOL    H9549039   2.723   1.508   7.229 -1.3956 -2.3253 -0.4777
  153MOL    H9649040   2.886   1.774   7.568  1.3648 -1.2637 -0.9557
  153MOL    H9749041   2.884   1.886   7.435  0.3529 -1.2682 -3.7853
  153MOL    C9849042   2.687   1.816   7.485  0.8167  0.0788 -0.1192
  153MOL    C9949043   2.635   1.906   7.369  0.7613  0.6841  0.3874
  153MOL   C10049044   2.564   1.850   7.271 -0.5447 -0.4619  0.2447
  153MOL   C10149045   2.522   1.922   7.162 -0.2961  0.1071 -0.0195
  153MOL   C10249046   2.553   2.055   7.144 -0.1070 -0.3145  0.3123
  153MOL   F10349047   2.507   2.119   7.033  0.0112  0.7592  0.1205
  153MOL   C10449048   2.618   2.118   7.249 -0.2718  0.2368  0.8059
  153MOL   C10549049   2.657   2.041   7.355 -0.6399 -0.2509 -0.4536
  153MOL   C10649050   2.606   1.687   7.520 -0.0165 -0.2475 -0.2708
  153MOL   H10749051   2.671   1.876   7.574  3.0390  1.0239 -0.3217
  153MOL   H10849052   2.544   1.744   7.262  1.0531 -0.6554 -1.2725
  153MOL   H10949053   2.471   1.861   7.088 -1.6279 -0.4157  1.2917
  153MOL   H11049054   2.645   2.222   7.247 -1.4801  0.5579  0.4667
  153MOL   H11149055   2.722   2.090   7.426  1.0215 -0.8613 -1.4982
  153MOL   H11249056   2.612   1.627   7.430 -0.9163 -1.3802  0.3940
  153MOL   H11349057   2.670   1.635   7.592  1.3525  0.8594 -0.6709
  153MOL   C11449058   2.459   1.711   7.565 -0.0901  0.3381 -0.3517
  153MOL   C11549059   2.375   1.593   7.514  0.3240  0.5445 -0.2021
  153MOL   C11649060   2.301   1.607   7.393  0.6304 -0.5696  0.2783
  153MOL   C11749061   2.244   1.492   7.335 -0.2587 -0.2544  0.5495
  153MOL   C11849062   2.241   1.369   7.404 -0.4819 -0.2946 -0.0852
  153MOL   F11949063   2.167   1.266   7.358  0.3433  0.4057  0.6107
  153MOL   C12049064   2.310   1.357   7.527  0.7832  1.0581 -0.1294
  153MOL   C12149065   2.378   1.467   7.580  0.1787 -0.5016 -0.0319
  153MOL   C12249066   2.450   1.733   7.722  0.2983  0.5130  0.5600
  153MOL   H12349067   2.420   1.800   7.515  1.4822  0.0385 -2.1997
  153MOL   H12449068   2.294   1.708   7.354  0.8851 -0.8275 -0.4444
  153MOL   H12549069   2.185   1.496   7.244 -0.1166  0.8620  0.5093
  153MOL   H12649070   2.309   1.263   7.582 -0.2394  1.8123  1.1676
  153MOL   H12749071   2.450   1.456   7.660  2.6925  1.5121 -1.9248
  153MOL   H12849072   2.515   1.658   7.767 -0.3827  0.4909  1.5176
  153MOL   H12949073   2.508   1.823   7.744 -0.1596  1.1360 -0.7243
  153MOL   C13049074   2.313   1.717   7.783  1.2100  0.0253  0.6251
  153MOL   C13149075   2.320   1.708   7.937  0.0434 -0.5210  0.3070
  153MOL   C13249076   2.298   1.580   7.997  0.3538 -0.6719 -0.3163
  153MOL   C13349077   2.325   1.560   8.133 -0.3890 -0.2094 -0.0159
  153MOL   C13449078   2.379   1.660   8.208  0.6646  0.0892  0.2827
  153MOL   F13549079   2.388   1.629   0.108 -0.4747 -0.0027  0.1210
  153MOL   C13649080   2.388   1.787   8.156  0.6241 -0.1618  0.3299
  153MOL   C13749081   2.361   1.813   8.018  0.3181 -0.5666 -0.3983
  153MOL   C13849082   2.213   1.828   7.737 -0.1741  0.3870  0.4085
  153MOL   H13949083   2.268   1.620   7.763 -1.2717  1.4201 -0.8587
  153MOL   H14049084   2.268   1.490   7.947  0.7682  0.3886 -2.5287
  153MOL   H14149085   2.325   1.460   8.174  1.4856 -0.5849 -0.8736
  153MOL   H14249086   2.408   1.868   8.224  0.0631 -0.9060  1.3851
  153MOL   H14349087   2.379   1.916   7.990 -0.6254 -1.1213 -3.1848
  153MOL   H14449088   2.195   1.893   7.823 -0.6117  1.0443 -0.1750
  153MOL   H14549089   2.260   1.893   7.663  1.0086 -0.2538  0.5844
  153MOL   C14649090   2.078   1.779   7.685  0.5242 -0.2077  0.0112
  153MOL   C14749091   2.024   1.655   7.755  0.6032  0.4808 -0.0498
  153MOL   C14849092   2.010   1.656   7.894  0.0346 -0.3406  0.4721
  153MOL   C14949093   1.956   1.541   7.958  0.0460 -0.6243 -0.5017
  153MOL   C15049094   1.911   1.439   7.874  0.1080 -0.2228 -0.7344
  153MOL   F15149095   1.841   1.330   7.924  0.6838 -0.0422 -0.3589
  153MOL   C15249096   1.926   1.443   7.735 -0.1792 -0.0994 -0.3625
  153MOL   C15349097   1.981   1.554   7.672 -0.4884  0.0795 -0.0377
  153MOL   C15449098   1.966   1.882   7.687 -0.3705 -0.5398 -0.5275
  153MOL   H15549099   2.091   1.759   7.578 -0.5544 -0.4118 -0.0914
  153MOL   H15649100   2.035   1.743   7.954  0.0299 -0.0634  0.0780
  153MOL   H15749101   1.927   1.530   8.062  1.3173 -1.9084 -0.2600
  153MOL   H15849102   1.874   1.373   7.671 -1.2378 -1.2830  1.7343
  153MOL   H15949103   1.984   1.554   7.564  0.5789 -1.3858 -0.0311
  153MOL   H16049104   1.878   1.825   7.657  1.3980 -2.5458 -2.0303
  153MOL   H16149105   1.944   1.908   7.791  2.6483 -0.1318  0.0401
  153MOL   C16249106   1.968   2.017   7.603 -0.9937 -0.1587 -0.6095
  153MOL   C16349107   2.030   2.012   7.465 -0.5257  0.9018  0.5695
  153MOL   C16449108   1.960   1.940   7.368 -0.0199 -0.0105 -0.1554
  153MOL   C16549109   2.011   1.923   7.240  0.0976  0.0499  0.2159
  153MOL   C16649110   2.140   1.973   7.204 -0.0708 -0.3260  0.8500
  153MOL   F16749111   2.198   1.956   7.083 -0.5510 -0.0779 -0.2525
  153MOL   C16849112   2.211   2.041   7.304 -0.5273 -0.3562 -0.2448
  153MOL   C16949113   2.160   2.065   7.433  0.2069 -0.0092 -1.0892
  153MOL   C17049114   1.832   2.092   7.595  0.3949 -0.2968 -0.6759
  153MOL   H17149115   2.040   2.076   7.659  0.1569 -2.0082 -0.0797
  153MOL   H17249116   1.858   1.916   7.393  0.2896  1.5088  2.7743
  153MOL   H17349117   1.948   1.866   7.172  0.0905  2.2061 -1.6323
  153MOL   H17449118   2.313   2.074   7.289 -0.9574  0.2672 -1.8479
  153MOL   H17549119   2.218   2.125   7.503 -1.9112 -0.0183  0.7340
  153MOL   H17649120   1.768   2.050   7.518 -0.0696 -0.8796  0.0201
  153MOL   H17749121   1.772   2.079   7.685 -3.3528  0.8726 -2.9064
  153MOL   C17849122   1.821   2.245   7.566 -1.1278 -0.3594  0.5291
  153MOL   C17949123   1.929   2.324   7.649 -0.0220 -0.8315 -0.4844
  153MOL   C18049124   2.060   2.357   7.604 -0.7800 -0.3569 -1.1413
  153MOL   C18149125   2.149   2.435   7.679  0.0952 -0.3982 -0.0655
  153MOL   C18249126   2.099   2.493   7.798 -0.4421 -0.3805  0.4443
  153MOL   F18349127   2.173   2.574   7.873 -0.2400 -0.0285 -0.3142
  153MOL   C18449128   1.969   2.467   7.836 -0.0209 -0.1643  0.1474
  153MOL   C18549129   1.888   2.378   7.770 -0.2937 -0.0379  0.2312
  153MOL   C18649130   1.830   2.284   7.424 -0.6406  0.0826  0.1206
  153MOL   H18749131   1.723   2.284   7.595 -1.9978 -1.0344 -1.3874
  153MOL   H18849132   2.100   2.323   7.510  1.4209 -4.4486  1.1372
  153MOL   H18949133   2.250   2.454   7.645 -0.5963  0.7667 -1.4703
  153MOL   H19049134   1.927   2.509   7.926  0.0368  1.0977 -0.3945
  153MOL   H19149135   1.790   2.370   7.815  0.2733 -0.8996  1.3328
  153MOL   H19249136   1.848   2.392   7.421 -0.6873  0.0937  0.2612
  153MOL   H19349137   1.922   2.236   7.389 -0.2481 -1.0889  2.6627
  153MOL   C19449138   1.720   2.244   7.327  0.7765  0.5094  0.8000
  153MOL   C19549139   1.576   2.257   7.378  1.0809  0.2346  0.6575
  153MOL   C19649140   1.523   2.374   7.443 -0.4111  0.1100  0.0873
  153MOL   C19749141   1.388   2.380   7.495  0.4067 -0.7277 -0.1989
  153MOL   C19849142   1.300   2.271   7.479  0.2345 -0.2291  0.0122
  153MOL   F19949143   1.172   2.287   7.508  0.0425  0.2887  0.2913
  153MOL   C20049144   1.348   2.156   7.428 -0.5935 -0.6618  0.6541
  153MOL   C20149145   1.483   2.150   7.368  0.0529 -0.2678 -0.1024
  153MOL   C20249146   1.729   2.336   7.200  0.0370  0.1514 -0.7849
  153MOL   H20349147   1.743   2.141   7.301  0.3397  0.3063  1.2227
  153MOL   H20449148   1.579   2.463   7.467 -1.6662  0.2227  2.7558
  153MOL   H20549149   1.358   2.461   7.560 -0.2590 -0.7360 -0.4866
  153MOL   H20649150   1.277   2.076   7.419 -0.2415 -0.9875  0.7336
  153MOL   H20749151   1.521   2.057   7.328  1.2625 -0.5396  1.6279
  153MOL   H20849152   1.692   2.436   7.226  0.4221  0.3117 -0.8477
  153MOL   H20949153   1.827   2.365   7.161  0.6256 -1.4763 -0.5506
  153MOL   C21049154   1.632   2.294   7.089  0.6044  1.2499 -0.5359
  153MOL   C21149155   1.553   2.417   7.034  0.9262  0.0992 -0.1530
  153MOL   C21249156   1.615   2.504   6.942  0.2592 -0.3191  0.1637
  153MOL   C21349157   1.544   2.611   6.881  0.7706 -0.6128 -0.1304
  153MOL   C21449158   1.415   2.642   6.928 -0.2051 -0.2704 -0.1502
  153MOL   F21549159   1.356   2.758   6.894 -0.3821 -0.2021 -0.2575
  153MOL   C21649160   1.353   2.560   7.018  0.2125  0.2470 -0.2897
  153MOL   C21749161   1.418   2.442   7.063 -0.3317 -0.1103  0.8195
  153MOL   C21849162   1.702   2.211   6.978 -0.3100 -0.1060 -0.1659
  153MOL   H21949163   1.556   2.227   7.127  0.8836  0.3397 -1.5371
  153MOL   H22049164   1.719   2.493   6.914  0.0426 -0.2050 -0.6957
  153MOL   H22149165   1.583   2.684   6.811  0.9792  1.5632  2.1706
  153MOL   H22249166   1.250   2.580   7.043 -0.3299  0.8565 -2.9008
  153MOL   H22349167   1.366   2.384   7.138 -1.9574 -0.2262 -0.3754
  153MOL   H22449168   1.779   2.261   6.920  1.9449 -2.7523  0.4626
  153MOL   H22549169   1.772   2.140   7.021 -1.4592 -0.7112  0.7260
  153MOL   C22649170   1.607   2.130   6.887 -0.5600 -0.8620 -0.1819
  153MOL   C22749171   1.526   2.033   6.976 -0.7400  0.9455 -0.0217
  153MOL   C22849172   1.402   2.067   7.032  0.3173 -0.5409  0.1794
  153MOL   C22949173   1.331   1.987   7.123  0.4255 -0.2689 -1.1003
  153MOL   C23049174   1.390   1.866   7.158 -0.3047  0.0129 -0.0262
  153MOL   F23149175   1.321   1.769   7.236  0.0464 -0.1695 -0.0253
  153MOL   C23249176   1.517   1.832   7.109  0.0739 -0.3158 -0.0105
  153MOL   C23349177   1.590   1.918   7.023  0.5887  0.1466  0.1033
  153MOL   C23449178   1.523   2.212   6.781  0.3025 -0.1552  0.4741
  153MOL   H23549179   1.667   2.062   6.827 -1.6630 -2.3083  0.3218
  153MOL   H23649180   1.357   2.163   7.012 -0.1925  0.0054  3.6332
  153MOL   H23749181   1.231   2.018   7.151  1.0399  0.7194  0.0786
  153MOL   H23849182   1.559   1.739   7.144 -0.8403 -1.5014 -2.0401
  153MOL   H23949183   1.680   1.892   6.969 -0.0033  0.8325 -1.2412
  153MOL   H24049184   1.451   2.281   6.824  1.0322  2.0040 -1.6893
  153MOL   H24149185   1.591   2.270   6.719  0.7308 -0.5715  0.5541
  153MOL   C24249186   1.433   2.123   6.686 -0.7873 -0.2096  0.1392
  153MOL   C24349187   1.337   2.209   6.601  0.1069 -0.2196  0.6681
  153MOL   C24449188   1.367   2.330   6.543  0.3455 -0.1084  0.0968
  153MOL   C24549189   1.275   2.402   6.468 -0.4157  0.6597 -0.5649
  153MOL   C24649190   1.149   2.352   6.447 -0.1929 -0.1307  0.3680
  153MOL   F24749191   1.058   2.422   6.371 -0.1889  0.1929  0.3633
  153MOL   C24849192   1.114   2.233   6.513 -0.0187  0.5557 -0.1946
  153MOL   C24949193   1.208   2.159   6.588 -0.4892  0.3008  0.5986
  153MOL   C25049194   1.525   2.037   6.592 -0.4873 -0.4599 -0.5094
  153MOL   H25149195   1.358   2.059   6.731 -0.9200 -0.3226 -0.2403
  153MOL   H25249196   1.470   2.362   6.553  0.4028 -0.1307 -0.4141
  153MOL   H25349197   1.312   2.491   6.420 -1.2495  0.5152 -1.5007
  153MOL   H25449198   1.010   2.205   6.503  0.5643 -0.8071 -3.1159
  153MOL   H25549199   1.178   2.062   6.626 -0.3220 -0.7021 -1.7215
  153MOL   H25649200   1.578   2.100   6.520 -1.4477 -0.2146 -1.0084
  153MOL   H25749201   1.611   1.983   6.633  1.2330  1.5864 -1.2688
  153MOL   C25849202   1.453   1.929   6.514  0.1663  0.0922  0.3291
  153MOL   C25949203   1.485   1.945   6.363  0.0213 -0.2503  0.1455
  153MOL   C26049204   1.610   1.910   6.306  0.1754 -0.8168 -0.2148
  153MOL   C26149205   1.632   1.942   6.177  0.6014 -0.7869  0.2176
  153MOL   C26249206   1.536   2.004   6.095 -0.1141  0.5676  0.3720
  153MOL   F26349207   1.566   2.030   5.960 -0.3246 -0.1313  0.2193
  153MOL   C26449208   1.409   2.042   6.148  0.4679 -0.7604  0.3426
  153MOL   C26549209   1.394   2.022   6.284 -0.5585  0.1349  0.3945
  153MOL   C26649210   1.486   1.787   6.559  0.0614 -0.1669  0.0179
  153MOL   H26749211   1.345   1.933   6.530  0.5040  0.3682  2.6560
  153MOL   H26849212   1.688   1.863   6.363  0.9596  1.5525  0.7470
  153MOL   H26949213   1.730   1.917   6.141  1.3649  1.1569  0.8577
  153MOL   H27049214   1.334   2.093   6.088  0.7282  1.5767  1.9433
  153MOL   H27149215   1.310   2.059   6.341 -0.5819  0.5517  0.0882
  153MOL   H27249216   1.439   1.714   6.492 -2.0576 -0.9375  2.2771
  153MOL   H27349217   1.592   1.773   6.536  0.5230  1.8619  0.7975
  153MOL   C27449218   1.448   1.743   6.709  0.4848  0.0636  0.0415
  153MOL   C27549219   1.298   1.712   6.714  1.0990 -0.4769  0.6952
  153MOL   C27649220   1.247   1.599   6.652  0.0670 -0.2470  0.1952
  153MOL   C27749221   1.111   1.568   6.662  0.6023  0.6952 -1.0589
  153MOL   C27849222   1.034   1.650   6.746 -0.4051  0.3477 -0.6085
  153MOL   F27949223   0.905   1.614   6.771  0.0414  0.1701 -0.0283
  153MOL   C28049224   1.081   1.764   6.806  0.5573 -0.3514  1.2043
  153MOL   C28149225   1.215   1.798   6.791 -0.5545  0.0527 -0.5559
  153MOL   C28249226   1.537   1.621   6.757  0.4095 -0.5696 -0.6829
  153MOL   H28349227   1.471   1.839   6.757 -0.9929  0.7186 -0.5385
  153MOL   H28449228   1.320   1.533   6.607 -1.2100 -2.0798  0.7558
  153MOL   H28549229   1.066   1.483   6.613 -0.0404  0.4950 -0.1390
  153MOL   H28649230   1.025   1.827   6.874  1.5605  0.5153  1.2296
  153MOL   H28749231   1.254   1.888   6.835 -0.4279 -0.0670 -0.4211
  153MOL   H28849232   1.500   1.610   6.859 -1.5612  2.4371 -0.9992
  153MOL   H28949233   1.518   1.527   6.705 -0.2790 -0.1818 -1.1383
  153MOL   C29049234   1.693   1.641   6.749 -0.3013 -0.1928 -0.5117
  153MOL   C29149235   1.762   1.605   6.878 -0.5990 -0.5240 -0.3563
  153MOL   C29249236   1.891   1.655   6.904  0.8688 -0.2132 -0.0087
  153MOL   C29349237   1.949   1.633   7.032 -0.1649 -0.3948 -0.1094
  153MOL   C29449238   1.890   1.535   7.116 -1.4462 -0.1474  0.2462
  153MOL   F29549239   1.940   1.527   7.241 -0.6307  0.5863 -0.0483
  153MOL   C29649240   1.770   1.468   7.084  0.8643 -0.5267  0.0195
  153MOL   C29749241   1.704   1.507   6.967  0.2397 -0.1324  0.3805
  153MOL   C29849242   1.749   1.555   6.626 -0.1297  0.4860  0.5893
  153MOL   H29949243   1.714   1.745   6.725 -1.2750  0.4860  1.4919
  153MOL   H30049244   1.938   1.723   6.835  2.2116 -1.5094 -0.4014
  153MOL   H30149245   2.044   1.681   7.049 -0.6470 -0.0822  1.7497
  153MOL   H30249246   1.734   1.394   7.155 -2.2441 -0.0987 -1.0405
  153MOL   H30349247   1.610   1.459   6.944  0.6592 -0.9196  0.2857
  153MOL   H30449248   1.748   1.452   6.661  0.0366  0.4617  0.5230
  153MOL   H30549249   1.679   1.568   6.544 -1.1546 -0.1479  1.3514
  153MOL   C30649250   1.894   1.592   6.568 -0.1076  0.0337  0.0470
  153MOL   C30749251   1.958   1.475   6.502  0.0714  0.1789 -0.1563
  153MOL   C30849252   1.908   1.418   6.380  0.1253  0.5083  0.2208
  153MOL   C30949253   1.968   1.299   6.324  0.7668  0.4316 -0.3083
  153MOL   C31049254   2.071   1.235   6.395 -0.6383  0.0817 -0.8385
  153MOL   F31149255   2.130   1.116   6.351  0.1148  0.5490 -0.4260
  153MOL   C31249256   2.122   1.293   6.513 -0.4187  0.3685 -0.3310
  153MOL   C31349257   2.072   1.415   6.563  1.4846 -0.5157 -0.5691
  153MOL   C31449258   1.896   1.716   6.482  0.5627  0.2656  0.2801
  153MOL   H31549259   1.959   1.619   6.651 -1.0034  1.1004  0.4209
  153MOL   H31649260   1.826   1.465   6.328 -0.0722  2.1040  1.9413
  153MOL   H31749261   1.943   1.268   6.224 -0.8389  1.2261 -0.1641
  153MOL   H31849262   2.208   1.255   6.566  1.5997  3.1244 -1.5229
  153MOL   H31949263   2.095   1.449   6.663  0.7400 -2.0130  0.1294
  153MOL   H32049264   1.870   1.815   6.518  3.4075  1.7014 -1.3987
  153MOL   H32149265   2.003   1.732   6.465  1.1761 -0.8153  2.8230
  153MOL   H32249266   1.850   1.702   6.385 -0.5451  0.7577  0.7292
  154MOL     C149267   5.746   3.491   6.431  0.1160 -0.3148  0.0269
  154MOL     C249268   5.661   3.611   6.474 -0.8903 -0.1973  0.6882
  154MOL     C349269   5.568   3.600   6.576  0.4432  0.0886 -0.5664
  154MOL     C449270   5.484   3.706   6.611  0.2534 -0.5426 -0.1468
  154MOL     C549271   5.499   3.829   6.549  0.3535  0.7782  0.0115
  154MOL     F649272   5.419   3.926   6.595  0.5712 -0.4257 -0.0480
  154MOL     C749273   5.604   3.848   6.451  0.2193 -0.0403 -0.0274
  154MOL     C849274   5.674   3.731   6.406 -0.2011 -0.1456  0.6814
  154MOL     C949275   5.700   3.432   6.295 -0.0870  0.0003 -0.4628
  154MOL    H1049276   5.749   3.421   6.514 -1.2982 -1.8175 -1.1473
  154MOL    H1149277   5.552   3.506   6.626  0.2072  0.9156  0.9235
  154MOL    H1249278   5.415   3.694   6.693 -0.0761  1.1345 -0.1594
  154MOL    H1349279   5.614   3.946   6.408 -1.0799  0.8064  1.5290
  154MOL    H1449280   5.749   3.736   6.330 -0.8394  0.3957  0.0767
  154MOL    H1549281   5.682   3.498   6.210 -1.4062  1.3517  0.8364
  154MOL    H1649282   5.788   3.371   6.272  1.3867  1.1974  1.8829
  154MOL    H1749283   5.842   3.540   6.418  0.7340 -0.8696  2.3150
  154MOL    C1849284   5.588   3.321   6.308 -0.8503 -0.4674  0.0025
  154MOL    C1949285   5.453   3.383   6.337  0.6117 -0.2340 -0.5181
  154MOL    C2049286   5.414   3.509   6.287  0.0562  0.6405  0.0700
  154MOL    C2149287   5.285   3.558   6.312 -0.2346  0.1537  0.8986
  154MOL    C2249288   5.196   3.482   6.384  0.3938  0.3131 -0.2992
  154MOL    F2349289   5.074   3.534   6.402 -0.1290 -0.0588 -0.5951
  154MOL    C2449290   5.232   3.362   6.446  0.1206  0.0828  0.3524
  154MOL    C2549291   5.356   3.308   6.411  0.3344 -0.1047  0.0163
  154MOL    C2649292   5.578   3.223   6.182  0.0577  0.2262 -0.3439
  154MOL    H2749293   5.629   3.253   6.383  0.6271  2.1160  1.6584
  154MOL    H2849294   5.475   3.571   6.223 -0.3731  0.2127 -0.7585
  154MOL    H2949295   5.256   3.654   6.272  1.7352  0.7129  0.7774
  154MOL    H3049296   5.156   3.308   6.501 -0.0157 -0.8513 -0.7485
  154MOL    H3149297   5.389   3.211   6.445  1.4756  1.0800  2.4258
  154MOL    H3249298   5.658   3.149   6.178 -0.7134 -0.6057 -0.4856
  154MOL    H3349299   5.503   3.149   6.211  1.2748 -0.8252  0.1533
  154MOL    C3449300   5.569   3.287   6.044 -0.1176 -0.4297  0.5668
  154MOL    C3549301   5.699   3.292   5.967 -0.0391  0.3239  0.0922
  154MOL    C3649302   5.763   3.422   5.953 -0.8389 -0.1094  0.2559
  154MOL    C3749303   5.892   3.430   5.895  0.2133  0.3116 -0.1581
  154MOL    C3849304   5.947   3.321   5.835  0.1644 -0.1318  0.0848
  154MOL    F3949305   6.061   3.338   5.759 -0.0276  0.1049 -0.0813
  154MOL    C4049306   5.886   3.194   5.852 -0.8159 -0.6813 -0.4840
  154MOL    C4149307   5.761   3.175   5.916 -0.1688  0.1978  0.0899
  154MOL    C4249308   5.466   3.208   5.956 -0.3872  0.2300 -0.1393
  154MOL    H4349309   5.535   3.389   6.061  1.2782  0.1570 -0.0298
  154MOL    H4449310   5.722   3.508   6.003  0.1792  0.6681 -0.2063
  154MOL    H4549311   5.936   3.529   5.900  1.0941 -0.0869  0.0431
  154MOL    H4649312   5.944   3.111   5.814 -0.1860 -0.7642  0.6177
  154MOL    H4749313   5.731   3.074   5.939  4.0958 -0.8414  1.5529
  154MOL    H4849314   5.480   3.245   5.855  0.7929 -1.3062 -0.5680
  154MOL    H4949315   5.490   3.102   5.962  1.0079  0.5601  0.3847
  154MOL    C5049316   5.308   3.218   5.971 -0.4512 -0.2833  0.2022
  154MOL    C5149317   5.267   3.349   5.924  0.2697  0.5413 -0.0494
  154MOL    C5249318   5.200   3.429   6.018 -0.3313 -0.1072 -0.2319
  154MOL    C5349319   5.146   3.550   5.975 -0.8211 -0.0233 -0.0064
  154MOL    C5449320   5.151   3.586   5.838  0.0357 -0.1201  0.3854
  154MOL    F5549321   5.109   3.708   5.798  0.2715  0.5128  0.2945
  154MOL    C5649322   5.209   3.507   5.740  0.3521  0.4330 -0.8508
  154MOL    C5749323   5.266   3.386   5.782  0.3495  0.0781 -0.3540
  154MOL    C5849324   5.229   3.111   5.894 -0.5796  0.4650  0.2052
  154MOL    H5949325   5.287   3.206   6.077 -0.1494 -0.2058  0.2682
  154MOL    H6049326   5.181   3.393   6.118 -1.4556  1.2747  0.0689
  154MOL    H6149327   5.085   3.604   6.046 -0.6073 -1.3382  1.2090
  154MOL    H6249328   5.211   3.544   5.638  0.0994 -0.9761 -1.3758
  154MOL    H6349329   5.312   3.325   5.707  0.1039  0.5315 -0.8760
  154MOL    H6449330   5.130   3.151   5.874 -1.4544 -1.3508  0.8443
  154MOL    H6549331   5.273   3.108   5.794 -0.1024 -0.5227  0.4491
  154MOL    C6649332   5.218   2.966   5.954  0.1901 -0.2537  0.1916
  154MOL    C6749333   5.216   2.983   6.106  0.0310  0.7462 -0.1597
  154MOL    C6849334   5.319   2.927   6.184  0.2620  0.2674  0.4442
  154MOL    C6949335   5.319   2.949   6.323 -0.7586  1.2917  0.1105
  154MOL    C7049336   5.203   3.008   6.385 -0.6509 -0.1149 -0.1015
  154MOL    F7149337   5.194   3.017   6.518  0.2914 -0.6327  0.0395
  154MOL    C7249338   5.098   3.063   6.308  0.3184  0.0444  0.6965
  154MOL    C7349339   5.107   3.051   6.167 -0.5244  0.0525 -0.2955
  154MOL    C7449340   5.090   2.904   5.897 -0.3382 -0.5622 -0.3130
  154MOL    H7549341   5.308   2.912   5.924  0.6557  1.2219 -1.1762
  154MOL    H7649342   5.399   2.874   6.134 -1.0043 -0.3701 -0.9547
  154MOL    H7749343   5.398   2.904   6.381 -2.1116 -0.2756  0.7580
  154MOL    H7849344   5.010   3.110   6.351  0.6356 -1.1080  2.6748
  154MOL    H7949345   5.030   3.093   6.104 -0.3594  0.8382  0.0259
  154MOL    H8049346   5.082   2.804   5.941 -0.3816  0.2249  1.5040
  154MOL    H8149347   5.004   2.962   5.931 -0.5456 -1.1698  0.2159
  154MOL    C8249348   5.091   2.890   5.741  0.5388 -0.1644  0.4056
  154MOL    C8349349   5.204   2.791   5.710 -0.1026  0.5721  0.5178
  154MOL    C8449350   5.314   2.835   5.639 -0.1093 -0.4415 -0.1216
  154MOL    C8549351   5.430   2.758   5.611  0.0878 -0.0342  0.5293
  154MOL    C8649352   5.426   2.627   5.651 -0.0163  0.2634  0.2786
  154MOL    F8749353   5.528   2.543   5.612 -0.4990  0.0737 -0.0315
  154MOL    C8849354   5.318   2.569   5.715 -0.2333 -0.2024  0.5115
  154MOL    C8949355   5.207   2.653   5.747 -0.4944  0.4247 -0.6429
  154MOL    C9049356   4.960   2.839   5.682  0.1564 -0.4117 -0.3524
  154MOL    H9149357   5.107   2.985   5.690 -0.4910  0.4835  1.2673
  154MOL    H9249358   5.309   2.941   5.619  0.0594 -0.1723  1.2114
  154MOL    H9349359   5.515   2.796   5.555 -1.4237  1.6398 -0.6966
  154MOL    H9449360   5.316   2.462   5.728 -3.0395 -0.5546 -2.2313
  154MOL    H9549361   5.126   2.601   5.796 -1.4087  2.1408 -0.2839
  154MOL    H9649362   4.968   2.831   5.573 -0.7877  0.6304 -0.5049
  154MOL    H9749363   4.941   2.739   5.720  1.5055 -1.5467 -2.5881
  154MOL    C9849364   4.837   2.924   5.718 -0.2276 -0.0310 -0.2125
  154MOL    C9949365   4.854   3.079   5.721  0.6745 -0.1137  0.0290
  154MOL   C10049366   4.834   3.143   5.842  0.1185 -0.1366 -0.4603
  154MOL   C10149367   4.845   3.283   5.850 -0.1415  0.0093 -0.5029
  154MOL   C10249368   4.884   3.361   5.740 -0.6422  0.4636 -0.4962
  154MOL   F10349369   4.885   3.495   5.749  0.6053 -0.1930  0.2239
  154MOL   C10449370   4.905   3.300   5.613 -0.2716  0.3586 -0.3309
  154MOL   C10549371   4.894   3.157   5.607 -0.3077  0.3505  0.0203
  154MOL   C10649372   4.707   2.891   5.635  0.0718  0.6207  0.8349
  154MOL   H10749373   4.813   2.889   5.819 -0.2979  1.5213  0.3229
  154MOL   H10849374   4.815   3.090   5.935  1.5870 -3.8222 -2.1402
  154MOL   H10949375   4.827   3.326   5.948  2.3186  2.1812 -0.9424
  154MOL   H11049376   4.931   3.363   5.529  1.3708  0.4990  0.2512
  154MOL   H11149377   4.908   3.103   5.514  1.9613 -0.4328  0.7909
  154MOL   H11249378   4.618   2.940   5.674 -1.0471 -1.5384  1.1093
  154MOL   H11349379   4.733   2.939   5.540 -0.2197  1.0536  0.9733
  154MOL   C11449380   4.670   2.746   5.596  0.0464  0.0627  0.5538
  154MOL   C11549381   4.666   2.648   5.713  0.1753 -0.0834  0.0146
  154MOL   C11649382   4.723   2.520   5.690 -0.0603  0.9081  0.1346
  154MOL   C11749383   4.709   2.428   5.791 -0.1149  0.4944 -0.0080
  154MOL   C11849384   4.642   2.453   5.908  0.0176  0.2697 -0.7791
  154MOL   F11949385   4.616   2.352   5.995  0.0391  0.2935  0.1662
  154MOL   C12049386   4.587   2.578   5.926  0.4794  0.5007 -0.0547
  154MOL   C12149387   4.606   2.685   5.834  0.0610  0.3511 -0.2645
  154MOL   C12249388   4.528   2.734   5.531 -0.1766  0.2104  0.0671
  154MOL   H12349389   4.751   2.711   5.533 -0.3036  0.8779 -0.3631
  154MOL   H12449390   4.769   2.494   5.596 -1.5364  0.8238 -0.5815
  154MOL   H12549391   4.745   2.327   5.778  2.2242  1.1580  0.9915
  154MOL   H12649392   4.544   2.617   6.018 -0.8766 -0.6828 -0.1707
  154MOL   H12749393   4.561   2.780   5.856  0.3904  0.9905 -2.2605
  154MOL   H12849394   4.491   2.633   5.520 -3.1943  1.4426 -1.7817
  154MOL   H12949395   4.463   2.787   5.600 -1.8349 -0.9507 -0.5924
  154MOL   C13049396   4.511   2.800   5.402  0.1885 -0.5815  0.4202
  154MOL   C13149397   4.593   2.731   5.297 -0.3970 -0.1082 -0.1756
  154MOL   C13249398   4.715   2.790   5.255  0.1543  0.5301 -0.4128
  154MOL   C13349399   4.801   2.728   5.167  0.2304 -0.0384  0.1329
  154MOL   C13449400   4.770   2.602   5.120  0.0572  0.1489  0.5880
  154MOL   F13549401   4.856   2.545   5.033  0.3517 -0.5511  0.0876
  154MOL   C13649402   4.653   2.533   5.169  0.1639  0.5367  0.5290
  154MOL   C13749403   4.562   2.602   5.259  0.3359  0.4652 -0.0847
  154MOL   C13849404   4.355   2.820   5.368 -0.7132  0.1781 -0.4944
  154MOL   H13949405   4.550   2.901   5.416 -0.4626  0.1508 -2.6946
  154MOL   H14049406   4.729   2.888   5.298  0.0834  0.8488 -1.1167
  154MOL   H14149407   4.888   2.785   5.138  1.0874 -2.7437 -2.8540
  154MOL   H14249408   4.638   2.432   5.133  1.4530  0.1457  1.0611
  154MOL   H14349409   4.480   2.543   5.296  0.3848  0.3536 -0.1543
  154MOL   H14449410   4.324   2.717   5.356  2.5154 -0.9414  0.1008
  154MOL   H14549411   4.299   2.852   5.456  0.0229 -1.8066  0.7332
  154MOL   C14649412   4.327   2.910   5.250 -0.0138 -0.1935  0.7776
  154MOL   C14749413   4.181   2.889   5.207  0.2589 -0.1660 -1.1326
  154MOL   C14849414   4.154   2.852   5.072 -0.0242 -0.0604 -0.4524
  154MOL   C14949415   4.018   2.844   5.035 -0.4544  0.2349 -0.4033
  154MOL   C15049416   3.907   2.869   5.126  0.5578 -0.0533 -0.0202
  154MOL   F15149417   3.780   2.856   5.085 -0.0559 -0.1819 -0.0892
  154MOL   C15249418   3.935   2.901   5.261  0.2635 -0.5952  0.2392
  154MOL   C15349419   4.072   2.910   5.298 -0.1914 -0.0788 -0.0568
  154MOL   C15449420   4.361   3.059   5.284 -0.2290  0.3497  0.4971
  154MOL   H15549421   4.389   2.861   5.174 -2.2971  0.1750 -1.3879
  154MOL   H15649422   4.243   2.846   5.011  1.2812  1.3351  1.2582
  154MOL   H15749423   3.996   2.817   4.933 -0.9119 -2.8104  0.4590
  154MOL   H15849424   3.857   2.909   5.335  0.1677 -0.6585  0.1443
  154MOL   H15949425   4.089   2.942   5.400 -1.7514  1.5091 -0.2813
  154MOL   H16049426   4.278   3.101   5.341 -1.3112  0.2175 -0.9229
  154MOL   H16149427   4.445   3.063   5.352 -0.2443  1.5763  0.4571
  154MOL   C16249428   4.412   3.137   5.164 -0.7840 -0.1568 -0.2857
  154MOL   C16349429   4.402   3.284   5.205 -0.4077 -0.5264 -0.0460
  154MOL   C16449430   4.514   3.350   5.265 -0.2525 -0.3511 -0.1816
  154MOL   C16549431   4.502   3.488   5.311 -0.3643  0.5131  0.1816
  154MOL   C16649432   4.384   3.556   5.287  0.5482  0.4614 -0.6251
  154MOL   F16749433   4.384   3.694   5.314  0.2907  0.2860 -0.4354
  154MOL   C16849434   4.285   3.500   5.209 -0.9309 -0.0139 -0.5855
  154MOL   C16949435   4.293   3.360   5.175  0.0550 -0.0617  0.1583
  154MOL   C17049436   4.550   3.086   5.114  0.2607 -0.5631 -0.4191
  154MOL   H17149437   4.343   3.107   5.086 -0.6049 -3.3307  0.7007
  154MOL   H17249438   4.606   3.297   5.282  0.6116  1.3678  0.7027
  154MOL   H17349439   4.577   3.533   5.374 -0.0545 -1.2315  1.1167
  154MOL   H17449440   4.198   3.554   5.176 -0.4308  1.7272  0.8262
  154MOL   H17549441   4.211   3.308   5.128  0.4198 -1.5745  1.1497
  154MOL   H17649442   4.618   3.079   5.200 -0.6274  1.1598  0.4542
  154MOL   H17749443   4.546   2.992   5.060 -0.0054  0.2640 -1.8713
  154MOL   C17849444   4.629   3.177   5.017 -0.0248  0.5967 -0.3665
  154MOL   C17949445   4.771   3.145   5.029  0.6543  0.2126 -0.2455
  154MOL   C18049446   4.829   3.031   4.968  0.0234 -0.3504  0.8838
  154MOL   C18149447   4.964   2.999   4.976  0.0498  0.3168 -1.1009
  154MOL   C18249448   5.050   3.084   5.049  0.1041 -0.2560  0.2439
  154MOL   F18349449   5.173   3.031   5.069 -0.3349 -1.1523 -0.1275
  154MOL   C18449450   5.002   3.206   5.110  0.5753  0.2824 -0.8058
  154MOL   C18549451   4.863   3.234   5.100  0.6526 -0.0329  0.5062
  154MOL   C18649452   4.573   3.186   4.873  0.5847 -0.3735 -0.2586
  154MOL   H18749453   4.628   3.278   5.059  2.6592  0.1951  0.7749
  154MOL   H18849454   4.758   2.972   4.912  0.3472 -1.1259  1.2762
  154MOL   H18949455   4.998   2.910   4.925  1.9336  0.3974 -0.0128
  154MOL   H19049456   5.074   3.258   5.171 -1.3724  1.8256  0.2233
  154MOL   H19149457   4.826   3.320   5.155 -2.2692 -0.5401 -0.5840
  154MOL   H19249458   4.654   3.179   4.801  0.3405  0.4851 -0.6153
  154MOL   H19349459   4.523   3.091   4.850  0.0937  0.3702 -2.3784
  154MOL   C19449460   4.484   3.305   4.836  0.0200 -0.2026 -0.0119
  154MOL   C19549461   4.578   3.426   4.838 -0.0461 -1.0341 -0.1025
  154MOL   C19649462   4.674   3.458   4.740 -0.3005 -0.9761 -0.0651
  154MOL   C19749463   4.752   3.574   4.748  0.0830  0.1965  0.1030
  154MOL   C19849464   4.735   3.658   4.853 -0.4262 -0.2315 -0.5492
  154MOL   F19949465   4.823   3.763   4.857  0.2398 -0.7684 -0.0020
  154MOL   C20049466   4.645   3.632   4.956 -0.5083 -0.4130  0.0738
  154MOL   C20149467   4.566   3.521   4.948 -0.1470 -0.2758 -0.9791
  154MOL   C20249468   4.422   3.286   4.700 -1.0010 -0.7930 -0.6580
  154MOL   H20349469   4.401   3.317   4.905  1.5347  2.2275  1.4512
  154MOL   H20449470   4.687   3.402   4.648 -2.6395 -0.1856 -0.9246
  154MOL   H20549471   4.815   3.606   4.666  1.8767  0.3944  1.5342
  154MOL   H20649472   4.634   3.716   5.023 -1.6220  0.6676 -1.4118
  154MOL   H20749473   4.494   3.512   5.028  2.4173  1.9895  1.7155
  154MOL   H20849474   4.383   3.385   4.676 -1.7778 -0.8418  0.3638
  154MOL   H20949475   4.504   3.266   4.631 -0.1184 -4.5903  1.3679
  154MOL   C21049476   4.323   3.173   4.683 -0.0537 -0.2072 -0.0402
  154MOL   C21149477   4.176   3.204   4.718  0.1113 -0.1157 -0.1066
  154MOL   C21249478   4.123   3.331   4.693 -0.7285 -0.1445  0.4407
  154MOL   C21349479   3.995   3.375   4.726  0.1000 -0.4864  0.2028
  154MOL   C21449480   3.908   3.280   4.785 -0.9761 -0.1931 -0.5347
  154MOL   F21549481   3.774   3.304   4.817 -0.1301  0.0528 -0.3827
  154MOL   C21649482   3.958   3.151   4.804 -1.1482  0.3529 -0.1364
  154MOL   C21749483   4.093   3.115   4.781  0.4185  0.2232 -0.3198
  154MOL   C21849484   4.333   3.095   4.551 -0.3669  0.1455 -0.0605
  154MOL   H21949485   4.345   3.105   4.766 -0.4465 -0.5635 -0.2271
  154MOL   H22049486   4.191   3.401   4.647 -1.9040  1.0655  0.5029
  154MOL   H22149487   3.967   3.478   4.706  1.5744 -0.1865 -0.4059
  154MOL   H22249488   3.890   3.078   4.845 -0.5548  0.0500  0.3113
  154MOL   H22349489   4.132   3.016   4.799  0.6636  0.5535  0.9952
  154MOL   H22449490   4.243   3.034   4.545 -0.1748 -0.3143  1.4926
  154MOL   H22549491   4.333   3.170   4.472  2.0692 -0.2562 -0.4924
  154MOL   C22649492   4.448   2.987   4.544 -0.0715  0.1859 -0.2675
  154MOL   C22749493   4.450   2.887   4.660 -0.3323  0.3110  0.2177
  154MOL   C22849494   4.579   2.847   4.704  0.4895  0.0517  0.0486
  154MOL   C22949495   4.590   2.757   4.808  0.3514  0.1569  0.1057
  154MOL   C23049496   4.478   2.701   4.868 -0.3187  0.7660 -0.5133
  154MOL   F23149497   4.478   2.594   4.956  0.6734  0.1034 -0.0539
  154MOL   C23249498   4.350   2.736   4.814 -0.3476 -0.5597  0.1151
  154MOL   C23349499   4.341   2.826   4.711  0.9697  0.1096  0.0159
  154MOL   C23449500   4.452   2.911   4.413 -0.0018 -0.2630 -0.2221
  154MOL   H23549501   4.545   3.036   4.556 -0.1043  0.5605 -1.4656
  154MOL   H23649502   4.670   2.890   4.665  0.4603  2.1182  2.1000
  154MOL   H23749503   4.680   2.714   4.850 -1.4660 -1.2325  2.7346
  154MOL   H23849504   4.264   2.683   4.852  0.8486 -1.6958  1.2801
  154MOL   H23949505   4.243   2.849   4.672  0.1480 -0.3537  1.7652
  154MOL   H24049506   4.535   2.840   4.418  0.8343  0.7308  0.0432
  154MOL   H24149507   4.366   2.843   4.414  0.5989 -1.0126  0.7045
  154MOL   C24249508   4.475   2.990   4.284 -0.2919 -0.4972 -0.2043
  154MOL   C24349509   4.619   3.034   4.260  0.0065 -0.8223  0.1343
  154MOL   C24449510   4.656   3.169   4.247  0.1671 -0.4246  0.3848
  154MOL   C24549511   4.789   3.204   4.230 -0.1632 -0.2382 -0.2462
  154MOL   C24649512   4.887   3.104   4.222 -0.1535  0.0730  0.3227
  154MOL   F24749513   5.017   3.133   4.212 -0.1282 -0.0429  0.2976
  154MOL   C24849514   4.849   2.972   4.222 -0.1363 -1.2783  0.0195
  154MOL   C24949515   4.716   2.934   4.242  0.2237  0.5689  0.3657
  154MOL   C25049516   4.432   2.912   4.160 -0.5447  0.6401 -0.1783
  154MOL   H25149517   4.420   3.085   4.279 -1.8195 -1.2616  1.4387
  154MOL   H25249518   4.584   3.248   4.254  2.2304  1.7362 -1.7822
  154MOL   H25349519   4.825   3.305   4.234  1.9311 -0.9849  0.4223
  154MOL   H25449520   4.922   2.893   4.232  0.8987 -0.3955 -0.4407
  154MOL   H25549521   4.688   2.830   4.247  0.9744  0.2054 -2.2917
  154MOL   H25649522   4.477   2.815   4.179  1.3631  1.8418  1.6424
  154MOL   H25749523   4.325   2.893   4.174 -0.9537 -1.2159 -4.8545
  154MOL   C25849524   4.462   2.960   4.020 -0.2221 -0.0984 -0.2424
  154MOL   C25949525   4.405   2.845   3.934 -0.4906  0.7223 -0.3249
  154MOL   C26049526   4.498   2.742   3.890  0.5976 -0.2002 -0.4099
  154MOL   C26149527   4.465   2.648   3.796 -0.1878 -0.1053 -0.2160
  154MOL   C26249528   4.335   2.636   3.752  0.4724 -0.0971 -0.0685
  154MOL   F26349529   4.305   2.526   3.677  0.6392 -0.1214 -0.0176
  154MOL   C26449530   4.243   2.738   3.781  0.4263 -0.4020  0.2503
  154MOL   C26549531   4.275   2.840   3.877 -0.2831 -0.3820 -0.3678
  154MOL   C26649532   4.412   3.101   3.976  0.4019 -0.0015 -0.0673
  154MOL   H26749533   4.570   2.953   4.007 -0.3823 -0.7896 -1.2500
  154MOL   H26849534   4.591   2.744   3.945 -0.2628 -0.1574  1.0847
  154MOL   H26949535   4.535   2.572   3.763 -0.0116  0.6808 -1.6787
  154MOL   H27049536   4.142   2.745   3.742  0.7768  1.0867 -0.4195
  154MOL   H27149537   4.208   2.923   3.897  0.5631 -0.2854  2.2671
  154MOL   H27249538   4.303   3.101   3.986  0.5232 -0.6706  1.5042
  154MOL   H27349539   4.426   3.180   4.050 -0.5243 -0.5209  0.6910
  154MOL   C27449540   4.457   3.136   3.837 -0.1065  0.6991  0.6669
  154MOL   C27549541   4.356   3.232   3.767  0.2975  0.0316  0.4950
  154MOL   C27649542   4.305   3.348   3.829  0.1588  0.4011  0.0569
  154MOL   C27749543   4.214   3.436   3.758  0.3141  0.5574 -0.4138
  154MOL   C27849544   4.161   3.399   3.634 -0.0648 -0.2503 -0.3478
  154MOL   F27949545   4.074   3.478   3.560  0.1406 -0.2363 -0.3068
  154MOL   C28049546   4.204   3.276   3.585  0.8147 -0.2372 -0.0631
  154MOL   C28149547   4.297   3.189   3.651  0.4604 -0.8825  0.7332
  154MOL   C28249548   4.607   3.186   3.838 -0.0139  0.2043 -0.1782
  154MOL   H28349549   4.448   3.046   3.777 -1.5264  1.5713 -0.4646
  154MOL   H28449550   4.361   3.382   3.915 -0.7803  1.0699  0.4104
  154MOL   H28549551   4.183   3.535   3.787  1.8322  0.4696  1.6172
  154MOL   H28649552   4.172   3.237   3.490 -2.1553 -1.6443  1.4495
  154MOL   H28749553   4.326   3.093   3.611  0.6550  0.3329 -2.2294
  154MOL   H28849554   4.622   3.290   3.811  0.3234 -0.0860 -1.1226
  154MOL   H28949555   4.657   3.179   3.934  0.7013  0.8964 -0.4978
  154MOL   C29049556   4.685   3.120   3.723 -0.0291 -0.6432 -0.0460
  154MOL   C29149557   4.640   3.141   3.582 -0.0202 -0.5806 -0.0624
  154MOL   C29249558   4.624   3.020   3.505  0.2328  0.1053  0.0354
  154MOL   C29349559   4.598   3.032   3.374  0.1918 -1.6487 -0.2056
  154MOL   C29449560   4.579   3.154   3.315  0.0697 -0.6535 -0.2367
  154MOL   F29549561   4.535   3.166   3.185  0.1669  0.2772 -0.1582
  154MOL   C29649562   4.598   3.276   3.388 -0.6052  0.7431  0.2889
  154MOL   C29749563   4.626   3.269   3.523  0.2646 -0.0237 -0.3457
  154MOL   C29849564   4.831   3.153   3.733 -0.4366  0.1724 -0.6298
  154MOL   H29949565   4.674   3.013   3.743 -2.5592 -0.8342 -2.0515
  154MOL   H30049566   4.646   2.925   3.550  2.5104  0.9467  0.7452
  154MOL   H30149567   4.579   2.949   3.308 -1.5239 -1.7763  0.4301
  154MOL   H30249568   4.580   3.370   3.339 -0.5965 -0.4742 -2.0851
  154MOL   H30349569   4.640   3.357   3.584 -0.3165  0.7459 -1.3132
  154MOL   H30449570   4.869   3.169   3.632 -0.2202  0.4974 -0.4982
  154MOL   H30549571   4.854   3.252   3.772 -0.4791  0.3432 -1.0318
  154MOL   C30649572   4.909   3.042   3.802 -0.9616  0.0283  0.2958
  154MOL   C30749573   4.894   2.897   3.754 -0.2164 -0.3578  0.0437
  154MOL   C30849574   4.837   2.797   3.837 -0.5716  0.1950  0.4656
  154MOL   C30949575   4.831   2.661   3.792 -0.1525 -0.5441  0.7383
  154MOL   C31049576   4.892   2.623   3.669  0.1233  0.1324  0.6871
  154MOL   F31149577   4.896   2.496   3.626  0.2840  0.5737  0.3691
  154MOL   C31249578   4.950   2.726   3.590  0.5745  0.7692  0.0635
  154MOL   C31349579   4.960   2.857   3.636 -1.4119 -0.6008  0.4918
  154MOL   C31449580   5.061   3.073   3.801  0.3811 -0.2194  0.0671
  154MOL   H31549581   4.878   3.040   3.907  0.5118  0.1808  0.7510
  154MOL   H31649582   4.800   2.818   3.936 -1.2822 -1.7966  0.6504
  154MOL   H31749583   4.781   2.587   3.854 -0.8123  0.7427  1.7796
  154MOL   H31849584   5.009   2.708   3.501  1.6100 -0.7360  1.0407
  154MOL   H31949585   5.009   2.926   3.569  0.1106 -2.1155 -0.0182
  154MOL   H32049586   5.085   3.154   3.869  0.6105 -0.0723 -0.1903
  154MOL   H32149587   5.101   2.980   3.841  0.6627  0.3538  1.1221
  154MOL   H32249588   5.098   3.108   3.705  1.3058 -3.0634 -0.6720
  155MOL     C149589   2.968   2.631   7.581 -0.6388 -0.0697  0.0396
  155MOL     C249590   2.993   2.482   7.606 -0.5832  0.5084  0.1496
  155MOL     C349591   3.118   2.444   7.664  0.4456  0.1234 -0.5738
  155MOL     C449592   3.144   2.305   7.677 -0.4494 -0.0271 -0.8378
  155MOL     C549593   3.043   2.212   7.655  0.0954  0.1854  0.0990
  155MOL     F649594   3.073   2.083   7.684  0.2618  0.2924  0.4369
  155MOL     C749595   2.919   2.247   7.600  0.1508 -0.0680 -0.3893
  155MOL     C849596   2.893   2.383   7.582  0.3422  0.1729  0.0801
  155MOL     C949597   2.918   2.682   7.717  0.8226  0.2961  0.1349
  155MOL    H1049598   2.894   2.647   7.504 -0.0061 -1.0666 -0.7909
  155MOL    H1149599   3.195   2.515   7.690  0.5036 -0.0144 -0.3614
  155MOL    H1249600   3.233   2.279   7.733  0.8267  2.1192 -1.8091
  155MOL    H1349601   2.842   2.172   7.590 -0.1759  0.1622  0.3006
  155MOL    H1449602   2.799   2.417   7.540  0.9487  1.0927 -0.5631
  155MOL    H1549603   2.822   2.632   7.731  0.0910  2.4475  3.5472
  155MOL    H1649604   2.980   2.664   7.805  0.7493  1.0275  0.3376
  155MOL    H1749605   3.061   2.680   7.551 -0.9935 -0.1488 -1.2081
  155MOL    C1849606   2.890   2.837   7.701  0.3724  0.0969 -0.8397
  155MOL    C1949607   2.813   2.880   7.820  0.4392 -0.2059 -0.2496
  155MOL    C2049608   2.843   2.851   7.956  0.2250 -1.0438 -0.7525
  155MOL    C2149609   2.749   2.883   8.062  0.1595 -1.0914  0.4638
  155MOL    C2249610   2.633   2.959   8.029 -1.0302  1.0229  0.1094
  155MOL    F2349611   2.538   2.984   8.117  0.1330  0.0895  0.4903
  155MOL    C2449612   2.605   2.997   7.899 -0.2153 -0.7162  0.3600
  155MOL    C2549613   2.694   2.960   7.793  0.6155  0.2446 -0.1628
  155MOL    C2649614   3.028   2.908   7.693 -0.1514  0.4264  0.4222
  155MOL    H2749615   2.835   2.869   7.613 -2.4800 -0.6873  0.6057
  155MOL    H2849616   2.932   2.801   7.989 -0.2290 -1.6761 -0.4641
  155MOL    H2949617   2.773   2.863   8.165  0.8420  0.9979  0.7318
  155MOL    H3049618   2.509   3.043   7.882  1.4298  1.9066 -2.3405
  155MOL    H3149619   2.677   2.993   7.692  2.7899  1.1505 -0.2646
  155MOL    H3249620   3.094   2.870   7.771 -0.9725 -2.1233 -0.1004
  155MOL    H3349621   3.074   2.884   7.597 -0.5884  1.2207  0.0079
  155MOL    C3449622   3.023   3.063   7.718  0.6825 -0.4533  0.1133
  155MOL    C3549623   3.157   3.115   7.768  0.6946 -0.0665  0.5074
  155MOL    C3649624   3.162   3.175   7.893  0.3806 -0.0018  0.0919
  155MOL    C3749625   3.287   3.210   7.950 -0.5274 -0.4037  0.7882
  155MOL    C3849626   3.411   3.194   7.874 -0.5882 -0.6749 -0.4916
  155MOL    F3949627   3.530   3.238   7.925  0.3065 -0.6399  0.3114
  155MOL    C4049628   3.405   3.145   7.742 -0.2213 -0.1191 -0.3470
  155MOL    C4149629   3.280   3.103   7.691 -0.3120  0.0978  0.5799
  155MOL    C4249630   2.975   3.132   7.590  0.1968 -0.4573  0.3593
  155MOL    H4349631   2.951   3.083   7.797 -1.2801  0.9824 -1.9874
  155MOL    H4449632   3.067   3.198   7.939  0.5658 -0.4532  0.7004
  155MOL    H4549633   3.292   3.267   8.041  1.8557  2.4442 -1.0609
  155MOL    H4649634   3.504   3.139   7.699  0.5656  0.0166  1.4087
  155MOL    H4749635   3.278   3.061   7.592 -2.4517 -0.8978  1.0173
  155MOL    H4849636   3.066   3.126   7.531 -0.6338  1.5768 -1.2133
  155MOL    H4949637   2.906   3.074   7.528 -0.0021 -1.4739  1.5305
  155MOL    C5049638   2.936   3.276   7.597  0.1393  0.3694 -0.7202
  155MOL    C5149639   2.876   3.308   7.462  0.2688 -0.5633  0.1678
  155MOL    C5249640   2.967   3.358   7.362  0.5552  0.2401 -0.1353
  155MOL    C5349641   2.926   3.387   7.231  0.3398  0.0924  0.5531
  155MOL    C5449642   2.790   3.370   7.202 -0.6944 -0.0643  0.6372
  155MOL    F5549643   2.749   3.390   7.076 -0.2367  0.1798 -0.5685
  155MOL    C5649644   2.699   3.316   7.296  0.4912 -0.3630  0.3200
  155MOL    C5749645   2.741   3.282   7.426  0.1684  0.8782 -0.2872
  155MOL    C5849646   2.831   3.305   7.707 -0.2662 -0.0467 -0.1521
  155MOL    H5949647   3.026   3.337   7.609 -0.5513  0.8061  2.8147
  155MOL    H6049648   3.070   3.371   7.389  0.6388 -1.1325  0.2697
  155MOL    H6149649   2.991   3.421   7.152 -0.6035  0.7358  0.0366
  155MOL    H6249650   2.597   3.297   7.269  0.3440  1.0648 -0.2032
  155MOL    H6349651   2.674   3.244   7.502  0.5184  0.6357 -0.0944
  155MOL    H6449652   2.764   3.220   7.702 -0.8892  0.4112  0.3818
  155MOL    H6549653   2.881   3.294   7.804  1.8543  1.7432 -1.0016
  155MOL    C6649654   2.764   3.448   7.704  0.0536  0.5499  0.4553
  155MOL    C6749655   2.624   3.435   7.764 -0.4365  0.6665 -0.1770
  155MOL    C6849656   2.609   3.409   7.906 -0.4357  0.2973  1.1262
  155MOL    C6949657   2.475   3.414   7.963 -0.0453  0.5881  0.1506
  155MOL    C7049658   2.364   3.428   7.880  0.1182 -0.4591  0.0458
  155MOL    F7149659   2.243   3.427   7.941  0.4467  0.2010  0.1076
  155MOL    C7249660   2.387   3.442   7.740 -0.0078 -0.4239 -0.0655
  155MOL    C7349661   2.513   3.462   7.682  0.6129 -0.4260 -0.2845
  155MOL    C7449662   2.850   3.546   7.783 -0.4983  0.6704 -0.0928
  155MOL    H7549663   2.749   3.498   7.608  1.7695  1.8871  0.8573
  155MOL    H7649664   2.689   3.388   7.975  2.0211 -0.7567 -1.9146
  155MOL    H7749665   2.453   3.378   8.063 -1.4516  0.4567 -0.2010
  155MOL    H7849666   2.302   3.470   7.680 -0.6812 -1.8485  0.2120
  155MOL    H7949667   2.521   3.492   7.579  0.0722  1.3444  0.1674
  155MOL    H8049668   2.880   3.501   7.878  1.0760 -0.1271 -0.9637
  155MOL    H8149669   2.945   3.551   7.731 -1.7026  0.8307 -2.3562
  155MOL    C8249670   2.798   3.697   7.783 -0.5625  0.3046 -0.1810
  155MOL    C8349671   2.708   3.736   7.894  0.1446 -0.0703  0.3136
  155MOL    C8449672   2.577   3.766   7.858  0.2962 -0.0356  0.2118
  155MOL    C8549673   2.481   3.791   7.961  1.0504  0.0871  0.4174
  155MOL    C8649674   2.523   3.806   8.092  0.0083 -1.0383  0.4848
  155MOL    F8749675   2.436   3.831   8.187 -0.0482 -0.0222  0.1321
  155MOL    C8849676   2.653   3.771   8.128  0.3563  0.3163 -0.1819
  155MOL    C8949677   2.749   3.737   8.030 -0.0378  0.1598 -0.0291
  155MOL    C9049678   2.919   3.803   7.758 -0.2295  0.2282  0.7931
  155MOL    H9149679   2.730   3.700   7.697 -0.2995 -1.7229 -0.4938
  155MOL    H9249680   2.543   3.749   7.757 -0.6750 -1.2874  0.7338
  155MOL    H9349681   2.374   3.786   7.949  1.2730 -2.5082 -0.8378
  155MOL    H9449682   2.678   3.781   8.233 -0.2854 -0.7114  0.0785
  155MOL    H9549683   2.851   3.710   8.054  0.5856 -1.1099 -3.7879
  155MOL    H9649684   2.893   3.907   7.780 -2.1225 -0.0451 -0.1405
  155MOL    H9749685   3.000   3.788   7.830 -0.1582  1.2471  0.9428
  155MOL    C9849686   2.968   3.814   7.612  0.1990  0.4807  0.1684
  155MOL    C9949687   2.850   3.839   7.516 -0.2209 -0.6017  0.1306
  155MOL   C10049688   2.816   3.738   7.422  0.2151  0.1742  0.0565
  155MOL   C10149689   2.706   3.761   7.332  0.1902 -0.4607  0.0823
  155MOL   C10249690   2.622   3.869   7.355  0.2958 -0.0192  0.3306
  155MOL   F10349691   2.510   3.890   7.284 -0.6274  0.0015 -0.1433
  155MOL   C10449692   2.663   3.970   7.446  0.0499 -0.4936 -0.2260
  155MOL   C10549693   2.774   3.955   7.526  0.4438  0.4163 -0.0691
  155MOL   C10649694   3.083   3.913   7.578  0.1989 -0.1830 -0.1823
  155MOL   H10749695   2.991   3.709   7.593 -0.9610  0.5563 -1.8110
  155MOL   H10849696   2.871   3.645   7.415  0.8012  0.2499  2.9129
  155MOL   H10949697   2.692   3.697   7.246  0.5073  0.3998 -0.6194
  155MOL   H11049698   2.606   4.061   7.452 -1.2230 -1.2884 -0.0771
  155MOL   H11149699   2.787   4.036   7.595 -0.9311  1.3094 -0.8319
  155MOL   H11249700   3.104   3.924   7.472  1.2707  0.3063  0.0663
  155MOL   H11349701   3.052   4.012   7.611  1.3294  0.4033 -0.8541
  155MOL   C11449702   3.218   3.872   7.650 -0.0819  0.5052 -0.4411
  155MOL   C11549703   3.247   3.729   7.618 -0.8231  0.8028  0.7114
  155MOL   C11649704   3.273   3.681   7.488  0.6316  0.4106 -0.0170
  155MOL   C11749705   3.275   3.540   7.470 -0.7446 -0.1342  0.3420
  155MOL   C11849706   3.276   3.456   7.581 -0.5697  0.1758  0.6172
  155MOL   F11949707   3.292   3.325   7.560  0.1792 -0.1542  0.3819
  155MOL   C12049708   3.260   3.500   7.710 -0.3526 -0.3849  0.6755
  155MOL   C12149709   3.243   3.639   7.729  0.1856 -0.1378 -0.7840
  155MOL   C12249710   3.330   3.969   7.592  0.4421  0.0371  0.1509
  155MOL   H12349711   3.218   3.885   7.758  0.1544  0.0807 -0.3868
  155MOL   H12449712   3.277   3.747   7.402 -0.1159 -0.4451 -0.7181
  155MOL   H12549713   3.306   3.514   7.369 -0.7784 -0.4228  0.4040
  155MOL   H12649714   3.262   3.426   7.788  1.9680  0.4595  1.4598
  155MOL   H12749715   3.223   3.680   7.827  1.2391  0.0791 -0.6509
  155MOL   H12849716   3.422   3.937   7.641 -0.3821 -1.5854  0.6824
  155MOL   H12949717   3.353   3.958   7.486  0.8137 -0.0970  0.2447
  155MOL   C13049718   3.330   4.119   7.626  0.5809 -0.8417 -0.4970
  155MOL   C13149719   3.298   4.144   7.773  0.4555  0.2455  0.4986
  155MOL   C13249720   3.186   4.228   7.808 -0.4318  0.3262  0.9686
  155MOL   C13349721   3.149   4.235   7.949 -0.4826  0.4753  0.4155
  155MOL   C13449722   3.229   4.182   8.050 -0.1939 -0.2153  0.0188
  155MOL   F13549723   3.193   4.197   8.178  0.0418  0.5015  0.2871
  155MOL   C13649724   3.339   4.103   8.010 -0.0727  0.0504  0.6602
  155MOL   C13749725   3.367   4.080   7.870 -0.1731  0.0061 -0.9430
  155MOL   C13849726   3.467   4.180   7.584  0.0488 -0.0326  0.3346
  155MOL   H13949727   3.260   4.176   7.566 -0.0228  1.1225  1.9674
  155MOL   H14049728   3.135   4.271   7.723 -1.0663 -0.2659  1.0408
  155MOL   H14149729   3.069   4.305   7.969 -0.9192  0.4252 -1.0495
  155MOL   H14249730   3.410   4.053   8.074  1.6349  1.2034 -0.3146
  155MOL   H14349731   3.445   4.008   7.850 -3.5306 -3.8201 -1.0321
  155MOL   H14449732   3.543   4.114   7.628 -0.1092 -1.3543 -1.3111
  155MOL   H14549733   3.474   4.163   7.476  0.1403  3.5493 -0.2796
  155MOL   C14649734   3.497   4.327   7.617 -0.4527  0.9841  0.5072
  155MOL   C14749735   3.645   4.345   7.643  0.3154  0.6492 -0.1839
  155MOL   C14849736   3.736   4.322   7.544 -0.6834  0.3322  0.4404
  155MOL   C14949737   3.874   4.337   7.573  0.3647 -0.7959 -0.1540
  155MOL   C15049738   3.925   4.374   7.698  0.2535 -0.5778 -0.0833
  155MOL   F15149739   4.053   4.386   7.721  0.9360  0.7338 -0.2519
  155MOL   C15249740   3.829   4.400   7.799  0.3570  0.0689  0.1947
  155MOL   C15349741   3.689   4.393   7.768  0.5532  0.3984 -0.2657
  155MOL   C15449742   3.442   4.423   7.505  0.1607  0.8431 -0.2650
  155MOL   H15549743   3.449   4.345   7.713  1.9865 -0.0833  1.9669
  155MOL   H15649744   3.716   4.286   7.444  2.9054 -1.6010  0.3312
  155MOL   H15749745   3.942   4.321   7.491  0.0558  1.5638 -0.9121
  155MOL   H15849746   3.875   4.426   7.893  0.7211 -1.1945  0.3660
  155MOL   H15949747   3.628   4.439   7.843  0.5759  0.2380 -0.1494
  155MOL   H16049748   3.517   4.440   7.427 -1.2507  1.3433 -1.5404
  155MOL   H16149749   3.358   4.376   7.453 -0.4137 -2.7215  3.5813
  155MOL   C16249750   3.398   4.564   7.556  1.0502 -0.3137 -0.4428
  155MOL   C16349751   3.509   4.651   7.603 -0.3521  0.4355  1.0085
  155MOL   C16449752   3.507   4.711   7.729 -0.6253  0.6256 -0.5223
  155MOL   C16549753   3.615   4.785   7.777 -0.3627 -0.4973 -0.2901
  155MOL   C16649754   3.725   4.807   7.692  0.1194  0.5225  0.1243
  155MOL   F16749755   3.833   4.875   7.743  0.3722 -0.2388 -0.2924
  155MOL   C16849756   3.737   4.739   7.564 -0.2511  0.7278 -0.0648
  155MOL   C16949757   3.628   4.665   7.516  0.6442  0.1687  0.0927
  155MOL   C17049758   3.325   4.652   7.448 -0.2400  0.9667  0.4790
  155MOL   H17149759   3.340   4.549   7.647  0.7866  0.2925 -0.5111
  155MOL   H17249760   3.420   4.697   7.791 -0.2628  0.5950 -0.0170
  155MOL   H17349761   3.600   4.830   7.874  3.8826  1.2502 -0.3658
  155MOL   H17449762   3.829   4.759   7.511 -0.6685  0.1943 -0.9989
  155MOL   H17549763   3.641   4.618   7.420 -1.3828 -0.1512 -0.0445
  155MOL   H17649764   3.294   4.744   7.496  1.2961  0.2579  2.9079
  155MOL   H17749765   3.395   4.700   7.379  0.0413  0.7102  0.5851
  155MOL   C17849766   3.191   4.591   7.382 -0.2548  0.2827 -0.0422
  155MOL   C17949767   3.099   4.510   7.470 -0.3372  0.5571  0.0591
  155MOL   C18049768   3.054   4.561   7.590 -0.2718 -0.0787  0.3969
  155MOL   C18149769   2.955   4.498   7.674 -0.2027 -0.1254 -0.0301
  155MOL   C18249770   2.906   4.376   7.624 -0.4097  0.1027 -0.5281
  155MOL   F18349771   2.819   4.299   7.693  0.3294 -0.2060  0.3247
  155MOL   C18449772   2.952   4.319   7.504 -0.7688 -0.2359  0.8654
  155MOL   C18549773   3.040   4.391   7.425  0.1638  0.0085  0.0349
  155MOL   C18649774   3.122   4.702   7.305  0.4504 -0.3586  0.4960
  155MOL   H18749775   3.231   4.521   7.309  0.2718  0.7450 -0.1982
  155MOL   H18849776   3.087   4.658   7.623  0.8290 -0.2990 -0.0289
  155MOL   H18949777   2.907   4.547   7.758  1.1196 -0.9658  1.2536
  155MOL   H19049778   2.908   4.225   7.474 -0.5687 -0.0026 -0.1560
  155MOL   H19149779   3.062   4.356   7.326  0.8814  1.0296 -0.1708
  155MOL   H19249780   3.085   4.769   7.383  2.3263  0.5839  0.6289
  155MOL   H19349781   3.199   4.767   7.263  0.1985 -0.7416 -0.5602
  155MOL   C19449782   2.998   4.679   7.222 -0.2053  0.9186 -0.3785
  155MOL   C19549783   2.900   4.797   7.217 -0.0807  0.6967 -0.3224
  155MOL   C19649784   2.948   4.921   7.161 -1.0914 -0.2290  0.1786
  155MOL   C19749785   2.858   5.030   7.141 -0.0721  0.7077 -0.5785
  155MOL   C19849786   2.722   5.022   7.172  0.1358  0.2959 -0.1579
  155MOL   F19949787   2.639   5.125   7.151 -0.4743  0.4211  0.3883
  155MOL   C20049788   2.682   4.903   7.234 -0.1108 -0.8728  0.0475
  155MOL   C20149789   2.765   4.790   7.245  0.2862  0.2903 -0.0291
  155MOL   C20249790   3.022   4.626   7.075  0.4666  0.1921  0.3519
  155MOL   H20349791   2.936   4.602   7.268  0.6017  0.5577  0.1108
  155MOL   H20449792   3.049   4.924   7.123 -0.2814  1.2518  2.3256
  155MOL   H20549793   2.896   5.113   7.083 -2.1775  1.0651 -1.5041
  155MOL   H20649794   2.580   4.890   7.267 -0.1369  0.3603  0.4924
  155MOL   H20749795   2.721   4.699   7.285 -0.5721  0.6939 -0.0428
  155MOL   H20849796   2.948   4.673   7.011  1.3264  1.6942  0.4459
  155MOL   H20949797   3.116   4.672   7.046  1.4895 -0.6337  2.2171
  155MOL   C21049798   3.021   4.470   7.061  0.7226  0.1483 -0.2926
  155MOL   C21149799   2.898   4.394   7.090 -0.6208 -0.6597  0.1836
  155MOL   C21249800   2.772   4.457   7.079 -0.7512  0.6237 -0.3033
  155MOL   C21349801   2.656   4.398   7.132  0.0279 -0.2588 -0.0162
  155MOL   C21449802   2.663   4.268   7.185 -0.1683 -0.2452  0.9386
  155MOL   F21549803   2.544   4.212   7.228  0.3679  0.2308  0.0523
  155MOL   C21649804   2.790   4.195   7.185  0.4021 -0.4447  0.1905
  155MOL   C21749805   2.905   4.258   7.136  0.4822  0.5124 -0.2101
  155MOL   C21849806   3.073   4.417   6.926 -0.1650 -0.9214 -0.0636
  155MOL   H21949807   3.099   4.437   7.129  1.0143  0.6653 -0.3745
  155MOL   H22049808   2.759   4.562   7.059 -1.2088  0.8630  1.1527
  155MOL   H22149809   2.575   4.469   7.138  2.4136  2.5416  0.2862
  155MOL   H22249810   2.809   4.096   7.222  3.0337  0.0648  0.3003
  155MOL   H22349811   2.999   4.205   7.145  0.7994  0.5513 -3.0287
  155MOL   H22449812   3.110   4.319   6.954 -1.4692 -1.8353 -1.4148
  155MOL   H22549813   2.994   4.394   6.854 -2.2626  1.5054  1.3659
  155MOL   C22649814   3.199   4.484   6.855  0.2511  0.3568  0.0617
  155MOL   C22749815   3.312   4.505   6.948 -0.6588 -0.3325  0.2417
  155MOL   C22849816   3.380   4.397   7.012  0.0398  0.0051 -0.4663
  155MOL   C22949817   3.495   4.420   7.087 -0.0506 -0.4384 -0.6114
  155MOL   C23049818   3.542   4.552   7.101 -0.1737  0.6065 -0.7399
  155MOL   F23149819   3.647   4.581   7.173 -0.2240 -0.1624  0.0929
  155MOL   C23249820   3.476   4.656   7.042 -0.2897 -0.5725 -0.0559
  155MOL   C23349821   3.362   4.635   6.963 -0.6050  0.5829 -0.0750
  155MOL   C23449822   3.242   4.397   6.732 -0.2378 -0.0505  0.5261
  155MOL   H23549823   3.162   4.579   6.815 -0.1465 -0.1105 -0.6979
  155MOL   H23649824   3.351   4.293   7.010  0.0573 -0.0127  0.0849
  155MOL   H23749825   3.547   4.335   7.130 -0.1640  0.0009  0.4019
  155MOL   H23849826   3.518   4.754   7.053  1.7567 -1.6864  2.4394
  155MOL   H23949827   3.315   4.719   6.915 -0.3204  0.5867 -0.3571
  155MOL   H24049828   3.349   4.410   6.716 -0.5445 -0.5604 -2.1201
  155MOL   H24149829   3.237   4.294   6.766  0.0434  0.3153  1.6867
  155MOL   C24249830   3.170   4.406   6.597  0.4237 -0.7423 -0.2061
  155MOL   C24349831   3.170   4.554   6.560 -0.0158 -0.2481 -0.0384
  155MOL   C24449832   3.048   4.612   6.521  0.0251 -0.2861  0.0623
  155MOL   C24549833   3.048   4.740   6.466 -0.4478 -0.0631 -0.2430
  155MOL   C24649834   3.164   4.815   6.468  0.1007 -0.3944 -0.2849
  155MOL   F24749835   3.167   4.946   6.421  0.0528  0.0793 -0.0617
  155MOL   C24849836   3.283   4.763   6.523  0.7780 -1.2775  0.2705
  155MOL   C24949837   3.292   4.625   6.557  0.7625 -0.9321 -0.0309
  155MOL   C25049838   3.241   4.320   6.493 -0.0157 -0.1516  0.1557
  155MOL   H25149839   3.067   4.378   6.619  0.3070  0.1782  0.4644
  155MOL   H25249840   2.957   4.553   6.512 -0.6048  0.4740  1.2891
  155MOL   H25349841   2.953   4.775   6.429 -0.9123  0.0285  0.9953
  155MOL   H25449842   3.374   4.821   6.531 -0.7442  0.7732  3.5469
  155MOL   H25549843   3.386   4.576   6.575  0.1148 -2.0926  0.2360
  155MOL   H25649844   3.221   4.348   6.390  0.4426  2.0429  0.6369
  155MOL   H25749845   3.348   4.330   6.510 -0.1891  2.3139 -0.0676
  155MOL   C25849846   3.200   4.167   6.508  0.3816 -0.5831 -0.3343
  155MOL   C25949847   3.049   4.146   6.506 -0.6774  0.4801 -0.0995
  155MOL   C26049848   2.985   4.159   6.381 -0.2271 -0.0642  0.0195
  155MOL   C26149849   2.846   4.139   6.369 -0.4052 -0.5659  0.4010
  155MOL   C26249850   2.767   4.118   6.479 -0.0047 -0.7819  0.2935
  155MOL   F26349851   2.639   4.095   6.462  0.4197 -0.0337 -0.2471
  155MOL   C26449852   2.832   4.126   6.606 -0.1259  0.7154  0.1498
  155MOL   C26549853   2.973   4.130   6.623  0.3401 -0.5520  0.0856
  155MOL   C26649854   3.279   4.084   6.405 -0.0309 -0.4531 -0.6336
  155MOL   H26749855   3.233   4.137   6.607 -0.8626  0.4011  0.4116
  155MOL   H26849856   3.043   4.171   6.291 -1.2460 -0.0239 -0.6381
  155MOL   H26949857   2.790   4.146   6.276 -0.6593 -1.4110  0.4788
  155MOL   H27049858   2.779   4.124   6.700  0.3158  0.9267  0.4043
  155MOL   H27149859   3.019   4.126   6.721  1.2288  1.4324 -0.2180
  155MOL   H27249860   3.265   3.977   6.419 -0.6874 -0.1489  1.2669
  155MOL   H27349861   3.242   4.105   6.305 -1.6040 -1.2180 -0.2311
  155MOL   C27449862   3.433   4.093   6.414  0.3184  0.1446 -0.6274
  155MOL   C27549863   3.501   4.080   6.549  0.1429  0.0942 -0.0865
  155MOL   C27649864   3.576   4.193   6.588  1.0836 -0.4707  0.1295
  155MOL   C27749865   3.636   4.199   6.714  0.0256 -0.3012  0.2564
  155MOL   C27849866   3.627   4.086   6.796  0.8813  0.0511  0.3221
  155MOL   F27949867   3.700   4.083   6.912  0.1055  0.3415 -0.7588
  155MOL   C28049868   3.552   3.973   6.755 -0.1979  0.1891  0.1746
  155MOL   C28149869   3.481   3.968   6.634 -0.2877  0.6285 -0.3531
  155MOL   C28249870   3.488   3.985   6.311  0.0317 -0.2164  0.2749
  155MOL   H28349871   3.463   4.187   6.367  0.1391  1.3934  1.6712
  155MOL   H28449872   3.592   4.283   6.530  3.0169 -0.2344  0.9866
  155MOL   H28549873   3.703   4.280   6.741 -1.0343  0.7104 -0.1170
  155MOL   H28649874   3.553   3.884   6.817  0.7691  0.4533  0.5419
  155MOL   H28749875   3.434   3.876   6.602  1.7777 -0.8984  0.8348
  155MOL   H28849876   3.473   3.881   6.339 -0.3970  0.3636  2.2944
  155MOL   H28949877   3.422   3.997   6.226  0.7861  2.4632  0.0191
  155MOL   C29049878   3.634   4.023   6.273  0.5194  1.2753  0.3622
  155MOL   C29149879   3.737   3.918   6.323  0.9002  0.0064 -0.4770
  155MOL   C29249880   3.841   3.956   6.410 -0.4341  0.1746  0.5107
  155MOL   C29349881   3.942   3.866   6.447  0.8706 -0.7091 -0.1933
  155MOL   C29449882   3.929   3.730   6.408  0.6077  0.7058 -0.3430
  155MOL   F29549883   4.018   3.643   6.462 -0.2497 -0.3424  0.1028
  155MOL   C29649884   3.829   3.693   6.313 -0.8260 -0.6239 -0.1190
  155MOL   C29749885   3.726   3.788   6.271 -0.0922  0.1020 -0.0368
  155MOL   C29849886   3.649   4.051   6.123 -0.5857  0.4620  1.1600
  155MOL   H29949887   3.661   4.114   6.326  0.3316  1.1593  0.6584
  155MOL   H30049888   3.851   4.058   6.446 -0.5269  0.3454  0.0573
  155MOL   H30149889   4.026   3.894   6.509 -0.8693 -0.4877  2.1714
  155MOL   H30249890   3.825   3.594   6.270  1.6089  0.3984 -2.8609
  155MOL   H30349891   3.651   3.757   6.200 -0.6369  1.4996 -0.0856
  155MOL   H30449892   3.752   4.082   6.105  0.0174 -2.0796 -0.0584
  155MOL   H30549893   3.635   3.957   6.068 -1.5189  1.2101  0.0995
  155MOL   C30649894   3.560   4.160   6.054  0.0830 -0.6204  0.5171
  155MOL   C30749895   3.565   4.302   6.121  0.3688 -0.2285 -0.3220
  155MOL   C30849896   3.681   4.376   6.155 -0.1896 -0.1609  0.0830
  155MOL   C30949897   3.668   4.505   6.212 -0.2835  0.1262  0.0278
  155MOL   C31049898   3.546   4.561   6.243  0.7340  0.5740 -0.2664
  155MOL   F31149899   3.545   4.693   6.298 -0.1216 -0.1192  0.0381
  155MOL   C31249900   3.427   4.494   6.212 -0.3062 -0.6116  0.1430
  155MOL   C31349901   3.440   4.368   6.148 -0.1711  0.5438 -0.7924
  155MOL   C31449902   3.590   4.184   5.907  0.0113  0.0780  0.3462
  155MOL   H31549903   3.460   4.116   6.054  0.8455 -2.4195 -0.1915
  155MOL   H31649904   3.782   4.343   6.134 -0.7084 -2.3720  0.9436
  155MOL   H31749905   3.758   4.565   6.219  1.3273 -2.2530  0.3004
  155MOL   H31849906   3.334   4.548   6.225  0.7168  1.3534 -0.5167
  155MOL   H31949907   3.346   4.328   6.114  0.7987  0.6293 -3.6953
  155MOL   H32049908   3.585   4.088   5.855 -2.3386  0.0382  0.6183
  155MOL   H32149909   3.517   4.253   5.866  1.0931  0.7319 -0.5326
  155MOL   H32249910   3.689   4.228   5.890 -1.0407  1.8935 -1.3273
   8.23450   8.23450   8.23450
