;
; Gromacs include topology (itp) file.
; For Molecular Group RES
; Force field scheme: opls2005
; Produced from DL_FIELD v4.13
;


[ moleculetype ]
; name    nrexcl
RES    3

[ atoms ]
; nr   type   resnr   residu    atom    cgnr    charge    mass
    1        CT    1  RES      C1     1  -0.1800000   12.0115
    2       CME    1  RES      C2     2   0.1200000   12.0115
    3        Cl    1  RES     Cl3     3  -0.1200000   35.0650
    4        CM    1  RES      C4     4  -0.1150000   12.0115
    5        CT    1  RES      C5     5  -0.1200000   12.0115
    6        HC    1  RES      H6     6   0.0600000    1.0080
    7        HC    1  RES      H7     7   0.0600000    1.0080
    8        HE    1  RES      H8     8   0.1150000    1.0080
    9        HC    1  RES      H9     9   0.0600000    1.0080
   10        HC    1  RES     H10    10   0.0600000    1.0080
   11        HC    1  RES     H11    11   0.0600000    1.0080
   12        CT    1  RES     C12    12  -0.1200000   12.0115
   13       CME    1  RES     C13    13   0.1200000   12.0115
   14        Cl    1  RES    Cl14    14  -0.1200000   35.0650
   15        CM    1  RES     C15    15  -0.1150000   12.0115
   16        CT    1  RES     C16    16  -0.1200000   12.0115
   17        HC    1  RES     H17    17   0.0600000    1.0080
   18        HC    1  RES     H18    18   0.0600000    1.0080
   19        HE    1  RES     H19    19   0.1150000    1.0080
   20        HC    1  RES     H20    20   0.0600000    1.0080
   21        HC    1  RES     H21    21   0.0600000    1.0080
   22        CT    1  RES     C22    22  -0.1200000   12.0115
   23       CME    1  RES     C23    23   0.1200000   12.0115
   24        Cl    1  RES    Cl24    24  -0.1200000   35.0650
   25        CM    1  RES     C25    25  -0.1150000   12.0115
   26        CT    1  RES     C26    26  -0.1200000   12.0115
   27        HC    1  RES     H27    27   0.0600000    1.0080
   28        HC    1  RES     H28    28   0.0600000    1.0080
   29        HE    1  RES     H29    29   0.1150000    1.0080
   30        HC    1  RES     H30    30   0.0600000    1.0080
   31        HC    1  RES     H31    31   0.0600000    1.0080
   32        CT    1  RES     C32    32  -0.1200000   12.0115
   33       CME    1  RES     C33    33   0.1200000   12.0115
   34        Cl    1  RES    Cl34    34  -0.1200000   35.0650
   35        CM    1  RES     C35    35  -0.1150000   12.0115
   36        CT    1  RES     C36    36  -0.1200000   12.0115
   37        HC    1  RES     H37    37   0.0600000    1.0080
   38        HC    1  RES     H38    38   0.0600000    1.0080
   39        HE    1  RES     H39    39   0.1150000    1.0080
   40        HC    1  RES     H40    40   0.0600000    1.0080
   41        HC    1  RES     H41    41   0.0600000    1.0080
   42        CT    1  RES     C42    42  -0.1200000   12.0115
   43       CME    1  RES     C43    43   0.1200000   12.0115
   44        Cl    1  RES    Cl44    44  -0.1200000   35.0650
   45        CM    1  RES     C45    45  -0.1150000   12.0115
   46        CT    1  RES     C46    46  -0.1200000   12.0115
   47        HC    1  RES     H47    47   0.0600000    1.0080
   48        HC    1  RES     H48    48   0.0600000    1.0080
   49        HE    1  RES     H49    49   0.1150000    1.0080
   50        HC    1  RES     H50    50   0.0600000    1.0080
   51        HC    1  RES     H51    51   0.0600000    1.0080
   52        CT    1  RES     C52    52  -0.1200000   12.0115
   53       CME    1  RES     C53    53   0.1200000   12.0115
   54        Cl    1  RES    Cl54    54  -0.1200000   35.0650
   55        CM    1  RES     C55    55  -0.1150000   12.0115
   56        CT    1  RES     C56    56  -0.1200000   12.0115
   57        HC    1  RES     H57    57   0.0600000    1.0080
   58        HC    1  RES     H58    58   0.0600000    1.0080
   59        HE    1  RES     H59    59   0.1150000    1.0080
   60        HC    1  RES     H60    60   0.0600000    1.0080
   61        HC    1  RES     H61    61   0.0600000    1.0080
   62        CT    1  RES     C62    62  -0.1200000   12.0115
   63       CME    1  RES     C63    63   0.1200000   12.0115
   64        Cl    1  RES    Cl64    64  -0.1200000   35.0650
   65        CM    1  RES     C65    65  -0.1150000   12.0115
   66        CT    1  RES     C66    66  -0.1200000   12.0115
   67        HC    1  RES     H67    67   0.0600000    1.0080
   68        HC    1  RES     H68    68   0.0600000    1.0080
   69        HE    1  RES     H69    69   0.1150000    1.0080
   70        HC    1  RES     H70    70   0.0600000    1.0080
   71        HC    1  RES     H71    71   0.0600000    1.0080
   72        CT    1  RES     C72    72  -0.1200000   12.0115
   73       CME    1  RES     C73    73   0.1200000   12.0115
   74        Cl    1  RES    Cl74    74  -0.1200000   35.0650
   75        CM    1  RES     C75    75  -0.1150000   12.0115
   76        CT    1  RES     C76    76  -0.1200000   12.0115
   77        HC    1  RES     H77    77   0.0600000    1.0080
   78        HC    1  RES     H78    78   0.0600000    1.0080
   79        HE    1  RES     H79    79   0.1150000    1.0080
   80        HC    1  RES     H80    80   0.0600000    1.0080
   81        HC    1  RES     H81    81   0.0600000    1.0080
   82        CT    1  RES     C82    82  -0.1200000   12.0115
   83       CME    1  RES     C83    83   0.1200000   12.0115
   84        Cl    1  RES    Cl84    84  -0.1200000   35.0650
   85        CM    1  RES     C85    85  -0.1150000   12.0115
   86        CT    1  RES     C86    86  -0.1200000   12.0115
   87        HC    1  RES     H87    87   0.0600000    1.0080
   88        HC    1  RES     H88    88   0.0600000    1.0080
   89        HE    1  RES     H89    89   0.1150000    1.0080
   90        HC    1  RES     H90    90   0.0600000    1.0080
   91        HC    1  RES     H91    91   0.0600000    1.0080
   92        CT    1  RES     C92    92  -0.1200000   12.0115
   93       CME    1  RES     C93    93   0.1200000   12.0115
   94        Cl    1  RES    Cl94    94  -0.1200000   35.0650
   95        CM    1  RES     C95    95  -0.1150000   12.0115
   96        CT    1  RES     C96    96  -0.1200000   12.0115
   97        HC    1  RES     H97    97   0.0600000    1.0080
   98        HC    1  RES     H98    98   0.0600000    1.0080
   99        HE    1  RES     H99    99   0.1150000    1.0080
  100        HC    1  RES    H100   100   0.0600000    1.0080
  101        HC    1  RES    H101   101   0.0600000    1.0080
  102        CT    1  RES    C102   102  -0.1200000   12.0115
  103       CME    1  RES    C103   103   0.1200000   12.0115
  104        Cl    1  RES   Cl104   104  -0.1200000   35.0650
  105        CM    1  RES    C105   105  -0.1150000   12.0115
  106        CT    1  RES    C106   106  -0.1200000   12.0115
  107        HC    1  RES    H107   107   0.0600000    1.0080
  108        HC    1  RES    H108   108   0.0600000    1.0080
  109        HE    1  RES    H109   109   0.1150000    1.0080
  110        HC    1  RES    H110   110   0.0600000    1.0080
  111        HC    1  RES    H111   111   0.0600000    1.0080
  112        CT    1  RES    C112   112  -0.1200000   12.0115
  113       CME    1  RES    C113   113   0.1200000   12.0115
  114        Cl    1  RES   Cl114   114  -0.1200000   35.0650
  115        CM    1  RES    C115   115  -0.1150000   12.0115
  116        CT    1  RES    C116   116  -0.1200000   12.0115
  117        HC    1  RES    H117   117   0.0600000    1.0080
  118        HC    1  RES    H118   118   0.0600000    1.0080
  119        HE    1  RES    H119   119   0.1150000    1.0080
  120        HC    1  RES    H120   120   0.0600000    1.0080
  121        HC    1  RES    H121   121   0.0600000    1.0080
  122        CT    1  RES    C122   122  -0.1200000   12.0115
  123       CME    1  RES    C123   123   0.1200000   12.0115
  124        Cl    1  RES   Cl124   124  -0.1200000   35.0650
  125        CM    1  RES    C125   125  -0.1150000   12.0115
  126        CT    1  RES    C126   126  -0.1200000   12.0115
  127        HC    1  RES    H127   127   0.0600000    1.0080
  128        HC    1  RES    H128   128   0.0600000    1.0080
  129        HE    1  RES    H129   129   0.1150000    1.0080
  130        HC    1  RES    H130   130   0.0600000    1.0080
  131        HC    1  RES    H131   131   0.0600000    1.0080
  132        CT    1  RES    C132   132  -0.1200000   12.0115
  133       CME    1  RES    C133   133   0.1200000   12.0115
  134        Cl    1  RES   Cl134   134  -0.1200000   35.0650
  135        CM    1  RES    C135   135  -0.1150000   12.0115
  136        CT    1  RES    C136   136  -0.1200000   12.0115
  137        HC    1  RES    H137   137   0.0600000    1.0080
  138        HC    1  RES    H138   138   0.0600000    1.0080
  139        HE    1  RES    H139   139   0.1150000    1.0080
  140        HC    1  RES    H140   140   0.0600000    1.0080
  141        HC    1  RES    H141   141   0.0600000    1.0080
  142        CT    1  RES    C142   142  -0.1200000   12.0115
  143       CME    1  RES    C143   143   0.1200000   12.0115
  144        Cl    1  RES   Cl144   144  -0.1200000   35.0650
  145        CM    1  RES    C145   145  -0.1150000   12.0115
  146        CT    1  RES    C146   146  -0.1200000   12.0115
  147        HC    1  RES    H147   147   0.0600000    1.0080
  148        HC    1  RES    H148   148   0.0600000    1.0080
  149        HE    1  RES    H149   149   0.1150000    1.0080
  150        HC    1  RES    H150   150   0.0600000    1.0080
  151        HC    1  RES    H151   151   0.0600000    1.0080
  152        CT    1  RES    C152   152  -0.1200000   12.0115
  153       CME    1  RES    C153   153   0.1200000   12.0115
  154        Cl    1  RES   Cl154   154  -0.1200000   35.0650
  155        CM    1  RES    C155   155  -0.1150000   12.0115
  156        CT    1  RES    C156   156  -0.1200000   12.0115
  157        HC    1  RES    H157   157   0.0600000    1.0080
  158        HC    1  RES    H158   158   0.0600000    1.0080
  159        HE    1  RES    H159   159   0.1150000    1.0080
  160        HC    1  RES    H160   160   0.0600000    1.0080
  161        HC    1  RES    H161   161   0.0600000    1.0080
  162        CT    1  RES    C162   162  -0.1200000   12.0115
  163       CME    1  RES    C163   163   0.1200000   12.0115
  164        Cl    1  RES   Cl164   164  -0.1200000   35.0650
  165        CM    1  RES    C165   165  -0.1150000   12.0115
  166        CT    1  RES    C166   166  -0.1200000   12.0115
  167        HC    1  RES    H167   167   0.0600000    1.0080
  168        HC    1  RES    H168   168   0.0600000    1.0080
  169        HE    1  RES    H169   169   0.1150000    1.0080
  170        HC    1  RES    H170   170   0.0600000    1.0080
  171        HC    1  RES    H171   171   0.0600000    1.0080
  172        CT    1  RES    C172   172  -0.1200000   12.0115
  173       CME    1  RES    C173   173   0.1200000   12.0115
  174        Cl    1  RES   Cl174   174  -0.1200000   35.0650
  175        CM    1  RES    C175   175  -0.1150000   12.0115
  176        CT    1  RES    C176   176  -0.1200000   12.0115
  177        HC    1  RES    H177   177   0.0600000    1.0080
  178        HC    1  RES    H178   178   0.0600000    1.0080
  179        HE    1  RES    H179   179   0.1150000    1.0080
  180        HC    1  RES    H180   180   0.0600000    1.0080
  181        HC    1  RES    H181   181   0.0600000    1.0080
  182        CT    1  RES    C182   182  -0.1200000   12.0115
  183       CME    1  RES    C183   183   0.1200000   12.0115
  184        Cl    1  RES   Cl184   184  -0.1200000   35.0650
  185        CM    1  RES    C185   185  -0.1150000   12.0115
  186        CT    1  RES    C186   186  -0.1200000   12.0115
  187        HC    1  RES    H187   187   0.0600000    1.0080
  188        HC    1  RES    H188   188   0.0600000    1.0080
  189        HE    1  RES    H189   189   0.1150000    1.0080
  190        HC    1  RES    H190   190   0.0600000    1.0080
  191        HC    1  RES    H191   191   0.0600000    1.0080
  192        CT    1  RES    C192   192  -0.1200000   12.0115
  193       CME    1  RES    C193   193   0.1200000   12.0115
  194        Cl    1  RES   Cl194   194  -0.1200000   35.0650
  195        CM    1  RES    C195   195  -0.1150000   12.0115
  196        CT    1  RES    C196   196  -0.1800000   12.0115
  197        HC    1  RES    H197   197   0.0600000    1.0080
  198        HC    1  RES    H198   198   0.0600000    1.0080
  199        HE    1  RES    H199   199   0.1150000    1.0080
  200        HC    1  RES    H200   200   0.0600000    1.0080
  201        HC    1  RES    H201   201   0.0600000    1.0080
  202        HC    1  RES    H202   202   0.0600000    1.0080

[ bonds ]
      1      2   1       0.151000  265265.600000
      1      6   1       0.109000  284512.000000
      1      7   1       0.109000  284512.000000
      1     11   1       0.109000  284512.000000
      2      3   1       0.172500  251040.000000
      2      4   1       0.134000  459403.200000
      4      5   1       0.151000  265265.600000
      4      8   1       0.108000  284512.000000
      5      9   1       0.109000  284512.000000
      5     10   1       0.109000  284512.000000
      5     12   1       0.152900  224262.400000
     12     13   1       0.151000  265265.600000
     12     17   1       0.109000  284512.000000
     12     18   1       0.109000  284512.000000
     13     14   1       0.172500  251040.000000
     13     15   1       0.134000  459403.200000
     15     16   1       0.151000  265265.600000
     15     19   1       0.108000  284512.000000
     16     20   1       0.109000  284512.000000
     16     21   1       0.109000  284512.000000
     16     22   1       0.152900  224262.400000
     22     23   1       0.151000  265265.600000
     22     27   1       0.109000  284512.000000
     22     28   1       0.109000  284512.000000
     23     24   1       0.172500  251040.000000
     23     25   1       0.134000  459403.200000
     25     26   1       0.151000  265265.600000
     25     29   1       0.108000  284512.000000
     26     30   1       0.109000  284512.000000
     26     31   1       0.109000  284512.000000
     26     32   1       0.152900  224262.400000
     32     33   1       0.151000  265265.600000
     32     37   1       0.109000  284512.000000
     32     38   1       0.109000  284512.000000
     33     34   1       0.172500  251040.000000
     33     35   1       0.134000  459403.200000
     35     36   1       0.151000  265265.600000
     35     39   1       0.108000  284512.000000
     36     40   1       0.109000  284512.000000
     36     41   1       0.109000  284512.000000
     36     42   1       0.152900  224262.400000
     42     43   1       0.151000  265265.600000
     42     47   1       0.109000  284512.000000
     42     48   1       0.109000  284512.000000
     43     44   1       0.172500  251040.000000
     43     45   1       0.134000  459403.200000
     45     46   1       0.151000  265265.600000
     45     49   1       0.108000  284512.000000
     46     50   1       0.109000  284512.000000
     46     51   1       0.109000  284512.000000
     46     52   1       0.152900  224262.400000
     52     53   1       0.151000  265265.600000
     52     57   1       0.109000  284512.000000
     52     58   1       0.109000  284512.000000
     53     54   1       0.172500  251040.000000
     53     55   1       0.134000  459403.200000
     55     56   1       0.151000  265265.600000
     55     59   1       0.108000  284512.000000
     56     60   1       0.109000  284512.000000
     56     61   1       0.109000  284512.000000
     56     62   1       0.152900  224262.400000
     62     63   1       0.151000  265265.600000
     62     67   1       0.109000  284512.000000
     62     68   1       0.109000  284512.000000
     63     64   1       0.172500  251040.000000
     63     65   1       0.134000  459403.200000
     65     66   1       0.151000  265265.600000
     65     69   1       0.108000  284512.000000
     66     70   1       0.109000  284512.000000
     66     71   1       0.109000  284512.000000
     66     72   1       0.152900  224262.400000
     72     73   1       0.151000  265265.600000
     72     77   1       0.109000  284512.000000
     72     78   1       0.109000  284512.000000
     73     74   1       0.172500  251040.000000
     73     75   1       0.134000  459403.200000
     75     76   1       0.151000  265265.600000
     75     79   1       0.108000  284512.000000
     76     80   1       0.109000  284512.000000
     76     81   1       0.109000  284512.000000
     76     82   1       0.152900  224262.400000
     82     83   1       0.151000  265265.600000
     82     87   1       0.109000  284512.000000
     82     88   1       0.109000  284512.000000
     83     84   1       0.172500  251040.000000
     83     85   1       0.134000  459403.200000
     85     86   1       0.151000  265265.600000
     85     89   1       0.108000  284512.000000
     86     90   1       0.109000  284512.000000
     86     91   1       0.109000  284512.000000
     86     92   1       0.152900  224262.400000
     92     93   1       0.151000  265265.600000
     92     97   1       0.109000  284512.000000
     92     98   1       0.109000  284512.000000
     93     94   1       0.172500  251040.000000
     93     95   1       0.134000  459403.200000
     95     96   1       0.151000  265265.600000
     95     99   1       0.108000  284512.000000
     96    100   1       0.109000  284512.000000
     96    101   1       0.109000  284512.000000
     96    102   1       0.152900  224262.400000
    102    103   1       0.151000  265265.600000
    102    107   1       0.109000  284512.000000
    102    108   1       0.109000  284512.000000
    103    104   1       0.172500  251040.000000
    103    105   1       0.134000  459403.200000
    105    106   1       0.151000  265265.600000
    105    109   1       0.108000  284512.000000
    106    110   1       0.109000  284512.000000
    106    111   1       0.109000  284512.000000
    106    112   1       0.152900  224262.400000
    112    113   1       0.151000  265265.600000
    112    117   1       0.109000  284512.000000
    112    118   1       0.109000  284512.000000
    113    114   1       0.172500  251040.000000
    113    115   1       0.134000  459403.200000
    115    116   1       0.151000  265265.600000
    115    119   1       0.108000  284512.000000
    116    120   1       0.109000  284512.000000
    116    121   1       0.109000  284512.000000
    116    122   1       0.152900  224262.400000
    122    123   1       0.151000  265265.600000
    122    127   1       0.109000  284512.000000
    122    128   1       0.109000  284512.000000
    123    124   1       0.172500  251040.000000
    123    125   1       0.134000  459403.200000
    125    126   1       0.151000  265265.600000
    125    129   1       0.108000  284512.000000
    126    130   1       0.109000  284512.000000
    126    131   1       0.109000  284512.000000
    126    132   1       0.152900  224262.400000
    132    133   1       0.151000  265265.600000
    132    137   1       0.109000  284512.000000
    132    138   1       0.109000  284512.000000
    133    134   1       0.172500  251040.000000
    133    135   1       0.134000  459403.200000
    135    136   1       0.151000  265265.600000
    135    139   1       0.108000  284512.000000
    136    140   1       0.109000  284512.000000
    136    141   1       0.109000  284512.000000
    136    142   1       0.152900  224262.400000
    142    143   1       0.151000  265265.600000
    142    147   1       0.109000  284512.000000
    142    148   1       0.109000  284512.000000
    143    144   1       0.172500  251040.000000
    143    145   1       0.134000  459403.200000
    145    146   1       0.151000  265265.600000
    145    149   1       0.108000  284512.000000
    146    150   1       0.109000  284512.000000
    146    151   1       0.109000  284512.000000
    146    152   1       0.152900  224262.400000
    152    153   1       0.151000  265265.600000
    152    157   1       0.109000  284512.000000
    152    158   1       0.109000  284512.000000
    153    154   1       0.172500  251040.000000
    153    155   1       0.134000  459403.200000
    155    156   1       0.151000  265265.600000
    155    159   1       0.108000  284512.000000
    156    160   1       0.109000  284512.000000
    156    161   1       0.109000  284512.000000
    156    162   1       0.152900  224262.400000
    162    163   1       0.151000  265265.600000
    162    167   1       0.109000  284512.000000
    162    168   1       0.109000  284512.000000
    163    164   1       0.172500  251040.000000
    163    165   1       0.134000  459403.200000
    165    166   1       0.151000  265265.600000
    165    169   1       0.108000  284512.000000
    166    170   1       0.109000  284512.000000
    166    171   1       0.109000  284512.000000
    166    172   1       0.152900  224262.400000
    172    173   1       0.151000  265265.600000
    172    177   1       0.109000  284512.000000
    172    178   1       0.109000  284512.000000
    173    174   1       0.172500  251040.000000
    173    175   1       0.134000  459403.200000
    175    176   1       0.151000  265265.600000
    175    179   1       0.108000  284512.000000
    176    180   1       0.109000  284512.000000
    176    181   1       0.109000  284512.000000
    176    182   1       0.152900  224262.400000
    182    183   1       0.151000  265265.600000
    182    187   1       0.109000  284512.000000
    182    188   1       0.109000  284512.000000
    183    184   1       0.172500  251040.000000
    183    185   1       0.134000  459403.200000
    185    186   1       0.151000  265265.600000
    185    189   1       0.108000  284512.000000
    186    190   1       0.109000  284512.000000
    186    191   1       0.109000  284512.000000
    186    192   1       0.152900  224262.400000
    192    193   1       0.151000  265265.600000
    192    197   1       0.109000  284512.000000
    192    198   1       0.109000  284512.000000
    193    194   1       0.172500  251040.000000
    193    195   1       0.134000  459403.200000
    195    196   1       0.151000  265265.600000
    195    199   1       0.108000  284512.000000
    196    200   1       0.109000  284512.000000
    196    201   1       0.109000  284512.000000
    196    202   1       0.109000  284512.000000

[ pairs ]
; ai   aj   funct   fudge_QQ  charge_i   charge_j   c6    c12
      6      3   2   0.50000     0.0600000   -0.1200000   4.875282e-04  2.994032e-07
      6      4   2   0.50000     0.0600000   -0.1150000   2.793149e-04  1.952537e-07
      7      3   2   0.50000     0.0600000   -0.1200000   4.875282e-04  2.994032e-07
      7      4   2   0.50000     0.0600000   -0.1150000   2.793149e-04  1.952537e-07
     11      3   2   0.50000     0.0600000   -0.1200000   4.875282e-04  2.994032e-07
     11      4   2   0.50000     0.0600000   -0.1150000   2.793149e-04  1.952537e-07
      1      5   2   0.50000    -0.1800000   -0.1200000   1.015252e-03  1.866303e-06
      1      8   2   0.50000    -0.1800000    0.1150000   2.262583e-04  1.374848e-07
      3      5   2   0.50000    -0.1200000   -0.1200000   1.984244e-03  3.343767e-06
      3      8   2   0.50000    -0.1200000    0.1150000   4.422072e-04  2.463251e-07
      2      9   2   0.50000     0.1200000    0.0600000   2.793149e-04  1.952537e-07
      2     10   2   0.50000     0.1200000    0.0600000   2.793149e-04  1.952537e-07
      2     12   2   0.50000     0.1200000   -0.1200000   1.136815e-03  2.180614e-06
      8      9   2   0.50000     0.1150000    0.0600000   5.559158e-05  1.231049e-08
      8     10   2   0.50000     0.1150000    0.0600000   5.559158e-05  1.231049e-08
      8     12   2   0.50000     0.1150000   -0.1200000   2.262583e-04  1.374848e-07
      4     13   2   0.50000    -0.1150000    0.1200000   1.272933e-03  2.547860e-06
      4     17   2   0.50000    -0.1150000    0.0600000   2.793149e-04  1.952537e-07
      4     18   2   0.50000    -0.1150000    0.0600000   2.793149e-04  1.952537e-07
      9     13   2   0.50000     0.0600000    0.1200000   2.793149e-04  1.952537e-07
      9     17   2   0.50000     0.0600000    0.0600000   6.128906e-05  1.496315e-08
      9     18   2   0.50000     0.0600000    0.0600000   6.128906e-05  1.496315e-08
     10     13   2   0.50000     0.0600000    0.1200000   2.793149e-04  1.952537e-07
     10     17   2   0.50000     0.0600000    0.0600000   6.128906e-05  1.496315e-08
     10     18   2   0.50000     0.0600000    0.0600000   6.128906e-05  1.496315e-08
      5     14   2   0.50000    -0.1200000   -0.1200000   1.984244e-03  3.343767e-06
      5     15   2   0.50000    -0.1200000   -0.1150000   1.136815e-03  2.180614e-06
     17     14   2   0.50000     0.0600000   -0.1200000   4.875282e-04  2.994032e-07
     17     15   2   0.50000     0.0600000   -0.1150000   2.793149e-04  1.952537e-07
     18     14   2   0.50000     0.0600000   -0.1200000   4.875282e-04  2.994032e-07
     18     15   2   0.50000     0.0600000   -0.1150000   2.793149e-04  1.952537e-07
     12     16   2   0.50000    -0.1200000   -0.1200000   1.015252e-03  1.866303e-06
     12     19   2   0.50000    -0.1200000    0.1150000   2.262583e-04  1.374848e-07
     14     16   2   0.50000    -0.1200000   -0.1200000   1.984244e-03  3.343767e-06
     14     19   2   0.50000    -0.1200000    0.1150000   4.422072e-04  2.463251e-07
     13     20   2   0.50000     0.1200000    0.0600000   2.793149e-04  1.952537e-07
     13     21   2   0.50000     0.1200000    0.0600000   2.793149e-04  1.952537e-07
     13     22   2   0.50000     0.1200000   -0.1200000   1.136815e-03  2.180614e-06
     19     20   2   0.50000     0.1150000    0.0600000   5.559158e-05  1.231049e-08
     19     21   2   0.50000     0.1150000    0.0600000   5.559158e-05  1.231049e-08
     19     22   2   0.50000     0.1150000   -0.1200000   2.262583e-04  1.374848e-07
     15     23   2   0.50000    -0.1150000    0.1200000   1.272933e-03  2.547860e-06
     15     27   2   0.50000    -0.1150000    0.0600000   2.793149e-04  1.952537e-07
     15     28   2   0.50000    -0.1150000    0.0600000   2.793149e-04  1.952537e-07
     20     23   2   0.50000     0.0600000    0.1200000   2.793149e-04  1.952537e-07
     20     27   2   0.50000     0.0600000    0.0600000   6.128906e-05  1.496315e-08
     20     28   2   0.50000     0.0600000    0.0600000   6.128906e-05  1.496315e-08
     21     23   2   0.50000     0.0600000    0.1200000   2.793149e-04  1.952537e-07
     21     27   2   0.50000     0.0600000    0.0600000   6.128906e-05  1.496315e-08
     21     28   2   0.50000     0.0600000    0.0600000   6.128906e-05  1.496315e-08
     16     24   2   0.50000    -0.1200000   -0.1200000   1.984244e-03  3.343767e-06
     16     25   2   0.50000    -0.1200000   -0.1150000   1.136815e-03  2.180614e-06
     27     24   2   0.50000     0.0600000   -0.1200000   4.875282e-04  2.994032e-07
     27     25   2   0.50000     0.0600000   -0.1150000   2.793149e-04  1.952537e-07
     28     24   2   0.50000     0.0600000   -0.1200000   4.875282e-04  2.994032e-07
     28     25   2   0.50000     0.0600000   -0.1150000   2.793149e-04  1.952537e-07
     22     26   2   0.50000    -0.1200000   -0.1200000   1.015252e-03  1.866303e-06
     22     29   2   0.50000    -0.1200000    0.1150000   2.262583e-04  1.374848e-07
     24     26   2   0.50000    -0.1200000   -0.1200000   1.984244e-03  3.343767e-06
     24     29   2   0.50000    -0.1200000    0.1150000   4.422072e-04  2.463251e-07
     23     30   2   0.50000     0.1200000    0.0600000   2.793149e-04  1.952537e-07
     23     31   2   0.50000     0.1200000    0.0600000   2.793149e-04  1.952537e-07
     23     32   2   0.50000     0.1200000   -0.1200000   1.136815e-03  2.180614e-06
     29     30   2   0.50000     0.1150000    0.0600000   5.559158e-05  1.231049e-08
     29     31   2   0.50000     0.1150000    0.0600000   5.559158e-05  1.231049e-08
     29     32   2   0.50000     0.1150000   -0.1200000   2.262583e-04  1.374848e-07
     25     33   2   0.50000    -0.1150000    0.1200000   1.272933e-03  2.547860e-06
     25     37   2   0.50000    -0.1150000    0.0600000   2.793149e-04  1.952537e-07
     25     38   2   0.50000    -0.1150000    0.0600000   2.793149e-04  1.952537e-07
     30     33   2   0.50000     0.0600000    0.1200000   2.793149e-04  1.952537e-07
     30     37   2   0.50000     0.0600000    0.0600000   6.128906e-05  1.496315e-08
     30     38   2   0.50000     0.0600000    0.0600000   6.128906e-05  1.496315e-08
     31     33   2   0.50000     0.0600000    0.1200000   2.793149e-04  1.952537e-07
     31     37   2   0.50000     0.0600000    0.0600000   6.128906e-05  1.496315e-08
     31     38   2   0.50000     0.0600000    0.0600000   6.128906e-05  1.496315e-08
     26     34   2   0.50000    -0.1200000   -0.1200000   1.984244e-03  3.343767e-06
     26     35   2   0.50000    -0.1200000   -0.1150000   1.136815e-03  2.180614e-06
     37     34   2   0.50000     0.0600000   -0.1200000   4.875282e-04  2.994032e-07
     37     35   2   0.50000     0.0600000   -0.1150000   2.793149e-04  1.952537e-07
     38     34   2   0.50000     0.0600000   -0.1200000   4.875282e-04  2.994032e-07
     38     35   2   0.50000     0.0600000   -0.1150000   2.793149e-04  1.952537e-07
     32     36   2   0.50000    -0.1200000   -0.1200000   1.015252e-03  1.866303e-06
     32     39   2   0.50000    -0.1200000    0.1150000   2.262583e-04  1.374848e-07
     34     36   2   0.50000    -0.1200000   -0.1200000   1.984244e-03  3.343767e-06
     34     39   2   0.50000    -0.1200000    0.1150000   4.422072e-04  2.463251e-07
     33     40   2   0.50000     0.1200000    0.0600000   2.793149e-04  1.952537e-07
     33     41   2   0.50000     0.1200000    0.0600000   2.793149e-04  1.952537e-07
     33     42   2   0.50000     0.1200000   -0.1200000   1.136815e-03  2.180614e-06
     39     40   2   0.50000     0.1150000    0.0600000   5.559158e-05  1.231049e-08
     39     41   2   0.50000     0.1150000    0.0600000   5.559158e-05  1.231049e-08
     39     42   2   0.50000     0.1150000   -0.1200000   2.262583e-04  1.374848e-07
     35     43   2   0.50000    -0.1150000    0.1200000   1.272933e-03  2.547860e-06
     35     47   2   0.50000    -0.1150000    0.0600000   2.793149e-04  1.952537e-07
     35     48   2   0.50000    -0.1150000    0.0600000   2.793149e-04  1.952537e-07
     40     43   2   0.50000     0.0600000    0.1200000   2.793149e-04  1.952537e-07
     40     47   2   0.50000     0.0600000    0.0600000   6.128906e-05  1.496315e-08
     40     48   2   0.50000     0.0600000    0.0600000   6.128906e-05  1.496315e-08
     41     43   2   0.50000     0.0600000    0.1200000   2.793149e-04  1.952537e-07
     41     47   2   0.50000     0.0600000    0.0600000   6.128906e-05  1.496315e-08
     41     48   2   0.50000     0.0600000    0.0600000   6.128906e-05  1.496315e-08
     36     44   2   0.50000    -0.1200000   -0.1200000   1.984244e-03  3.343767e-06
     36     45   2   0.50000    -0.1200000   -0.1150000   1.136815e-03  2.180614e-06
     47     44   2   0.50000     0.0600000   -0.1200000   4.875282e-04  2.994032e-07
     47     45   2   0.50000     0.0600000   -0.1150000   2.793149e-04  1.952537e-07
     48     44   2   0.50000     0.0600000   -0.1200000   4.875282e-04  2.994032e-07
     48     45   2   0.50000     0.0600000   -0.1150000   2.793149e-04  1.952537e-07
     42     46   2   0.50000    -0.1200000   -0.1200000   1.015252e-03  1.866303e-06
     42     49   2   0.50000    -0.1200000    0.1150000   2.262583e-04  1.374848e-07
     44     46   2   0.50000    -0.1200000   -0.1200000   1.984244e-03  3.343767e-06
     44     49   2   0.50000    -0.1200000    0.1150000   4.422072e-04  2.463251e-07
     43     50   2   0.50000     0.1200000    0.0600000   2.793149e-04  1.952537e-07
     43     51   2   0.50000     0.1200000    0.0600000   2.793149e-04  1.952537e-07
     43     52   2   0.50000     0.1200000   -0.1200000   1.136815e-03  2.180614e-06
     49     50   2   0.50000     0.1150000    0.0600000   5.559158e-05  1.231049e-08
     49     51   2   0.50000     0.1150000    0.0600000   5.559158e-05  1.231049e-08
     49     52   2   0.50000     0.1150000   -0.1200000   2.262583e-04  1.374848e-07
     45     53   2   0.50000    -0.1150000    0.1200000   1.272933e-03  2.547860e-06
     45     57   2   0.50000    -0.1150000    0.0600000   2.793149e-04  1.952537e-07
     45     58   2   0.50000    -0.1150000    0.0600000   2.793149e-04  1.952537e-07
     50     53   2   0.50000     0.0600000    0.1200000   2.793149e-04  1.952537e-07
     50     57   2   0.50000     0.0600000    0.0600000   6.128906e-05  1.496315e-08
     50     58   2   0.50000     0.0600000    0.0600000   6.128906e-05  1.496315e-08
     51     53   2   0.50000     0.0600000    0.1200000   2.793149e-04  1.952537e-07
     51     57   2   0.50000     0.0600000    0.0600000   6.128906e-05  1.496315e-08
     51     58   2   0.50000     0.0600000    0.0600000   6.128906e-05  1.496315e-08
     46     54   2   0.50000    -0.1200000   -0.1200000   1.984244e-03  3.343767e-06
     46     55   2   0.50000    -0.1200000   -0.1150000   1.136815e-03  2.180614e-06
     57     54   2   0.50000     0.0600000   -0.1200000   4.875282e-04  2.994032e-07
     57     55   2   0.50000     0.0600000   -0.1150000   2.793149e-04  1.952537e-07
     58     54   2   0.50000     0.0600000   -0.1200000   4.875282e-04  2.994032e-07
     58     55   2   0.50000     0.0600000   -0.1150000   2.793149e-04  1.952537e-07
     52     56   2   0.50000    -0.1200000   -0.1200000   1.015252e-03  1.866303e-06
     52     59   2   0.50000    -0.1200000    0.1150000   2.262583e-04  1.374848e-07
     54     56   2   0.50000    -0.1200000   -0.1200000   1.984244e-03  3.343767e-06
     54     59   2   0.50000    -0.1200000    0.1150000   4.422072e-04  2.463251e-07
     53     60   2   0.50000     0.1200000    0.0600000   2.793149e-04  1.952537e-07
     53     61   2   0.50000     0.1200000    0.0600000   2.793149e-04  1.952537e-07
     53     62   2   0.50000     0.1200000   -0.1200000   1.136815e-03  2.180614e-06
     59     60   2   0.50000     0.1150000    0.0600000   5.559158e-05  1.231049e-08
     59     61   2   0.50000     0.1150000    0.0600000   5.559158e-05  1.231049e-08
     59     62   2   0.50000     0.1150000   -0.1200000   2.262583e-04  1.374848e-07
     55     63   2   0.50000    -0.1150000    0.1200000   1.272933e-03  2.547860e-06
     55     67   2   0.50000    -0.1150000    0.0600000   2.793149e-04  1.952537e-07
     55     68   2   0.50000    -0.1150000    0.0600000   2.793149e-04  1.952537e-07
     60     63   2   0.50000     0.0600000    0.1200000   2.793149e-04  1.952537e-07
     60     67   2   0.50000     0.0600000    0.0600000   6.128906e-05  1.496315e-08
     60     68   2   0.50000     0.0600000    0.0600000   6.128906e-05  1.496315e-08
     61     63   2   0.50000     0.0600000    0.1200000   2.793149e-04  1.952537e-07
     61     67   2   0.50000     0.0600000    0.0600000   6.128906e-05  1.496315e-08
     61     68   2   0.50000     0.0600000    0.0600000   6.128906e-05  1.496315e-08
     56     64   2   0.50000    -0.1200000   -0.1200000   1.984244e-03  3.343767e-06
     56     65   2   0.50000    -0.1200000   -0.1150000   1.136815e-03  2.180614e-06
     67     64   2   0.50000     0.0600000   -0.1200000   4.875282e-04  2.994032e-07
     67     65   2   0.50000     0.0600000   -0.1150000   2.793149e-04  1.952537e-07
     68     64   2   0.50000     0.0600000   -0.1200000   4.875282e-04  2.994032e-07
     68     65   2   0.50000     0.0600000   -0.1150000   2.793149e-04  1.952537e-07
     62     66   2   0.50000    -0.1200000   -0.1200000   1.015252e-03  1.866303e-06
     62     69   2   0.50000    -0.1200000    0.1150000   2.262583e-04  1.374848e-07
     64     66   2   0.50000    -0.1200000   -0.1200000   1.984244e-03  3.343767e-06
     64     69   2   0.50000    -0.1200000    0.1150000   4.422072e-04  2.463251e-07
     63     70   2   0.50000     0.1200000    0.0600000   2.793149e-04  1.952537e-07
     63     71   2   0.50000     0.1200000    0.0600000   2.793149e-04  1.952537e-07
     63     72   2   0.50000     0.1200000   -0.1200000   1.136815e-03  2.180614e-06
     69     70   2   0.50000     0.1150000    0.0600000   5.559158e-05  1.231049e-08
     69     71   2   0.50000     0.1150000    0.0600000   5.559158e-05  1.231049e-08
     69     72   2   0.50000     0.1150000   -0.1200000   2.262583e-04  1.374848e-07
     65     73   2   0.50000    -0.1150000    0.1200000   1.272933e-03  2.547860e-06
     65     77   2   0.50000    -0.1150000    0.0600000   2.793149e-04  1.952537e-07
     65     78   2   0.50000    -0.1150000    0.0600000   2.793149e-04  1.952537e-07
     70     73   2   0.50000     0.0600000    0.1200000   2.793149e-04  1.952537e-07
     70     77   2   0.50000     0.0600000    0.0600000   6.128906e-05  1.496315e-08
     70     78   2   0.50000     0.0600000    0.0600000   6.128906e-05  1.496315e-08
     71     73   2   0.50000     0.0600000    0.1200000   2.793149e-04  1.952537e-07
     71     77   2   0.50000     0.0600000    0.0600000   6.128906e-05  1.496315e-08
     71     78   2   0.50000     0.0600000    0.0600000   6.128906e-05  1.496315e-08
     66     74   2   0.50000    -0.1200000   -0.1200000   1.984244e-03  3.343767e-06
     66     75   2   0.50000    -0.1200000   -0.1150000   1.136815e-03  2.180614e-06
     77     74   2   0.50000     0.0600000   -0.1200000   4.875282e-04  2.994032e-07
     77     75   2   0.50000     0.0600000   -0.1150000   2.793149e-04  1.952537e-07
     78     74   2   0.50000     0.0600000   -0.1200000   4.875282e-04  2.994032e-07
     78     75   2   0.50000     0.0600000   -0.1150000   2.793149e-04  1.952537e-07
     72     76   2   0.50000    -0.1200000   -0.1200000   1.015252e-03  1.866303e-06
     72     79   2   0.50000    -0.1200000    0.1150000   2.262583e-04  1.374848e-07
     74     76   2   0.50000    -0.1200000   -0.1200000   1.984244e-03  3.343767e-06
     74     79   2   0.50000    -0.1200000    0.1150000   4.422072e-04  2.463251e-07
     73     80   2   0.50000     0.1200000    0.0600000   2.793149e-04  1.952537e-07
     73     81   2   0.50000     0.1200000    0.0600000   2.793149e-04  1.952537e-07
     73     82   2   0.50000     0.1200000   -0.1200000   1.136815e-03  2.180614e-06
     79     80   2   0.50000     0.1150000    0.0600000   5.559158e-05  1.231049e-08
     79     81   2   0.50000     0.1150000    0.0600000   5.559158e-05  1.231049e-08
     79     82   2   0.50000     0.1150000   -0.1200000   2.262583e-04  1.374848e-07
     75     83   2   0.50000    -0.1150000    0.1200000   1.272933e-03  2.547860e-06
     75     87   2   0.50000    -0.1150000    0.0600000   2.793149e-04  1.952537e-07
     75     88   2   0.50000    -0.1150000    0.0600000   2.793149e-04  1.952537e-07
     80     83   2   0.50000     0.0600000    0.1200000   2.793149e-04  1.952537e-07
     80     87   2   0.50000     0.0600000    0.0600000   6.128906e-05  1.496315e-08
     80     88   2   0.50000     0.0600000    0.0600000   6.128906e-05  1.496315e-08
     81     83   2   0.50000     0.0600000    0.1200000   2.793149e-04  1.952537e-07
     81     87   2   0.50000     0.0600000    0.0600000   6.128906e-05  1.496315e-08
     81     88   2   0.50000     0.0600000    0.0600000   6.128906e-05  1.496315e-08
     76     84   2   0.50000    -0.1200000   -0.1200000   1.984244e-03  3.343767e-06
     76     85   2   0.50000    -0.1200000   -0.1150000   1.136815e-03  2.180614e-06
     87     84   2   0.50000     0.0600000   -0.1200000   4.875282e-04  2.994032e-07
     87     85   2   0.50000     0.0600000   -0.1150000   2.793149e-04  1.952537e-07
     88     84   2   0.50000     0.0600000   -0.1200000   4.875282e-04  2.994032e-07
     88     85   2   0.50000     0.0600000   -0.1150000   2.793149e-04  1.952537e-07
     82     86   2   0.50000    -0.1200000   -0.1200000   1.015252e-03  1.866303e-06
     82     89   2   0.50000    -0.1200000    0.1150000   2.262583e-04  1.374848e-07
     84     86   2   0.50000    -0.1200000   -0.1200000   1.984244e-03  3.343767e-06
     84     89   2   0.50000    -0.1200000    0.1150000   4.422072e-04  2.463251e-07
     83     90   2   0.50000     0.1200000    0.0600000   2.793149e-04  1.952537e-07
     83     91   2   0.50000     0.1200000    0.0600000   2.793149e-04  1.952537e-07
     83     92   2   0.50000     0.1200000   -0.1200000   1.136815e-03  2.180614e-06
     89     90   2   0.50000     0.1150000    0.0600000   5.559158e-05  1.231049e-08
     89     91   2   0.50000     0.1150000    0.0600000   5.559158e-05  1.231049e-08
     89     92   2   0.50000     0.1150000   -0.1200000   2.262583e-04  1.374848e-07
     85     93   2   0.50000    -0.1150000    0.1200000   1.272933e-03  2.547860e-06
     85     97   2   0.50000    -0.1150000    0.0600000   2.793149e-04  1.952537e-07
     85     98   2   0.50000    -0.1150000    0.0600000   2.793149e-04  1.952537e-07
     90     93   2   0.50000     0.0600000    0.1200000   2.793149e-04  1.952537e-07
     90     97   2   0.50000     0.0600000    0.0600000   6.128906e-05  1.496315e-08
     90     98   2   0.50000     0.0600000    0.0600000   6.128906e-05  1.496315e-08
     91     93   2   0.50000     0.0600000    0.1200000   2.793149e-04  1.952537e-07
     91     97   2   0.50000     0.0600000    0.0600000   6.128906e-05  1.496315e-08
     91     98   2   0.50000     0.0600000    0.0600000   6.128906e-05  1.496315e-08
     86     94   2   0.50000    -0.1200000   -0.1200000   1.984244e-03  3.343767e-06
     86     95   2   0.50000    -0.1200000   -0.1150000   1.136815e-03  2.180614e-06
     97     94   2   0.50000     0.0600000   -0.1200000   4.875282e-04  2.994032e-07
     97     95   2   0.50000     0.0600000   -0.1150000   2.793149e-04  1.952537e-07
     98     94   2   0.50000     0.0600000   -0.1200000   4.875282e-04  2.994032e-07
     98     95   2   0.50000     0.0600000   -0.1150000   2.793149e-04  1.952537e-07
     92     96   2   0.50000    -0.1200000   -0.1200000   1.015252e-03  1.866303e-06
     92     99   2   0.50000    -0.1200000    0.1150000   2.262583e-04  1.374848e-07
     94     96   2   0.50000    -0.1200000   -0.1200000   1.984244e-03  3.343767e-06
     94     99   2   0.50000    -0.1200000    0.1150000   4.422072e-04  2.463251e-07
     93    100   2   0.50000     0.1200000    0.0600000   2.793149e-04  1.952537e-07
     93    101   2   0.50000     0.1200000    0.0600000   2.793149e-04  1.952537e-07
     93    102   2   0.50000     0.1200000   -0.1200000   1.136815e-03  2.180614e-06
     99    100   2   0.50000     0.1150000    0.0600000   5.559158e-05  1.231049e-08
     99    101   2   0.50000     0.1150000    0.0600000   5.559158e-05  1.231049e-08
     99    102   2   0.50000     0.1150000   -0.1200000   2.262583e-04  1.374848e-07
     95    103   2   0.50000    -0.1150000    0.1200000   1.272933e-03  2.547860e-06
     95    107   2   0.50000    -0.1150000    0.0600000   2.793149e-04  1.952537e-07
     95    108   2   0.50000    -0.1150000    0.0600000   2.793149e-04  1.952537e-07
    100    103   2   0.50000     0.0600000    0.1200000   2.793149e-04  1.952537e-07
    100    107   2   0.50000     0.0600000    0.0600000   6.128906e-05  1.496315e-08
    100    108   2   0.50000     0.0600000    0.0600000   6.128906e-05  1.496315e-08
    101    103   2   0.50000     0.0600000    0.1200000   2.793149e-04  1.952537e-07
    101    107   2   0.50000     0.0600000    0.0600000   6.128906e-05  1.496315e-08
    101    108   2   0.50000     0.0600000    0.0600000   6.128906e-05  1.496315e-08
     96    104   2   0.50000    -0.1200000   -0.1200000   1.984244e-03  3.343767e-06
     96    105   2   0.50000    -0.1200000   -0.1150000   1.136815e-03  2.180614e-06
    107    104   2   0.50000     0.0600000   -0.1200000   4.875282e-04  2.994032e-07
    107    105   2   0.50000     0.0600000   -0.1150000   2.793149e-04  1.952537e-07
    108    104   2   0.50000     0.0600000   -0.1200000   4.875282e-04  2.994032e-07
    108    105   2   0.50000     0.0600000   -0.1150000   2.793149e-04  1.952537e-07
    102    106   2   0.50000    -0.1200000   -0.1200000   1.015252e-03  1.866303e-06
    102    109   2   0.50000    -0.1200000    0.1150000   2.262583e-04  1.374848e-07
    104    106   2   0.50000    -0.1200000   -0.1200000   1.984244e-03  3.343767e-06
    104    109   2   0.50000    -0.1200000    0.1150000   4.422072e-04  2.463251e-07
    103    110   2   0.50000     0.1200000    0.0600000   2.793149e-04  1.952537e-07
    103    111   2   0.50000     0.1200000    0.0600000   2.793149e-04  1.952537e-07
    103    112   2   0.50000     0.1200000   -0.1200000   1.136815e-03  2.180614e-06
    109    110   2   0.50000     0.1150000    0.0600000   5.559158e-05  1.231049e-08
    109    111   2   0.50000     0.1150000    0.0600000   5.559158e-05  1.231049e-08
    109    112   2   0.50000     0.1150000   -0.1200000   2.262583e-04  1.374848e-07
    105    113   2   0.50000    -0.1150000    0.1200000   1.272933e-03  2.547860e-06
    105    117   2   0.50000    -0.1150000    0.0600000   2.793149e-04  1.952537e-07
    105    118   2   0.50000    -0.1150000    0.0600000   2.793149e-04  1.952537e-07
    110    113   2   0.50000     0.0600000    0.1200000   2.793149e-04  1.952537e-07
    110    117   2   0.50000     0.0600000    0.0600000   6.128906e-05  1.496315e-08
    110    118   2   0.50000     0.0600000    0.0600000   6.128906e-05  1.496315e-08
    111    113   2   0.50000     0.0600000    0.1200000   2.793149e-04  1.952537e-07
    111    117   2   0.50000     0.0600000    0.0600000   6.128906e-05  1.496315e-08
    111    118   2   0.50000     0.0600000    0.0600000   6.128906e-05  1.496315e-08
    106    114   2   0.50000    -0.1200000   -0.1200000   1.984244e-03  3.343767e-06
    106    115   2   0.50000    -0.1200000   -0.1150000   1.136815e-03  2.180614e-06
    117    114   2   0.50000     0.0600000   -0.1200000   4.875282e-04  2.994032e-07
    117    115   2   0.50000     0.0600000   -0.1150000   2.793149e-04  1.952537e-07
    118    114   2   0.50000     0.0600000   -0.1200000   4.875282e-04  2.994032e-07
    118    115   2   0.50000     0.0600000   -0.1150000   2.793149e-04  1.952537e-07
    112    116   2   0.50000    -0.1200000   -0.1200000   1.015252e-03  1.866303e-06
    112    119   2   0.50000    -0.1200000    0.1150000   2.262583e-04  1.374848e-07
    114    116   2   0.50000    -0.1200000   -0.1200000   1.984244e-03  3.343767e-06
    114    119   2   0.50000    -0.1200000    0.1150000   4.422072e-04  2.463251e-07
    113    120   2   0.50000     0.1200000    0.0600000   2.793149e-04  1.952537e-07
    113    121   2   0.50000     0.1200000    0.0600000   2.793149e-04  1.952537e-07
    113    122   2   0.50000     0.1200000   -0.1200000   1.136815e-03  2.180614e-06
    119    120   2   0.50000     0.1150000    0.0600000   5.559158e-05  1.231049e-08
    119    121   2   0.50000     0.1150000    0.0600000   5.559158e-05  1.231049e-08
    119    122   2   0.50000     0.1150000   -0.1200000   2.262583e-04  1.374848e-07
    115    123   2   0.50000    -0.1150000    0.1200000   1.272933e-03  2.547860e-06
    115    127   2   0.50000    -0.1150000    0.0600000   2.793149e-04  1.952537e-07
    115    128   2   0.50000    -0.1150000    0.0600000   2.793149e-04  1.952537e-07
    120    123   2   0.50000     0.0600000    0.1200000   2.793149e-04  1.952537e-07
    120    127   2   0.50000     0.0600000    0.0600000   6.128906e-05  1.496315e-08
    120    128   2   0.50000     0.0600000    0.0600000   6.128906e-05  1.496315e-08
    121    123   2   0.50000     0.0600000    0.1200000   2.793149e-04  1.952537e-07
    121    127   2   0.50000     0.0600000    0.0600000   6.128906e-05  1.496315e-08
    121    128   2   0.50000     0.0600000    0.0600000   6.128906e-05  1.496315e-08
    116    124   2   0.50000    -0.1200000   -0.1200000   1.984244e-03  3.343767e-06
    116    125   2   0.50000    -0.1200000   -0.1150000   1.136815e-03  2.180614e-06
    127    124   2   0.50000     0.0600000   -0.1200000   4.875282e-04  2.994032e-07
    127    125   2   0.50000     0.0600000   -0.1150000   2.793149e-04  1.952537e-07
    128    124   2   0.50000     0.0600000   -0.1200000   4.875282e-04  2.994032e-07
    128    125   2   0.50000     0.0600000   -0.1150000   2.793149e-04  1.952537e-07
    122    126   2   0.50000    -0.1200000   -0.1200000   1.015252e-03  1.866303e-06
    122    129   2   0.50000    -0.1200000    0.1150000   2.262583e-04  1.374848e-07
    124    126   2   0.50000    -0.1200000   -0.1200000   1.984244e-03  3.343767e-06
    124    129   2   0.50000    -0.1200000    0.1150000   4.422072e-04  2.463251e-07
    123    130   2   0.50000     0.1200000    0.0600000   2.793149e-04  1.952537e-07
    123    131   2   0.50000     0.1200000    0.0600000   2.793149e-04  1.952537e-07
    123    132   2   0.50000     0.1200000   -0.1200000   1.136815e-03  2.180614e-06
    129    130   2   0.50000     0.1150000    0.0600000   5.559158e-05  1.231049e-08
    129    131   2   0.50000     0.1150000    0.0600000   5.559158e-05  1.231049e-08
    129    132   2   0.50000     0.1150000   -0.1200000   2.262583e-04  1.374848e-07
    125    133   2   0.50000    -0.1150000    0.1200000   1.272933e-03  2.547860e-06
    125    137   2   0.50000    -0.1150000    0.0600000   2.793149e-04  1.952537e-07
    125    138   2   0.50000    -0.1150000    0.0600000   2.793149e-04  1.952537e-07
    130    133   2   0.50000     0.0600000    0.1200000   2.793149e-04  1.952537e-07
    130    137   2   0.50000     0.0600000    0.0600000   6.128906e-05  1.496315e-08
    130    138   2   0.50000     0.0600000    0.0600000   6.128906e-05  1.496315e-08
    131    133   2   0.50000     0.0600000    0.1200000   2.793149e-04  1.952537e-07
    131    137   2   0.50000     0.0600000    0.0600000   6.128906e-05  1.496315e-08
    131    138   2   0.50000     0.0600000    0.0600000   6.128906e-05  1.496315e-08
    126    134   2   0.50000    -0.1200000   -0.1200000   1.984244e-03  3.343767e-06
    126    135   2   0.50000    -0.1200000   -0.1150000   1.136815e-03  2.180614e-06
    137    134   2   0.50000     0.0600000   -0.1200000   4.875282e-04  2.994032e-07
    137    135   2   0.50000     0.0600000   -0.1150000   2.793149e-04  1.952537e-07
    138    134   2   0.50000     0.0600000   -0.1200000   4.875282e-04  2.994032e-07
    138    135   2   0.50000     0.0600000   -0.1150000   2.793149e-04  1.952537e-07
    132    136   2   0.50000    -0.1200000   -0.1200000   1.015252e-03  1.866303e-06
    132    139   2   0.50000    -0.1200000    0.1150000   2.262583e-04  1.374848e-07
    134    136   2   0.50000    -0.1200000   -0.1200000   1.984244e-03  3.343767e-06
    134    139   2   0.50000    -0.1200000    0.1150000   4.422072e-04  2.463251e-07
    133    140   2   0.50000     0.1200000    0.0600000   2.793149e-04  1.952537e-07
    133    141   2   0.50000     0.1200000    0.0600000   2.793149e-04  1.952537e-07
    133    142   2   0.50000     0.1200000   -0.1200000   1.136815e-03  2.180614e-06
    139    140   2   0.50000     0.1150000    0.0600000   5.559158e-05  1.231049e-08
    139    141   2   0.50000     0.1150000    0.0600000   5.559158e-05  1.231049e-08
    139    142   2   0.50000     0.1150000   -0.1200000   2.262583e-04  1.374848e-07
    135    143   2   0.50000    -0.1150000    0.1200000   1.272933e-03  2.547860e-06
    135    147   2   0.50000    -0.1150000    0.0600000   2.793149e-04  1.952537e-07
    135    148   2   0.50000    -0.1150000    0.0600000   2.793149e-04  1.952537e-07
    140    143   2   0.50000     0.0600000    0.1200000   2.793149e-04  1.952537e-07
    140    147   2   0.50000     0.0600000    0.0600000   6.128906e-05  1.496315e-08
    140    148   2   0.50000     0.0600000    0.0600000   6.128906e-05  1.496315e-08
    141    143   2   0.50000     0.0600000    0.1200000   2.793149e-04  1.952537e-07
    141    147   2   0.50000     0.0600000    0.0600000   6.128906e-05  1.496315e-08
    141    148   2   0.50000     0.0600000    0.0600000   6.128906e-05  1.496315e-08
    136    144   2   0.50000    -0.1200000   -0.1200000   1.984244e-03  3.343767e-06
    136    145   2   0.50000    -0.1200000   -0.1150000   1.136815e-03  2.180614e-06
    147    144   2   0.50000     0.0600000   -0.1200000   4.875282e-04  2.994032e-07
    147    145   2   0.50000     0.0600000   -0.1150000   2.793149e-04  1.952537e-07
    148    144   2   0.50000     0.0600000   -0.1200000   4.875282e-04  2.994032e-07
    148    145   2   0.50000     0.0600000   -0.1150000   2.793149e-04  1.952537e-07
    142    146   2   0.50000    -0.1200000   -0.1200000   1.015252e-03  1.866303e-06
    142    149   2   0.50000    -0.1200000    0.1150000   2.262583e-04  1.374848e-07
    144    146   2   0.50000    -0.1200000   -0.1200000   1.984244e-03  3.343767e-06
    144    149   2   0.50000    -0.1200000    0.1150000   4.422072e-04  2.463251e-07
    143    150   2   0.50000     0.1200000    0.0600000   2.793149e-04  1.952537e-07
    143    151   2   0.50000     0.1200000    0.0600000   2.793149e-04  1.952537e-07
    143    152   2   0.50000     0.1200000   -0.1200000   1.136815e-03  2.180614e-06
    149    150   2   0.50000     0.1150000    0.0600000   5.559158e-05  1.231049e-08
    149    151   2   0.50000     0.1150000    0.0600000   5.559158e-05  1.231049e-08
    149    152   2   0.50000     0.1150000   -0.1200000   2.262583e-04  1.374848e-07
    145    153   2   0.50000    -0.1150000    0.1200000   1.272933e-03  2.547860e-06
    145    157   2   0.50000    -0.1150000    0.0600000   2.793149e-04  1.952537e-07
    145    158   2   0.50000    -0.1150000    0.0600000   2.793149e-04  1.952537e-07
    150    153   2   0.50000     0.0600000    0.1200000   2.793149e-04  1.952537e-07
    150    157   2   0.50000     0.0600000    0.0600000   6.128906e-05  1.496315e-08
    150    158   2   0.50000     0.0600000    0.0600000   6.128906e-05  1.496315e-08
    151    153   2   0.50000     0.0600000    0.1200000   2.793149e-04  1.952537e-07
    151    157   2   0.50000     0.0600000    0.0600000   6.128906e-05  1.496315e-08
    151    158   2   0.50000     0.0600000    0.0600000   6.128906e-05  1.496315e-08
    146    154   2   0.50000    -0.1200000   -0.1200000   1.984244e-03  3.343767e-06
    146    155   2   0.50000    -0.1200000   -0.1150000   1.136815e-03  2.180614e-06
    157    154   2   0.50000     0.0600000   -0.1200000   4.875282e-04  2.994032e-07
    157    155   2   0.50000     0.0600000   -0.1150000   2.793149e-04  1.952537e-07
    158    154   2   0.50000     0.0600000   -0.1200000   4.875282e-04  2.994032e-07
    158    155   2   0.50000     0.0600000   -0.1150000   2.793149e-04  1.952537e-07
    152    156   2   0.50000    -0.1200000   -0.1200000   1.015252e-03  1.866303e-06
    152    159   2   0.50000    -0.1200000    0.1150000   2.262583e-04  1.374848e-07
    154    156   2   0.50000    -0.1200000   -0.1200000   1.984244e-03  3.343767e-06
    154    159   2   0.50000    -0.1200000    0.1150000   4.422072e-04  2.463251e-07
    153    160   2   0.50000     0.1200000    0.0600000   2.793149e-04  1.952537e-07
    153    161   2   0.50000     0.1200000    0.0600000   2.793149e-04  1.952537e-07
    153    162   2   0.50000     0.1200000   -0.1200000   1.136815e-03  2.180614e-06
    159    160   2   0.50000     0.1150000    0.0600000   5.559158e-05  1.231049e-08
    159    161   2   0.50000     0.1150000    0.0600000   5.559158e-05  1.231049e-08
    159    162   2   0.50000     0.1150000   -0.1200000   2.262583e-04  1.374848e-07
    155    163   2   0.50000    -0.1150000    0.1200000   1.272933e-03  2.547860e-06
    155    167   2   0.50000    -0.1150000    0.0600000   2.793149e-04  1.952537e-07
    155    168   2   0.50000    -0.1150000    0.0600000   2.793149e-04  1.952537e-07
    160    163   2   0.50000     0.0600000    0.1200000   2.793149e-04  1.952537e-07
    160    167   2   0.50000     0.0600000    0.0600000   6.128906e-05  1.496315e-08
    160    168   2   0.50000     0.0600000    0.0600000   6.128906e-05  1.496315e-08
    161    163   2   0.50000     0.0600000    0.1200000   2.793149e-04  1.952537e-07
    161    167   2   0.50000     0.0600000    0.0600000   6.128906e-05  1.496315e-08
    161    168   2   0.50000     0.0600000    0.0600000   6.128906e-05  1.496315e-08
    156    164   2   0.50000    -0.1200000   -0.1200000   1.984244e-03  3.343767e-06
    156    165   2   0.50000    -0.1200000   -0.1150000   1.136815e-03  2.180614e-06
    167    164   2   0.50000     0.0600000   -0.1200000   4.875282e-04  2.994032e-07
    167    165   2   0.50000     0.0600000   -0.1150000   2.793149e-04  1.952537e-07
    168    164   2   0.50000     0.0600000   -0.1200000   4.875282e-04  2.994032e-07
    168    165   2   0.50000     0.0600000   -0.1150000   2.793149e-04  1.952537e-07
    162    166   2   0.50000    -0.1200000   -0.1200000   1.015252e-03  1.866303e-06
    162    169   2   0.50000    -0.1200000    0.1150000   2.262583e-04  1.374848e-07
    164    166   2   0.50000    -0.1200000   -0.1200000   1.984244e-03  3.343767e-06
    164    169   2   0.50000    -0.1200000    0.1150000   4.422072e-04  2.463251e-07
    163    170   2   0.50000     0.1200000    0.0600000   2.793149e-04  1.952537e-07
    163    171   2   0.50000     0.1200000    0.0600000   2.793149e-04  1.952537e-07
    163    172   2   0.50000     0.1200000   -0.1200000   1.136815e-03  2.180614e-06
    169    170   2   0.50000     0.1150000    0.0600000   5.559158e-05  1.231049e-08
    169    171   2   0.50000     0.1150000    0.0600000   5.559158e-05  1.231049e-08
    169    172   2   0.50000     0.1150000   -0.1200000   2.262583e-04  1.374848e-07
    165    173   2   0.50000    -0.1150000    0.1200000   1.272933e-03  2.547860e-06
    165    177   2   0.50000    -0.1150000    0.0600000   2.793149e-04  1.952537e-07
    165    178   2   0.50000    -0.1150000    0.0600000   2.793149e-04  1.952537e-07
    170    173   2   0.50000     0.0600000    0.1200000   2.793149e-04  1.952537e-07
    170    177   2   0.50000     0.0600000    0.0600000   6.128906e-05  1.496315e-08
    170    178   2   0.50000     0.0600000    0.0600000   6.128906e-05  1.496315e-08
    171    173   2   0.50000     0.0600000    0.1200000   2.793149e-04  1.952537e-07
    171    177   2   0.50000     0.0600000    0.0600000   6.128906e-05  1.496315e-08
    171    178   2   0.50000     0.0600000    0.0600000   6.128906e-05  1.496315e-08
    166    174   2   0.50000    -0.1200000   -0.1200000   1.984244e-03  3.343767e-06
    166    175   2   0.50000    -0.1200000   -0.1150000   1.136815e-03  2.180614e-06
    177    174   2   0.50000     0.0600000   -0.1200000   4.875282e-04  2.994032e-07
    177    175   2   0.50000     0.0600000   -0.1150000   2.793149e-04  1.952537e-07
    178    174   2   0.50000     0.0600000   -0.1200000   4.875282e-04  2.994032e-07
    178    175   2   0.50000     0.0600000   -0.1150000   2.793149e-04  1.952537e-07
    172    176   2   0.50000    -0.1200000   -0.1200000   1.015252e-03  1.866303e-06
    172    179   2   0.50000    -0.1200000    0.1150000   2.262583e-04  1.374848e-07
    174    176   2   0.50000    -0.1200000   -0.1200000   1.984244e-03  3.343767e-06
    174    179   2   0.50000    -0.1200000    0.1150000   4.422072e-04  2.463251e-07
    173    180   2   0.50000     0.1200000    0.0600000   2.793149e-04  1.952537e-07
    173    181   2   0.50000     0.1200000    0.0600000   2.793149e-04  1.952537e-07
    173    182   2   0.50000     0.1200000   -0.1200000   1.136815e-03  2.180614e-06
    179    180   2   0.50000     0.1150000    0.0600000   5.559158e-05  1.231049e-08
    179    181   2   0.50000     0.1150000    0.0600000   5.559158e-05  1.231049e-08
    179    182   2   0.50000     0.1150000   -0.1200000   2.262583e-04  1.374848e-07
    175    183   2   0.50000    -0.1150000    0.1200000   1.272933e-03  2.547860e-06
    175    187   2   0.50000    -0.1150000    0.0600000   2.793149e-04  1.952537e-07
    175    188   2   0.50000    -0.1150000    0.0600000   2.793149e-04  1.952537e-07
    180    183   2   0.50000     0.0600000    0.1200000   2.793149e-04  1.952537e-07
    180    187   2   0.50000     0.0600000    0.0600000   6.128906e-05  1.496315e-08
    180    188   2   0.50000     0.0600000    0.0600000   6.128906e-05  1.496315e-08
    181    183   2   0.50000     0.0600000    0.1200000   2.793149e-04  1.952537e-07
    181    187   2   0.50000     0.0600000    0.0600000   6.128906e-05  1.496315e-08
    181    188   2   0.50000     0.0600000    0.0600000   6.128906e-05  1.496315e-08
    176    184   2   0.50000    -0.1200000   -0.1200000   1.984244e-03  3.343767e-06
    176    185   2   0.50000    -0.1200000   -0.1150000   1.136815e-03  2.180614e-06
    187    184   2   0.50000     0.0600000   -0.1200000   4.875282e-04  2.994032e-07
    187    185   2   0.50000     0.0600000   -0.1150000   2.793149e-04  1.952537e-07
    188    184   2   0.50000     0.0600000   -0.1200000   4.875282e-04  2.994032e-07
    188    185   2   0.50000     0.0600000   -0.1150000   2.793149e-04  1.952537e-07
    182    186   2   0.50000    -0.1200000   -0.1200000   1.015252e-03  1.866303e-06
    182    189   2   0.50000    -0.1200000    0.1150000   2.262583e-04  1.374848e-07
    184    186   2   0.50000    -0.1200000   -0.1200000   1.984244e-03  3.343767e-06
    184    189   2   0.50000    -0.1200000    0.1150000   4.422072e-04  2.463251e-07
    183    190   2   0.50000     0.1200000    0.0600000   2.793149e-04  1.952537e-07
    183    191   2   0.50000     0.1200000    0.0600000   2.793149e-04  1.952537e-07
    183    192   2   0.50000     0.1200000   -0.1200000   1.136815e-03  2.180614e-06
    189    190   2   0.50000     0.1150000    0.0600000   5.559158e-05  1.231049e-08
    189    191   2   0.50000     0.1150000    0.0600000   5.559158e-05  1.231049e-08
    189    192   2   0.50000     0.1150000   -0.1200000   2.262583e-04  1.374848e-07
    185    193   2   0.50000    -0.1150000    0.1200000   1.272933e-03  2.547860e-06
    185    197   2   0.50000    -0.1150000    0.0600000   2.793149e-04  1.952537e-07
    185    198   2   0.50000    -0.1150000    0.0600000   2.793149e-04  1.952537e-07
    190    193   2   0.50000     0.0600000    0.1200000   2.793149e-04  1.952537e-07
    190    197   2   0.50000     0.0600000    0.0600000   6.128906e-05  1.496315e-08
    190    198   2   0.50000     0.0600000    0.0600000   6.128906e-05  1.496315e-08
    191    193   2   0.50000     0.0600000    0.1200000   2.793149e-04  1.952537e-07
    191    197   2   0.50000     0.0600000    0.0600000   6.128906e-05  1.496315e-08
    191    198   2   0.50000     0.0600000    0.0600000   6.128906e-05  1.496315e-08
    186    194   2   0.50000    -0.1200000   -0.1200000   1.984244e-03  3.343767e-06
    186    195   2   0.50000    -0.1200000   -0.1150000   1.136815e-03  2.180614e-06
    197    194   2   0.50000     0.0600000   -0.1200000   4.875282e-04  2.994032e-07
    197    195   2   0.50000     0.0600000   -0.1150000   2.793149e-04  1.952537e-07
    198    194   2   0.50000     0.0600000   -0.1200000   4.875282e-04  2.994032e-07
    198    195   2   0.50000     0.0600000   -0.1150000   2.793149e-04  1.952537e-07
    192    196   2   0.50000    -0.1200000   -0.1800000   1.015252e-03  1.866303e-06
    192    199   2   0.50000    -0.1200000    0.1150000   2.262583e-04  1.374848e-07
    194    196   2   0.50000    -0.1200000   -0.1800000   1.984244e-03  3.343767e-06
    194    199   2   0.50000    -0.1200000    0.1150000   4.422072e-04  2.463251e-07
    193    200   2   0.50000     0.1200000    0.0600000   2.793149e-04  1.952537e-07
    193    201   2   0.50000     0.1200000    0.0600000   2.793149e-04  1.952537e-07
    193    202   2   0.50000     0.1200000    0.0600000   2.793149e-04  1.952537e-07
    199    200   2   0.50000     0.1150000    0.0600000   5.559158e-05  1.231049e-08
    199    201   2   0.50000     0.1150000    0.0600000   5.559158e-05  1.231049e-08
    199    202   2   0.50000     0.1150000    0.0600000   5.559158e-05  1.231049e-08

[ angles ]
; ai  aj  ak
      2      1      6   1  109.500000  292.880000
      2      1      7   1  109.500000  292.880000
      2      1     11   1  109.500000  292.880000
      6      1      7   1  107.800000  276.144000
      6      1     11   1  107.800000  276.144000
      7      1     11   1  107.800000  276.144000
      1      2      3   1  111.020000  627.600000
      1      2      4   1  124.000000  585.760000
      3      2      4   1  121.500000  627.600000
      2      4      5   1  124.000000  585.760000
      2      4      8   1  120.000000  292.880000
      5      4      8   1  117.000000  292.880000
      4      5      9   1  109.500000  292.880000
      4      5     10   1  109.500000  292.880000
      4      5     12   1  112.027000  585.760000
      9      5     10   1  107.800000  276.144000
      9      5     12   1  110.700000  313.800000
     10      5     12   1  110.700000  313.800000
      5     12     13   1  112.027000  585.760000
      5     12     17   1  110.700000  313.800000
      5     12     18   1  110.700000  313.800000
     13     12     17   1  109.500000  292.880000
     13     12     18   1  109.500000  292.880000
     17     12     18   1  107.800000  276.144000
     12     13     14   1  111.020000  627.600000
     12     13     15   1  124.000000  585.760000
     14     13     15   1  121.500000  627.600000
     13     15     16   1  124.000000  585.760000
     13     15     19   1  120.000000  292.880000
     16     15     19   1  117.000000  292.880000
     15     16     20   1  109.500000  292.880000
     15     16     21   1  109.500000  292.880000
     15     16     22   1  112.027000  585.760000
     20     16     21   1  107.800000  276.144000
     20     16     22   1  110.700000  313.800000
     21     16     22   1  110.700000  313.800000
     16     22     23   1  112.027000  585.760000
     16     22     27   1  110.700000  313.800000
     16     22     28   1  110.700000  313.800000
     23     22     27   1  109.500000  292.880000
     23     22     28   1  109.500000  292.880000
     27     22     28   1  107.800000  276.144000
     22     23     24   1  111.020000  627.600000
     22     23     25   1  124.000000  585.760000
     24     23     25   1  121.500000  627.600000
     23     25     26   1  124.000000  585.760000
     23     25     29   1  120.000000  292.880000
     26     25     29   1  117.000000  292.880000
     25     26     30   1  109.500000  292.880000
     25     26     31   1  109.500000  292.880000
     25     26     32   1  112.027000  585.760000
     30     26     31   1  107.800000  276.144000
     30     26     32   1  110.700000  313.800000
     31     26     32   1  110.700000  313.800000
     26     32     33   1  112.027000  585.760000
     26     32     37   1  110.700000  313.800000
     26     32     38   1  110.700000  313.800000
     33     32     37   1  109.500000  292.880000
     33     32     38   1  109.500000  292.880000
     37     32     38   1  107.800000  276.144000
     32     33     34   1  111.020000  627.600000
     32     33     35   1  124.000000  585.760000
     34     33     35   1  121.500000  627.600000
     33     35     36   1  124.000000  585.760000
     33     35     39   1  120.000000  292.880000
     36     35     39   1  117.000000  292.880000
     35     36     40   1  109.500000  292.880000
     35     36     41   1  109.500000  292.880000
     35     36     42   1  112.027000  585.760000
     40     36     41   1  107.800000  276.144000
     40     36     42   1  110.700000  313.800000
     41     36     42   1  110.700000  313.800000
     36     42     43   1  112.027000  585.760000
     36     42     47   1  110.700000  313.800000
     36     42     48   1  110.700000  313.800000
     43     42     47   1  109.500000  292.880000
     43     42     48   1  109.500000  292.880000
     47     42     48   1  107.800000  276.144000
     42     43     44   1  111.020000  627.600000
     42     43     45   1  124.000000  585.760000
     44     43     45   1  121.500000  627.600000
     43     45     46   1  124.000000  585.760000
     43     45     49   1  120.000000  292.880000
     46     45     49   1  117.000000  292.880000
     45     46     50   1  109.500000  292.880000
     45     46     51   1  109.500000  292.880000
     45     46     52   1  112.027000  585.760000
     50     46     51   1  107.800000  276.144000
     50     46     52   1  110.700000  313.800000
     51     46     52   1  110.700000  313.800000
     46     52     53   1  112.027000  585.760000
     46     52     57   1  110.700000  313.800000
     46     52     58   1  110.700000  313.800000
     53     52     57   1  109.500000  292.880000
     53     52     58   1  109.500000  292.880000
     57     52     58   1  107.800000  276.144000
     52     53     54   1  111.020000  627.600000
     52     53     55   1  124.000000  585.760000
     54     53     55   1  121.500000  627.600000
     53     55     56   1  124.000000  585.760000
     53     55     59   1  120.000000  292.880000
     56     55     59   1  117.000000  292.880000
     55     56     60   1  109.500000  292.880000
     55     56     61   1  109.500000  292.880000
     55     56     62   1  112.027000  585.760000
     60     56     61   1  107.800000  276.144000
     60     56     62   1  110.700000  313.800000
     61     56     62   1  110.700000  313.800000
     56     62     63   1  112.027000  585.760000
     56     62     67   1  110.700000  313.800000
     56     62     68   1  110.700000  313.800000
     63     62     67   1  109.500000  292.880000
     63     62     68   1  109.500000  292.880000
     67     62     68   1  107.800000  276.144000
     62     63     64   1  111.020000  627.600000
     62     63     65   1  124.000000  585.760000
     64     63     65   1  121.500000  627.600000
     63     65     66   1  124.000000  585.760000
     63     65     69   1  120.000000  292.880000
     66     65     69   1  117.000000  292.880000
     65     66     70   1  109.500000  292.880000
     65     66     71   1  109.500000  292.880000
     65     66     72   1  112.027000  585.760000
     70     66     71   1  107.800000  276.144000
     70     66     72   1  110.700000  313.800000
     71     66     72   1  110.700000  313.800000
     66     72     73   1  112.027000  585.760000
     66     72     77   1  110.700000  313.800000
     66     72     78   1  110.700000  313.800000
     73     72     77   1  109.500000  292.880000
     73     72     78   1  109.500000  292.880000
     77     72     78   1  107.800000  276.144000
     72     73     74   1  111.020000  627.600000
     72     73     75   1  124.000000  585.760000
     74     73     75   1  121.500000  627.600000
     73     75     76   1  124.000000  585.760000
     73     75     79   1  120.000000  292.880000
     76     75     79   1  117.000000  292.880000
     75     76     80   1  109.500000  292.880000
     75     76     81   1  109.500000  292.880000
     75     76     82   1  112.027000  585.760000
     80     76     81   1  107.800000  276.144000
     80     76     82   1  110.700000  313.800000
     81     76     82   1  110.700000  313.800000
     76     82     83   1  112.027000  585.760000
     76     82     87   1  110.700000  313.800000
     76     82     88   1  110.700000  313.800000
     83     82     87   1  109.500000  292.880000
     83     82     88   1  109.500000  292.880000
     87     82     88   1  107.800000  276.144000
     82     83     84   1  111.020000  627.600000
     82     83     85   1  124.000000  585.760000
     84     83     85   1  121.500000  627.600000
     83     85     86   1  124.000000  585.760000
     83     85     89   1  120.000000  292.880000
     86     85     89   1  117.000000  292.880000
     85     86     90   1  109.500000  292.880000
     85     86     91   1  109.500000  292.880000
     85     86     92   1  112.027000  585.760000
     90     86     91   1  107.800000  276.144000
     90     86     92   1  110.700000  313.800000
     91     86     92   1  110.700000  313.800000
     86     92     93   1  112.027000  585.760000
     86     92     97   1  110.700000  313.800000
     86     92     98   1  110.700000  313.800000
     93     92     97   1  109.500000  292.880000
     93     92     98   1  109.500000  292.880000
     97     92     98   1  107.800000  276.144000
     92     93     94   1  111.020000  627.600000
     92     93     95   1  124.000000  585.760000
     94     93     95   1  121.500000  627.600000
     93     95     96   1  124.000000  585.760000
     93     95     99   1  120.000000  292.880000
     96     95     99   1  117.000000  292.880000
     95     96    100   1  109.500000  292.880000
     95     96    101   1  109.500000  292.880000
     95     96    102   1  112.027000  585.760000
    100     96    101   1  107.800000  276.144000
    100     96    102   1  110.700000  313.800000
    101     96    102   1  110.700000  313.800000
     96    102    103   1  112.027000  585.760000
     96    102    107   1  110.700000  313.800000
     96    102    108   1  110.700000  313.800000
    103    102    107   1  109.500000  292.880000
    103    102    108   1  109.500000  292.880000
    107    102    108   1  107.800000  276.144000
    102    103    104   1  111.020000  627.600000
    102    103    105   1  124.000000  585.760000
    104    103    105   1  121.500000  627.600000
    103    105    106   1  124.000000  585.760000
    103    105    109   1  120.000000  292.880000
    106    105    109   1  117.000000  292.880000
    105    106    110   1  109.500000  292.880000
    105    106    111   1  109.500000  292.880000
    105    106    112   1  112.027000  585.760000
    110    106    111   1  107.800000  276.144000
    110    106    112   1  110.700000  313.800000
    111    106    112   1  110.700000  313.800000
    106    112    113   1  112.027000  585.760000
    106    112    117   1  110.700000  313.800000
    106    112    118   1  110.700000  313.800000
    113    112    117   1  109.500000  292.880000
    113    112    118   1  109.500000  292.880000
    117    112    118   1  107.800000  276.144000
    112    113    114   1  111.020000  627.600000
    112    113    115   1  124.000000  585.760000
    114    113    115   1  121.500000  627.600000
    113    115    116   1  124.000000  585.760000
    113    115    119   1  120.000000  292.880000
    116    115    119   1  117.000000  292.880000
    115    116    120   1  109.500000  292.880000
    115    116    121   1  109.500000  292.880000
    115    116    122   1  112.027000  585.760000
    120    116    121   1  107.800000  276.144000
    120    116    122   1  110.700000  313.800000
    121    116    122   1  110.700000  313.800000
    116    122    123   1  112.027000  585.760000
    116    122    127   1  110.700000  313.800000
    116    122    128   1  110.700000  313.800000
    123    122    127   1  109.500000  292.880000
    123    122    128   1  109.500000  292.880000
    127    122    128   1  107.800000  276.144000
    122    123    124   1  111.020000  627.600000
    122    123    125   1  124.000000  585.760000
    124    123    125   1  121.500000  627.600000
    123    125    126   1  124.000000  585.760000
    123    125    129   1  120.000000  292.880000
    126    125    129   1  117.000000  292.880000
    125    126    130   1  109.500000  292.880000
    125    126    131   1  109.500000  292.880000
    125    126    132   1  112.027000  585.760000
    130    126    131   1  107.800000  276.144000
    130    126    132   1  110.700000  313.800000
    131    126    132   1  110.700000  313.800000
    126    132    133   1  112.027000  585.760000
    126    132    137   1  110.700000  313.800000
    126    132    138   1  110.700000  313.800000
    133    132    137   1  109.500000  292.880000
    133    132    138   1  109.500000  292.880000
    137    132    138   1  107.800000  276.144000
    132    133    134   1  111.020000  627.600000
    132    133    135   1  124.000000  585.760000
    134    133    135   1  121.500000  627.600000
    133    135    136   1  124.000000  585.760000
    133    135    139   1  120.000000  292.880000
    136    135    139   1  117.000000  292.880000
    135    136    140   1  109.500000  292.880000
    135    136    141   1  109.500000  292.880000
    135    136    142   1  112.027000  585.760000
    140    136    141   1  107.800000  276.144000
    140    136    142   1  110.700000  313.800000
    141    136    142   1  110.700000  313.800000
    136    142    143   1  112.027000  585.760000
    136    142    147   1  110.700000  313.800000
    136    142    148   1  110.700000  313.800000
    143    142    147   1  109.500000  292.880000
    143    142    148   1  109.500000  292.880000
    147    142    148   1  107.800000  276.144000
    142    143    144   1  111.020000  627.600000
    142    143    145   1  124.000000  585.760000
    144    143    145   1  121.500000  627.600000
    143    145    146   1  124.000000  585.760000
    143    145    149   1  120.000000  292.880000
    146    145    149   1  117.000000  292.880000
    145    146    150   1  109.500000  292.880000
    145    146    151   1  109.500000  292.880000
    145    146    152   1  112.027000  585.760000
    150    146    151   1  107.800000  276.144000
    150    146    152   1  110.700000  313.800000
    151    146    152   1  110.700000  313.800000
    146    152    153   1  112.027000  585.760000
    146    152    157   1  110.700000  313.800000
    146    152    158   1  110.700000  313.800000
    153    152    157   1  109.500000  292.880000
    153    152    158   1  109.500000  292.880000
    157    152    158   1  107.800000  276.144000
    152    153    154   1  111.020000  627.600000
    152    153    155   1  124.000000  585.760000
    154    153    155   1  121.500000  627.600000
    153    155    156   1  124.000000  585.760000
    153    155    159   1  120.000000  292.880000
    156    155    159   1  117.000000  292.880000
    155    156    160   1  109.500000  292.880000
    155    156    161   1  109.500000  292.880000
    155    156    162   1  112.027000  585.760000
    160    156    161   1  107.800000  276.144000
    160    156    162   1  110.700000  313.800000
    161    156    162   1  110.700000  313.800000
    156    162    163   1  112.027000  585.760000
    156    162    167   1  110.700000  313.800000
    156    162    168   1  110.700000  313.800000
    163    162    167   1  109.500000  292.880000
    163    162    168   1  109.500000  292.880000
    167    162    168   1  107.800000  276.144000
    162    163    164   1  111.020000  627.600000
    162    163    165   1  124.000000  585.760000
    164    163    165   1  121.500000  627.600000
    163    165    166   1  124.000000  585.760000
    163    165    169   1  120.000000  292.880000
    166    165    169   1  117.000000  292.880000
    165    166    170   1  109.500000  292.880000
    165    166    171   1  109.500000  292.880000
    165    166    172   1  112.027000  585.760000
    170    166    171   1  107.800000  276.144000
    170    166    172   1  110.700000  313.800000
    171    166    172   1  110.700000  313.800000
    166    172    173   1  112.027000  585.760000
    166    172    177   1  110.700000  313.800000
    166    172    178   1  110.700000  313.800000
    173    172    177   1  109.500000  292.880000
    173    172    178   1  109.500000  292.880000
    177    172    178   1  107.800000  276.144000
    172    173    174   1  111.020000  627.600000
    172    173    175   1  124.000000  585.760000
    174    173    175   1  121.500000  627.600000
    173    175    176   1  124.000000  585.760000
    173    175    179   1  120.000000  292.880000
    176    175    179   1  117.000000  292.880000
    175    176    180   1  109.500000  292.880000
    175    176    181   1  109.500000  292.880000
    175    176    182   1  112.027000  585.760000
    180    176    181   1  107.800000  276.144000
    180    176    182   1  110.700000  313.800000
    181    176    182   1  110.700000  313.800000
    176    182    183   1  112.027000  585.760000
    176    182    187   1  110.700000  313.800000
    176    182    188   1  110.700000  313.800000
    183    182    187   1  109.500000  292.880000
    183    182    188   1  109.500000  292.880000
    187    182    188   1  107.800000  276.144000
    182    183    184   1  111.020000  627.600000
    182    183    185   1  124.000000  585.760000
    184    183    185   1  121.500000  627.600000
    183    185    186   1  124.000000  585.760000
    183    185    189   1  120.000000  292.880000
    186    185    189   1  117.000000  292.880000
    185    186    190   1  109.500000  292.880000
    185    186    191   1  109.500000  292.880000
    185    186    192   1  112.027000  585.760000
    190    186    191   1  107.800000  276.144000
    190    186    192   1  110.700000  313.800000
    191    186    192   1  110.700000  313.800000
    186    192    193   1  112.027000  585.760000
    186    192    197   1  110.700000  313.800000
    186    192    198   1  110.700000  313.800000
    193    192    197   1  109.500000  292.880000
    193    192    198   1  109.500000  292.880000
    197    192    198   1  107.800000  276.144000
    192    193    194   1  111.020000  627.600000
    192    193    195   1  124.000000  585.760000
    194    193    195   1  121.500000  627.600000
    193    195    196   1  124.000000  585.760000
    193    195    199   1  120.000000  292.880000
    196    195    199   1  117.000000  292.880000
    195    196    200   1  109.500000  292.880000
    195    196    201   1  109.500000  292.880000
    195    196    202   1  109.500000  292.880000
    200    196    201   1  107.800000  276.144000
    200    196    202   1  107.800000  276.144000
    201    196    202   1  107.800000  276.144000

[ dihedrals ]
; Proper dihedrals
      6      1      2      3   5    0.000000    0.000000    0.000000  0.0
      6      1      2      4   5    0.000000    0.000000    0.000000  0.0
      7      1      2      3   5    0.000000    0.000000    0.000000  0.0
      7      1      2      4   5    0.000000    0.000000    0.000000  0.0
     11      1      2      3   5    0.000000    0.000000    0.000000  0.0
     11      1      2      4   5    0.000000    0.000000    0.000000  0.0
      1      2      4      5   5    0.000000   58.576000    0.000000  0.0
      1      2      4      8   5    0.000000   58.576000    0.000000  0.0
      3      2      4      5   5    0.000000   58.576000    0.000000  0.0
      3      2      4      8   5    0.000000   58.576000    0.000000  0.0
      2      4      5      9   5    0.000000    0.000000    0.000000  0.0
      2      4      5     10   5    0.000000    0.000000    0.000000  0.0
      2      4      5     12   5    0.824248    1.276120   -4.238392  0.0
      8      4      5      9   5    0.000000    0.000000    2.769808  0.0
      8      4      5     10   5    0.000000    0.000000    2.769808  0.0
      8      4      5     12   5    0.000000    0.000000    0.000000  0.0
      4      5     12     13   5    2.594080    1.230096    0.631784  0.0
      4      5     12     17   5    0.000000    0.000000    1.255200  0.0
      4      5     12     18   5    0.000000    0.000000    1.255200  0.0
      9      5     12     13   5    0.000000    0.000000    1.255200  0.0
      9      5     12     17   5    0.000000    0.000000    1.255200  0.0
      9      5     12     18   5    0.000000    0.000000    1.255200  0.0
     10      5     12     13   5    0.000000    0.000000    1.255200  0.0
     10      5     12     17   5    0.000000    0.000000    1.255200  0.0
     10      5     12     18   5    0.000000    0.000000    1.255200  0.0
      5     12     13     14   5    0.811696    1.305408   -4.250944  0.0
      5     12     13     15   5    0.824248    1.276120   -4.238392  0.0
     17     12     13     14   5    0.000000    0.000000    0.000000  0.0
     17     12     13     15   5    0.000000    0.000000    0.000000  0.0
     18     12     13     14   5    0.000000    0.000000    0.000000  0.0
     18     12     13     15   5    0.000000    0.000000    0.000000  0.0
     12     13     15     16   5    0.000000   58.576000    0.000000  0.0
     12     13     15     19   5    0.000000   58.576000    0.000000  0.0
     14     13     15     16   5    0.000000   58.576000    0.000000  0.0
     14     13     15     19   5    0.000000   58.576000    0.000000  0.0
     13     15     16     20   5    0.000000    0.000000    0.000000  0.0
     13     15     16     21   5    0.000000    0.000000    0.000000  0.0
     13     15     16     22   5    0.824248    1.276120   -4.238392  0.0
     19     15     16     20   5    0.000000    0.000000    2.769808  0.0
     19     15     16     21   5    0.000000    0.000000    2.769808  0.0
     19     15     16     22   5    0.000000    0.000000    0.000000  0.0
     15     16     22     23   5    2.594080    1.230096    0.631784  0.0
     15     16     22     27   5    0.000000    0.000000    1.255200  0.0
     15     16     22     28   5    0.000000    0.000000    1.255200  0.0
     20     16     22     23   5    0.000000    0.000000    1.255200  0.0
     20     16     22     27   5    0.000000    0.000000    1.255200  0.0
     20     16     22     28   5    0.000000    0.000000    1.255200  0.0
     21     16     22     23   5    0.000000    0.000000    1.255200  0.0
     21     16     22     27   5    0.000000    0.000000    1.255200  0.0
     21     16     22     28   5    0.000000    0.000000    1.255200  0.0
     16     22     23     24   5    0.811696    1.305408   -4.250944  0.0
     16     22     23     25   5    0.824248    1.276120   -4.238392  0.0
     27     22     23     24   5    0.000000    0.000000    0.000000  0.0
     27     22     23     25   5    0.000000    0.000000    0.000000  0.0
     28     22     23     24   5    0.000000    0.000000    0.000000  0.0
     28     22     23     25   5    0.000000    0.000000    0.000000  0.0
     22     23     25     26   5    0.000000   58.576000    0.000000  0.0
     22     23     25     29   5    0.000000   58.576000    0.000000  0.0
     24     23     25     26   5    0.000000   58.576000    0.000000  0.0
     24     23     25     29   5    0.000000   58.576000    0.000000  0.0
     23     25     26     30   5    0.000000    0.000000    0.000000  0.0
     23     25     26     31   5    0.000000    0.000000    0.000000  0.0
     23     25     26     32   5    0.824248    1.276120   -4.238392  0.0
     29     25     26     30   5    0.000000    0.000000    2.769808  0.0
     29     25     26     31   5    0.000000    0.000000    2.769808  0.0
     29     25     26     32   5    0.000000    0.000000    0.000000  0.0
     25     26     32     33   5    2.594080    1.230096    0.631784  0.0
     25     26     32     37   5    0.000000    0.000000    1.255200  0.0
     25     26     32     38   5    0.000000    0.000000    1.255200  0.0
     30     26     32     33   5    0.000000    0.000000    1.255200  0.0
     30     26     32     37   5    0.000000    0.000000    1.255200  0.0
     30     26     32     38   5    0.000000    0.000000    1.255200  0.0
     31     26     32     33   5    0.000000    0.000000    1.255200  0.0
     31     26     32     37   5    0.000000    0.000000    1.255200  0.0
     31     26     32     38   5    0.000000    0.000000    1.255200  0.0
     26     32     33     34   5    0.811696    1.305408   -4.250944  0.0
     26     32     33     35   5    0.824248    1.276120   -4.238392  0.0
     37     32     33     34   5    0.000000    0.000000    0.000000  0.0
     37     32     33     35   5    0.000000    0.000000    0.000000  0.0
     38     32     33     34   5    0.000000    0.000000    0.000000  0.0
     38     32     33     35   5    0.000000    0.000000    0.000000  0.0
     32     33     35     36   5    0.000000   58.576000    0.000000  0.0
     32     33     35     39   5    0.000000   58.576000    0.000000  0.0
     34     33     35     36   5    0.000000   58.576000    0.000000  0.0
     34     33     35     39   5    0.000000   58.576000    0.000000  0.0
     33     35     36     40   5    0.000000    0.000000    0.000000  0.0
     33     35     36     41   5    0.000000    0.000000    0.000000  0.0
     33     35     36     42   5    0.824248    1.276120   -4.238392  0.0
     39     35     36     40   5    0.000000    0.000000    2.769808  0.0
     39     35     36     41   5    0.000000    0.000000    2.769808  0.0
     39     35     36     42   5    0.000000    0.000000    0.000000  0.0
     35     36     42     43   5    2.594080    1.230096    0.631784  0.0
     35     36     42     47   5    0.000000    0.000000    1.255200  0.0
     35     36     42     48   5    0.000000    0.000000    1.255200  0.0
     40     36     42     43   5    0.000000    0.000000    1.255200  0.0
     40     36     42     47   5    0.000000    0.000000    1.255200  0.0
     40     36     42     48   5    0.000000    0.000000    1.255200  0.0
     41     36     42     43   5    0.000000    0.000000    1.255200  0.0
     41     36     42     47   5    0.000000    0.000000    1.255200  0.0
     41     36     42     48   5    0.000000    0.000000    1.255200  0.0
     36     42     43     44   5    0.811696    1.305408   -4.250944  0.0
     36     42     43     45   5    0.824248    1.276120   -4.238392  0.0
     47     42     43     44   5    0.000000    0.000000    0.000000  0.0
     47     42     43     45   5    0.000000    0.000000    0.000000  0.0
     48     42     43     44   5    0.000000    0.000000    0.000000  0.0
     48     42     43     45   5    0.000000    0.000000    0.000000  0.0
     42     43     45     46   5    0.000000   58.576000    0.000000  0.0
     42     43     45     49   5    0.000000   58.576000    0.000000  0.0
     44     43     45     46   5    0.000000   58.576000    0.000000  0.0
     44     43     45     49   5    0.000000   58.576000    0.000000  0.0
     43     45     46     50   5    0.000000    0.000000    0.000000  0.0
     43     45     46     51   5    0.000000    0.000000    0.000000  0.0
     43     45     46     52   5    0.824248    1.276120   -4.238392  0.0
     49     45     46     50   5    0.000000    0.000000    2.769808  0.0
     49     45     46     51   5    0.000000    0.000000    2.769808  0.0
     49     45     46     52   5    0.000000    0.000000    0.000000  0.0
     45     46     52     53   5    2.594080    1.230096    0.631784  0.0
     45     46     52     57   5    0.000000    0.000000    1.255200  0.0
     45     46     52     58   5    0.000000    0.000000    1.255200  0.0
     50     46     52     53   5    0.000000    0.000000    1.255200  0.0
     50     46     52     57   5    0.000000    0.000000    1.255200  0.0
     50     46     52     58   5    0.000000    0.000000    1.255200  0.0
     51     46     52     53   5    0.000000    0.000000    1.255200  0.0
     51     46     52     57   5    0.000000    0.000000    1.255200  0.0
     51     46     52     58   5    0.000000    0.000000    1.255200  0.0
     46     52     53     54   5    0.811696    1.305408   -4.250944  0.0
     46     52     53     55   5    0.824248    1.276120   -4.238392  0.0
     57     52     53     54   5    0.000000    0.000000    0.000000  0.0
     57     52     53     55   5    0.000000    0.000000    0.000000  0.0
     58     52     53     54   5    0.000000    0.000000    0.000000  0.0
     58     52     53     55   5    0.000000    0.000000    0.000000  0.0
     52     53     55     56   5    0.000000   58.576000    0.000000  0.0
     52     53     55     59   5    0.000000   58.576000    0.000000  0.0
     54     53     55     56   5    0.000000   58.576000    0.000000  0.0
     54     53     55     59   5    0.000000   58.576000    0.000000  0.0
     53     55     56     60   5    0.000000    0.000000    0.000000  0.0
     53     55     56     61   5    0.000000    0.000000    0.000000  0.0
     53     55     56     62   5    0.824248    1.276120   -4.238392  0.0
     59     55     56     60   5    0.000000    0.000000    2.769808  0.0
     59     55     56     61   5    0.000000    0.000000    2.769808  0.0
     59     55     56     62   5    0.000000    0.000000    0.000000  0.0
     55     56     62     63   5    2.594080    1.230096    0.631784  0.0
     55     56     62     67   5    0.000000    0.000000    1.255200  0.0
     55     56     62     68   5    0.000000    0.000000    1.255200  0.0
     60     56     62     63   5    0.000000    0.000000    1.255200  0.0
     60     56     62     67   5    0.000000    0.000000    1.255200  0.0
     60     56     62     68   5    0.000000    0.000000    1.255200  0.0
     61     56     62     63   5    0.000000    0.000000    1.255200  0.0
     61     56     62     67   5    0.000000    0.000000    1.255200  0.0
     61     56     62     68   5    0.000000    0.000000    1.255200  0.0
     56     62     63     64   5    0.811696    1.305408   -4.250944  0.0
     56     62     63     65   5    0.824248    1.276120   -4.238392  0.0
     67     62     63     64   5    0.000000    0.000000    0.000000  0.0
     67     62     63     65   5    0.000000    0.000000    0.000000  0.0
     68     62     63     64   5    0.000000    0.000000    0.000000  0.0
     68     62     63     65   5    0.000000    0.000000    0.000000  0.0
     62     63     65     66   5    0.000000   58.576000    0.000000  0.0
     62     63     65     69   5    0.000000   58.576000    0.000000  0.0
     64     63     65     66   5    0.000000   58.576000    0.000000  0.0
     64     63     65     69   5    0.000000   58.576000    0.000000  0.0
     63     65     66     70   5    0.000000    0.000000    0.000000  0.0
     63     65     66     71   5    0.000000    0.000000    0.000000  0.0
     63     65     66     72   5    0.824248    1.276120   -4.238392  0.0
     69     65     66     70   5    0.000000    0.000000    2.769808  0.0
     69     65     66     71   5    0.000000    0.000000    2.769808  0.0
     69     65     66     72   5    0.000000    0.000000    0.000000  0.0
     65     66     72     73   5    2.594080    1.230096    0.631784  0.0
     65     66     72     77   5    0.000000    0.000000    1.255200  0.0
     65     66     72     78   5    0.000000    0.000000    1.255200  0.0
     70     66     72     73   5    0.000000    0.000000    1.255200  0.0
     70     66     72     77   5    0.000000    0.000000    1.255200  0.0
     70     66     72     78   5    0.000000    0.000000    1.255200  0.0
     71     66     72     73   5    0.000000    0.000000    1.255200  0.0
     71     66     72     77   5    0.000000    0.000000    1.255200  0.0
     71     66     72     78   5    0.000000    0.000000    1.255200  0.0
     66     72     73     74   5    0.811696    1.305408   -4.250944  0.0
     66     72     73     75   5    0.824248    1.276120   -4.238392  0.0
     77     72     73     74   5    0.000000    0.000000    0.000000  0.0
     77     72     73     75   5    0.000000    0.000000    0.000000  0.0
     78     72     73     74   5    0.000000    0.000000    0.000000  0.0
     78     72     73     75   5    0.000000    0.000000    0.000000  0.0
     72     73     75     76   5    0.000000   58.576000    0.000000  0.0
     72     73     75     79   5    0.000000   58.576000    0.000000  0.0
     74     73     75     76   5    0.000000   58.576000    0.000000  0.0
     74     73     75     79   5    0.000000   58.576000    0.000000  0.0
     73     75     76     80   5    0.000000    0.000000    0.000000  0.0
     73     75     76     81   5    0.000000    0.000000    0.000000  0.0
     73     75     76     82   5    0.824248    1.276120   -4.238392  0.0
     79     75     76     80   5    0.000000    0.000000    2.769808  0.0
     79     75     76     81   5    0.000000    0.000000    2.769808  0.0
     79     75     76     82   5    0.000000    0.000000    0.000000  0.0
     75     76     82     83   5    2.594080    1.230096    0.631784  0.0
     75     76     82     87   5    0.000000    0.000000    1.255200  0.0
     75     76     82     88   5    0.000000    0.000000    1.255200  0.0
     80     76     82     83   5    0.000000    0.000000    1.255200  0.0
     80     76     82     87   5    0.000000    0.000000    1.255200  0.0
     80     76     82     88   5    0.000000    0.000000    1.255200  0.0
     81     76     82     83   5    0.000000    0.000000    1.255200  0.0
     81     76     82     87   5    0.000000    0.000000    1.255200  0.0
     81     76     82     88   5    0.000000    0.000000    1.255200  0.0
     76     82     83     84   5    0.811696    1.305408   -4.250944  0.0
     76     82     83     85   5    0.824248    1.276120   -4.238392  0.0
     87     82     83     84   5    0.000000    0.000000    0.000000  0.0
     87     82     83     85   5    0.000000    0.000000    0.000000  0.0
     88     82     83     84   5    0.000000    0.000000    0.000000  0.0
     88     82     83     85   5    0.000000    0.000000    0.000000  0.0
     82     83     85     86   5    0.000000   58.576000    0.000000  0.0
     82     83     85     89   5    0.000000   58.576000    0.000000  0.0
     84     83     85     86   5    0.000000   58.576000    0.000000  0.0
     84     83     85     89   5    0.000000   58.576000    0.000000  0.0
     83     85     86     90   5    0.000000    0.000000    0.000000  0.0
     83     85     86     91   5    0.000000    0.000000    0.000000  0.0
     83     85     86     92   5    0.824248    1.276120   -4.238392  0.0
     89     85     86     90   5    0.000000    0.000000    2.769808  0.0
     89     85     86     91   5    0.000000    0.000000    2.769808  0.0
     89     85     86     92   5    0.000000    0.000000    0.000000  0.0
     85     86     92     93   5    2.594080    1.230096    0.631784  0.0
     85     86     92     97   5    0.000000    0.000000    1.255200  0.0
     85     86     92     98   5    0.000000    0.000000    1.255200  0.0
     90     86     92     93   5    0.000000    0.000000    1.255200  0.0
     90     86     92     97   5    0.000000    0.000000    1.255200  0.0
     90     86     92     98   5    0.000000    0.000000    1.255200  0.0
     91     86     92     93   5    0.000000    0.000000    1.255200  0.0
     91     86     92     97   5    0.000000    0.000000    1.255200  0.0
     91     86     92     98   5    0.000000    0.000000    1.255200  0.0
     86     92     93     94   5    0.811696    1.305408   -4.250944  0.0
     86     92     93     95   5    0.824248    1.276120   -4.238392  0.0
     97     92     93     94   5    0.000000    0.000000    0.000000  0.0
     97     92     93     95   5    0.000000    0.000000    0.000000  0.0
     98     92     93     94   5    0.000000    0.000000    0.000000  0.0
     98     92     93     95   5    0.000000    0.000000    0.000000  0.0
     92     93     95     96   5    0.000000   58.576000    0.000000  0.0
     92     93     95     99   5    0.000000   58.576000    0.000000  0.0
     94     93     95     96   5    0.000000   58.576000    0.000000  0.0
     94     93     95     99   5    0.000000   58.576000    0.000000  0.0
     93     95     96    100   5    0.000000    0.000000    0.000000  0.0
     93     95     96    101   5    0.000000    0.000000    0.000000  0.0
     93     95     96    102   5    0.824248    1.276120   -4.238392  0.0
     99     95     96    100   5    0.000000    0.000000    2.769808  0.0
     99     95     96    101   5    0.000000    0.000000    2.769808  0.0
     99     95     96    102   5    0.000000    0.000000    0.000000  0.0
     95     96    102    103   5    2.594080    1.230096    0.631784  0.0
     95     96    102    107   5    0.000000    0.000000    1.255200  0.0
     95     96    102    108   5    0.000000    0.000000    1.255200  0.0
    100     96    102    103   5    0.000000    0.000000    1.255200  0.0
    100     96    102    107   5    0.000000    0.000000    1.255200  0.0
    100     96    102    108   5    0.000000    0.000000    1.255200  0.0
    101     96    102    103   5    0.000000    0.000000    1.255200  0.0
    101     96    102    107   5    0.000000    0.000000    1.255200  0.0
    101     96    102    108   5    0.000000    0.000000    1.255200  0.0
     96    102    103    104   5    0.811696    1.305408   -4.250944  0.0
     96    102    103    105   5    0.824248    1.276120   -4.238392  0.0
    107    102    103    104   5    0.000000    0.000000    0.000000  0.0
    107    102    103    105   5    0.000000    0.000000    0.000000  0.0
    108    102    103    104   5    0.000000    0.000000    0.000000  0.0
    108    102    103    105   5    0.000000    0.000000    0.000000  0.0
    102    103    105    106   5    0.000000   58.576000    0.000000  0.0
    102    103    105    109   5    0.000000   58.576000    0.000000  0.0
    104    103    105    106   5    0.000000   58.576000    0.000000  0.0
    104    103    105    109   5    0.000000   58.576000    0.000000  0.0
    103    105    106    110   5    0.000000    0.000000    0.000000  0.0
    103    105    106    111   5    0.000000    0.000000    0.000000  0.0
    103    105    106    112   5    0.824248    1.276120   -4.238392  0.0
    109    105    106    110   5    0.000000    0.000000    2.769808  0.0
    109    105    106    111   5    0.000000    0.000000    2.769808  0.0
    109    105    106    112   5    0.000000    0.000000    0.000000  0.0
    105    106    112    113   5    2.594080    1.230096    0.631784  0.0
    105    106    112    117   5    0.000000    0.000000    1.255200  0.0
    105    106    112    118   5    0.000000    0.000000    1.255200  0.0
    110    106    112    113   5    0.000000    0.000000    1.255200  0.0
    110    106    112    117   5    0.000000    0.000000    1.255200  0.0
    110    106    112    118   5    0.000000    0.000000    1.255200  0.0
    111    106    112    113   5    0.000000    0.000000    1.255200  0.0
    111    106    112    117   5    0.000000    0.000000    1.255200  0.0
    111    106    112    118   5    0.000000    0.000000    1.255200  0.0
    106    112    113    114   5    0.811696    1.305408   -4.250944  0.0
    106    112    113    115   5    0.824248    1.276120   -4.238392  0.0
    117    112    113    114   5    0.000000    0.000000    0.000000  0.0
    117    112    113    115   5    0.000000    0.000000    0.000000  0.0
    118    112    113    114   5    0.000000    0.000000    0.000000  0.0
    118    112    113    115   5    0.000000    0.000000    0.000000  0.0
    112    113    115    116   5    0.000000   58.576000    0.000000  0.0
    112    113    115    119   5    0.000000   58.576000    0.000000  0.0
    114    113    115    116   5    0.000000   58.576000    0.000000  0.0
    114    113    115    119   5    0.000000   58.576000    0.000000  0.0
    113    115    116    120   5    0.000000    0.000000    0.000000  0.0
    113    115    116    121   5    0.000000    0.000000    0.000000  0.0
    113    115    116    122   5    0.824248    1.276120   -4.238392  0.0
    119    115    116    120   5    0.000000    0.000000    2.769808  0.0
    119    115    116    121   5    0.000000    0.000000    2.769808  0.0
    119    115    116    122   5    0.000000    0.000000    0.000000  0.0
    115    116    122    123   5    2.594080    1.230096    0.631784  0.0
    115    116    122    127   5    0.000000    0.000000    1.255200  0.0
    115    116    122    128   5    0.000000    0.000000    1.255200  0.0
    120    116    122    123   5    0.000000    0.000000    1.255200  0.0
    120    116    122    127   5    0.000000    0.000000    1.255200  0.0
    120    116    122    128   5    0.000000    0.000000    1.255200  0.0
    121    116    122    123   5    0.000000    0.000000    1.255200  0.0
    121    116    122    127   5    0.000000    0.000000    1.255200  0.0
    121    116    122    128   5    0.000000    0.000000    1.255200  0.0
    116    122    123    124   5    0.811696    1.305408   -4.250944  0.0
    116    122    123    125   5    0.824248    1.276120   -4.238392  0.0
    127    122    123    124   5    0.000000    0.000000    0.000000  0.0
    127    122    123    125   5    0.000000    0.000000    0.000000  0.0
    128    122    123    124   5    0.000000    0.000000    0.000000  0.0
    128    122    123    125   5    0.000000    0.000000    0.000000  0.0
    122    123    125    126   5    0.000000   58.576000    0.000000  0.0
    122    123    125    129   5    0.000000   58.576000    0.000000  0.0
    124    123    125    126   5    0.000000   58.576000    0.000000  0.0
    124    123    125    129   5    0.000000   58.576000    0.000000  0.0
    123    125    126    130   5    0.000000    0.000000    0.000000  0.0
    123    125    126    131   5    0.000000    0.000000    0.000000  0.0
    123    125    126    132   5    0.824248    1.276120   -4.238392  0.0
    129    125    126    130   5    0.000000    0.000000    2.769808  0.0
    129    125    126    131   5    0.000000    0.000000    2.769808  0.0
    129    125    126    132   5    0.000000    0.000000    0.000000  0.0
    125    126    132    133   5    2.594080    1.230096    0.631784  0.0
    125    126    132    137   5    0.000000    0.000000    1.255200  0.0
    125    126    132    138   5    0.000000    0.000000    1.255200  0.0
    130    126    132    133   5    0.000000    0.000000    1.255200  0.0
    130    126    132    137   5    0.000000    0.000000    1.255200  0.0
    130    126    132    138   5    0.000000    0.000000    1.255200  0.0
    131    126    132    133   5    0.000000    0.000000    1.255200  0.0
    131    126    132    137   5    0.000000    0.000000    1.255200  0.0
    131    126    132    138   5    0.000000    0.000000    1.255200  0.0
    126    132    133    134   5    0.811696    1.305408   -4.250944  0.0
    126    132    133    135   5    0.824248    1.276120   -4.238392  0.0
    137    132    133    134   5    0.000000    0.000000    0.000000  0.0
    137    132    133    135   5    0.000000    0.000000    0.000000  0.0
    138    132    133    134   5    0.000000    0.000000    0.000000  0.0
    138    132    133    135   5    0.000000    0.000000    0.000000  0.0
    132    133    135    136   5    0.000000   58.576000    0.000000  0.0
    132    133    135    139   5    0.000000   58.576000    0.000000  0.0
    134    133    135    136   5    0.000000   58.576000    0.000000  0.0
    134    133    135    139   5    0.000000   58.576000    0.000000  0.0
    133    135    136    140   5    0.000000    0.000000    0.000000  0.0
    133    135    136    141   5    0.000000    0.000000    0.000000  0.0
    133    135    136    142   5    0.824248    1.276120   -4.238392  0.0
    139    135    136    140   5    0.000000    0.000000    2.769808  0.0
    139    135    136    141   5    0.000000    0.000000    2.769808  0.0
    139    135    136    142   5    0.000000    0.000000    0.000000  0.0
    135    136    142    143   5    2.594080    1.230096    0.631784  0.0
    135    136    142    147   5    0.000000    0.000000    1.255200  0.0
    135    136    142    148   5    0.000000    0.000000    1.255200  0.0
    140    136    142    143   5    0.000000    0.000000    1.255200  0.0
    140    136    142    147   5    0.000000    0.000000    1.255200  0.0
    140    136    142    148   5    0.000000    0.000000    1.255200  0.0
    141    136    142    143   5    0.000000    0.000000    1.255200  0.0
    141    136    142    147   5    0.000000    0.000000    1.255200  0.0
    141    136    142    148   5    0.000000    0.000000    1.255200  0.0
    136    142    143    144   5    0.811696    1.305408   -4.250944  0.0
    136    142    143    145   5    0.824248    1.276120   -4.238392  0.0
    147    142    143    144   5    0.000000    0.000000    0.000000  0.0
    147    142    143    145   5    0.000000    0.000000    0.000000  0.0
    148    142    143    144   5    0.000000    0.000000    0.000000  0.0
    148    142    143    145   5    0.000000    0.000000    0.000000  0.0
    142    143    145    146   5    0.000000   58.576000    0.000000  0.0
    142    143    145    149   5    0.000000   58.576000    0.000000  0.0
    144    143    145    146   5    0.000000   58.576000    0.000000  0.0
    144    143    145    149   5    0.000000   58.576000    0.000000  0.0
    143    145    146    150   5    0.000000    0.000000    0.000000  0.0
    143    145    146    151   5    0.000000    0.000000    0.000000  0.0
    143    145    146    152   5    0.824248    1.276120   -4.238392  0.0
    149    145    146    150   5    0.000000    0.000000    2.769808  0.0
    149    145    146    151   5    0.000000    0.000000    2.769808  0.0
    149    145    146    152   5    0.000000    0.000000    0.000000  0.0
    145    146    152    153   5    2.594080    1.230096    0.631784  0.0
    145    146    152    157   5    0.000000    0.000000    1.255200  0.0
    145    146    152    158   5    0.000000    0.000000    1.255200  0.0
    150    146    152    153   5    0.000000    0.000000    1.255200  0.0
    150    146    152    157   5    0.000000    0.000000    1.255200  0.0
    150    146    152    158   5    0.000000    0.000000    1.255200  0.0
    151    146    152    153   5    0.000000    0.000000    1.255200  0.0
    151    146    152    157   5    0.000000    0.000000    1.255200  0.0
    151    146    152    158   5    0.000000    0.000000    1.255200  0.0
    146    152    153    154   5    0.811696    1.305408   -4.250944  0.0
    146    152    153    155   5    0.824248    1.276120   -4.238392  0.0
    157    152    153    154   5    0.000000    0.000000    0.000000  0.0
    157    152    153    155   5    0.000000    0.000000    0.000000  0.0
    158    152    153    154   5    0.000000    0.000000    0.000000  0.0
    158    152    153    155   5    0.000000    0.000000    0.000000  0.0
    152    153    155    156   5    0.000000   58.576000    0.000000  0.0
    152    153    155    159   5    0.000000   58.576000    0.000000  0.0
    154    153    155    156   5    0.000000   58.576000    0.000000  0.0
    154    153    155    159   5    0.000000   58.576000    0.000000  0.0
    153    155    156    160   5    0.000000    0.000000    0.000000  0.0
    153    155    156    161   5    0.000000    0.000000    0.000000  0.0
    153    155    156    162   5    0.824248    1.276120   -4.238392  0.0
    159    155    156    160   5    0.000000    0.000000    2.769808  0.0
    159    155    156    161   5    0.000000    0.000000    2.769808  0.0
    159    155    156    162   5    0.000000    0.000000    0.000000  0.0
    155    156    162    163   5    2.594080    1.230096    0.631784  0.0
    155    156    162    167   5    0.000000    0.000000    1.255200  0.0
    155    156    162    168   5    0.000000    0.000000    1.255200  0.0
    160    156    162    163   5    0.000000    0.000000    1.255200  0.0
    160    156    162    167   5    0.000000    0.000000    1.255200  0.0
    160    156    162    168   5    0.000000    0.000000    1.255200  0.0
    161    156    162    163   5    0.000000    0.000000    1.255200  0.0
    161    156    162    167   5    0.000000    0.000000    1.255200  0.0
    161    156    162    168   5    0.000000    0.000000    1.255200  0.0
    156    162    163    164   5    0.811696    1.305408   -4.250944  0.0
    156    162    163    165   5    0.824248    1.276120   -4.238392  0.0
    167    162    163    164   5    0.000000    0.000000    0.000000  0.0
    167    162    163    165   5    0.000000    0.000000    0.000000  0.0
    168    162    163    164   5    0.000000    0.000000    0.000000  0.0
    168    162    163    165   5    0.000000    0.000000    0.000000  0.0
    162    163    165    166   5    0.000000   58.576000    0.000000  0.0
    162    163    165    169   5    0.000000   58.576000    0.000000  0.0
    164    163    165    166   5    0.000000   58.576000    0.000000  0.0
    164    163    165    169   5    0.000000   58.576000    0.000000  0.0
    163    165    166    170   5    0.000000    0.000000    0.000000  0.0
    163    165    166    171   5    0.000000    0.000000    0.000000  0.0
    163    165    166    172   5    0.824248    1.276120   -4.238392  0.0
    169    165    166    170   5    0.000000    0.000000    2.769808  0.0
    169    165    166    171   5    0.000000    0.000000    2.769808  0.0
    169    165    166    172   5    0.000000    0.000000    0.000000  0.0
    165    166    172    173   5    2.594080    1.230096    0.631784  0.0
    165    166    172    177   5    0.000000    0.000000    1.255200  0.0
    165    166    172    178   5    0.000000    0.000000    1.255200  0.0
    170    166    172    173   5    0.000000    0.000000    1.255200  0.0
    170    166    172    177   5    0.000000    0.000000    1.255200  0.0
    170    166    172    178   5    0.000000    0.000000    1.255200  0.0
    171    166    172    173   5    0.000000    0.000000    1.255200  0.0
    171    166    172    177   5    0.000000    0.000000    1.255200  0.0
    171    166    172    178   5    0.000000    0.000000    1.255200  0.0
    166    172    173    174   5    0.811696    1.305408   -4.250944  0.0
    166    172    173    175   5    0.824248    1.276120   -4.238392  0.0
    177    172    173    174   5    0.000000    0.000000    0.000000  0.0
    177    172    173    175   5    0.000000    0.000000    0.000000  0.0
    178    172    173    174   5    0.000000    0.000000    0.000000  0.0
    178    172    173    175   5    0.000000    0.000000    0.000000  0.0
    172    173    175    176   5    0.000000   58.576000    0.000000  0.0
    172    173    175    179   5    0.000000   58.576000    0.000000  0.0
    174    173    175    176   5    0.000000   58.576000    0.000000  0.0
    174    173    175    179   5    0.000000   58.576000    0.000000  0.0
    173    175    176    180   5    0.000000    0.000000    0.000000  0.0
    173    175    176    181   5    0.000000    0.000000    0.000000  0.0
    173    175    176    182   5    0.824248    1.276120   -4.238392  0.0
    179    175    176    180   5    0.000000    0.000000    2.769808  0.0
    179    175    176    181   5    0.000000    0.000000    2.769808  0.0
    179    175    176    182   5    0.000000    0.000000    0.000000  0.0
    175    176    182    183   5    2.594080    1.230096    0.631784  0.0
    175    176    182    187   5    0.000000    0.000000    1.255200  0.0
    175    176    182    188   5    0.000000    0.000000    1.255200  0.0
    180    176    182    183   5    0.000000    0.000000    1.255200  0.0
    180    176    182    187   5    0.000000    0.000000    1.255200  0.0
    180    176    182    188   5    0.000000    0.000000    1.255200  0.0
    181    176    182    183   5    0.000000    0.000000    1.255200  0.0
    181    176    182    187   5    0.000000    0.000000    1.255200  0.0
    181    176    182    188   5    0.000000    0.000000    1.255200  0.0
    176    182    183    184   5    0.811696    1.305408   -4.250944  0.0
    176    182    183    185   5    0.824248    1.276120   -4.238392  0.0
    187    182    183    184   5    0.000000    0.000000    0.000000  0.0
    187    182    183    185   5    0.000000    0.000000    0.000000  0.0
    188    182    183    184   5    0.000000    0.000000    0.000000  0.0
    188    182    183    185   5    0.000000    0.000000    0.000000  0.0
    182    183    185    186   5    0.000000   58.576000    0.000000  0.0
    182    183    185    189   5    0.000000   58.576000    0.000000  0.0
    184    183    185    186   5    0.000000   58.576000    0.000000  0.0
    184    183    185    189   5    0.000000   58.576000    0.000000  0.0
    183    185    186    190   5    0.000000    0.000000    0.000000  0.0
    183    185    186    191   5    0.000000    0.000000    0.000000  0.0
    183    185    186    192   5    0.824248    1.276120   -4.238392  0.0
    189    185    186    190   5    0.000000    0.000000    2.769808  0.0
    189    185    186    191   5    0.000000    0.000000    2.769808  0.0
    189    185    186    192   5    0.000000    0.000000    0.000000  0.0
    185    186    192    193   5    2.594080    1.230096    0.631784  0.0
    185    186    192    197   5    0.000000    0.000000    1.255200  0.0
    185    186    192    198   5    0.000000    0.000000    1.255200  0.0
    190    186    192    193   5    0.000000    0.000000    1.255200  0.0
    190    186    192    197   5    0.000000    0.000000    1.255200  0.0
    190    186    192    198   5    0.000000    0.000000    1.255200  0.0
    191    186    192    193   5    0.000000    0.000000    1.255200  0.0
    191    186    192    197   5    0.000000    0.000000    1.255200  0.0
    191    186    192    198   5    0.000000    0.000000    1.255200  0.0
    186    192    193    194   5    0.811696    1.305408   -4.250944  0.0
    186    192    193    195   5    0.824248    1.276120   -4.238392  0.0
    197    192    193    194   5    0.000000    0.000000    0.000000  0.0
    197    192    193    195   5    0.000000    0.000000    0.000000  0.0
    198    192    193    194   5    0.000000    0.000000    0.000000  0.0
    198    192    193    195   5    0.000000    0.000000    0.000000  0.0
    192    193    195    196   5    0.000000   58.576000    0.000000  0.0
    192    193    195    199   5    0.000000   58.576000    0.000000  0.0
    194    193    195    196   5    0.000000   58.576000    0.000000  0.0
    194    193    195    199   5    0.000000   58.576000    0.000000  0.0
    193    195    196    200   5    0.000000    0.000000    0.000000  0.0
    193    195    196    201   5    0.000000    0.000000    0.000000  0.0
    193    195    196    202   5    0.000000    0.000000    0.000000  0.0
    199    195    196    200   5    0.000000    0.000000    2.769808  0.0
    199    195    196    201   5    0.000000    0.000000    2.769808  0.0
    199    195    196    202   5    0.000000    0.000000    2.769808  0.0

[ dihedrals ]
; Improper dihedrals
; h   i   j   k   funct
      1      3      2      4   5     0.00000     9.20480     0.00000  0.0
      2      5      4      8   5     0.00000   125.52000     0.00000  0.0
     12     14     13     15   5     0.00000     9.20480     0.00000  0.0
     13     16     15     19   5     0.00000   125.52000     0.00000  0.0
     22     24     23     25   5     0.00000     9.20480     0.00000  0.0
     23     26     25     29   5     0.00000   125.52000     0.00000  0.0
     32     34     33     35   5     0.00000     9.20480     0.00000  0.0
     33     36     35     39   5     0.00000   125.52000     0.00000  0.0
     42     44     43     45   5     0.00000     9.20480     0.00000  0.0
     43     46     45     49   5     0.00000   125.52000     0.00000  0.0
     52     54     53     55   5     0.00000     9.20480     0.00000  0.0
     53     56     55     59   5     0.00000   125.52000     0.00000  0.0
     62     64     63     65   5     0.00000     9.20480     0.00000  0.0
     63     66     65     69   5     0.00000   125.52000     0.00000  0.0
     72     74     73     75   5     0.00000     9.20480     0.00000  0.0
     73     76     75     79   5     0.00000   125.52000     0.00000  0.0
     82     84     83     85   5     0.00000     9.20480     0.00000  0.0
     83     86     85     89   5     0.00000   125.52000     0.00000  0.0
     92     94     93     95   5     0.00000     9.20480     0.00000  0.0
     93     96     95     99   5     0.00000   125.52000     0.00000  0.0
    102    104    103    105   5     0.00000     9.20480     0.00000  0.0
    103    106    105    109   5     0.00000   125.52000     0.00000  0.0
    112    114    113    115   5     0.00000     9.20480     0.00000  0.0
    113    116    115    119   5     0.00000   125.52000     0.00000  0.0
    122    124    123    125   5     0.00000     9.20480     0.00000  0.0
    123    126    125    129   5     0.00000   125.52000     0.00000  0.0
    132    134    133    135   5     0.00000     9.20480     0.00000  0.0
    133    136    135    139   5     0.00000   125.52000     0.00000  0.0
    142    144    143    145   5     0.00000     9.20480     0.00000  0.0
    143    146    145    149   5     0.00000   125.52000     0.00000  0.0
    152    154    153    155   5     0.00000     9.20480     0.00000  0.0
    153    156    155    159   5     0.00000   125.52000     0.00000  0.0
    162    164    163    165   5     0.00000     9.20480     0.00000  0.0
    163    166    165    169   5     0.00000   125.52000     0.00000  0.0
    172    174    173    175   5     0.00000     9.20480     0.00000  0.0
    173    176    175    179   5     0.00000   125.52000     0.00000  0.0
    182    184    183    185   5     0.00000     9.20480     0.00000  0.0
    183    186    185    189   5     0.00000   125.52000     0.00000  0.0
    192    194    193    195   5     0.00000     9.20480     0.00000  0.0
    193    196    195    199   5     0.00000   125.52000     0.00000  0.0
